                               Psi4 1.4a3.dev225

  ==> Input File <==

--------------------------------------------------------------------------
#psi4
#
memory 32 gb

molecule  {
0 1
  O        1.6269320     1.1045440    -0.3563700
  O        1.6269410    -1.1045380    -0.3563700
  N        1.2303420     0.0000010     0.0570950
  C       -1.2290370    -0.0000020     0.4263420
  C        0.1538230    -0.0000020     1.0857690
  C       -1.4714760    -1.2642140    -0.3967350
  C       -1.4714800     1.2642120    -0.3967320
  H       -1.9638559    -0.0000062     1.3096798
  H        0.3118450     0.8984460     1.6853920
  H        0.3118480    -0.8984510     1.6853890
  H       -0.8055150    -1.3049070    -1.2625520
  H       -2.5029200    -1.2793330    -0.7603930
  H       -1.3046420    -2.1677380     0.1971180
  H       -1.3046550     2.1677340     0.1971270
  H       -0.8055150     1.3049140    -1.2625460
  H       -2.5029220     1.2793270    -0.7603950
units angstrom
no_reorient  #important for SAPT in psi4, default
symmetry c1  #important for SAPT in psi4, default
}

set PROPERTIES_ORIGIN ["COM"]
properties('MP2/aug-cc-pvtz', properties = ['dipole'])
--------------------------------------------------------------------------

    Molecular point group: c1
  Charge       = 0
  Multiplicity = 1
  Basis Set: AUG-CC-PVTZ
    Blend: AUG-CC-PVTZ
  Basis Set: (AUG-CC-PVTZ AUX)
    Blend: AUG-CC-PVTZ-JKFIT

    Orbital Energies [Eh]
    ---------------------

    Doubly Occupied:

       1A    -20.606333     2A    -20.606283     3A    -15.845928
       4A    -11.306343     5A    -11.270667     6A    -11.228727
       7A    -11.228712     8A     -1.584486     9A     -1.385174
      10A     -1.143032    11A     -1.041123    12A     -0.948350
      13A     -0.880357    14A     -0.800953    15A     -0.738575
      16A     -0.728865    17A     -0.703647    18A     -0.638226
      19A     -0.626099    20A     -0.608345    21A     -0.557684
      22A     -0.544858    23A     -0.515171    24A     -0.501503
      25A     -0.499935    26A     -0.484904    27A     -0.472070
      28A     -0.448509

  @DF-RHF Final Energy:  -360.89725275925468

   => Energetics <=

    Nuclear Repulsion Energy =            328.2298279805228276
    One-Electron Energy =               -1142.3644444091628429
    Two-Electron Energy =                 453.2373636693853314
    Total Energy =                       -360.8972527592546840
  Basis Set: (AUG-CC-PVTZ AUX)
    Blend: AUG-CC-PVTZ-RI
    Molecular point group: c1

    Geometry (in Angstrom), charge = 0, multiplicity = 1:

       Center              X                  Y                   Z               Mass
    ------------   -----------------  -----------------  -----------------  -----------------
         O            1.525955859843     1.104543770418    -0.347248311413    15.994914619570
         O            1.525964859843    -1.104538229582    -0.347248311413    15.994914619570
         N            1.129365859843     0.000000770418     0.066216688587    14.003074004430
         C           -1.330013140157    -0.000002229582     0.435463688587    12.000000000000
         C            0.052846859843    -0.000002229582     1.094890688587    12.000000000000
         C           -1.572452140157    -1.264214229582    -0.387613311413    12.000000000000
         C           -1.572456140157     1.264211770418    -0.387610311413    12.000000000000
         H           -2.064832040157    -0.000006429582     1.318801488587     1.007825032230
         H            0.210868859843     0.898445770418     1.694513688587     1.007825032230
         H            0.210871859843    -0.898451229582     1.694510688587     1.007825032230
         H           -0.906491140157    -1.304907229582    -1.253430311413     1.007825032230
         H           -2.603896140157    -1.279333229582    -0.751271311413     1.007825032230
         H           -1.405618140157    -2.167738229582     0.206239688587     1.007825032230
         H           -1.405631140157     2.167733770418     0.206248688587     1.007825032230
         H           -0.906491140157     1.304913770418    -1.253424311413     1.007825032230
         H           -2.603898140157     1.279326770418    -0.751273311413     1.007825032230

  Basis Set: AUG-CC-PVTZ
    Blend: AUG-CC-PVTZ
  Basis Set: (AUG-CC-PVTZ AUX)
    Blend: AUG-CC-PVTZ-JKFIT
	 Reference Energy          =    -360.8972527592546840 [Eh]
	 Singles Energy            =      -0.0000000000000000 [Eh]
	 Same-Spin Energy          =      -0.3689365026005038 [Eh]
	 Opposite-Spin Energy      =      -1.1816129929050665 [Eh]
	 Correlation Energy        =      -1.5505494955055703 [Eh]
	 Total Energy              =    -362.4478022547602336 [Eh]

	 ================> DF-SCS-MP2 Energies <==================
	-----------------------------------------------------------
	 SCS Same-Spin Scale       =       0.3333333333333333 [-]
	 SCS Opposite-Spin Scale   =       1.2000000000000000 [-]
	 SCS Same-Spin Energy      =      -0.1229788342001679 [Eh]
	 SCS Opposite-Spin Energy  =      -1.4179355914860798 [Eh]
	 SCS Correlation Energy    =      -1.5409144256862477 [Eh]
	 SCS Total Energy          =    -362.4381671849409372 [Eh]
	-----------------------------------------------------------

  Dipole Moment: [D]
     X:    -2.9729      Y:    -0.0000      Z:     2.1396     Total:     3.6628

*** Psi4 exiting successfully. Buy a developer a beer!
