                               Psi4 1.4a3.dev225

  ==> Input File <==

--------------------------------------------------------------------------
#psi4
#
memory 32 gb

molecule  {
0 1
  O        1.6269320     1.1045440    -0.3563700
  O        1.6269410    -1.1045380    -0.3563700
  N        1.2303420     0.0000010     0.0570950
  C       -1.2290370    -0.0000020     0.4263420
  C        0.1538230    -0.0000020     1.0857690
  C       -1.4714760    -1.2642140    -0.3967350
  C       -1.4714800     1.2642120    -0.3967320
  H       -1.9318800    -0.0000060     1.2712410
  H        0.3190827     0.9395964     1.7128557
  H        0.3118480    -0.8984510     1.6853890
  H       -0.8055150    -1.3049070    -1.2625520
  H       -2.5029200    -1.2793330    -0.7603930
  H       -1.3046420    -2.1677380     0.1971180
  H       -1.3046550     2.1677340     0.1971270
  H       -0.8055150     1.3049140    -1.2625460
  H       -2.5029220     1.2793270    -0.7603950
units angstrom
no_reorient  #important for SAPT in psi4, default
symmetry c1  #important for SAPT in psi4, default
}

set PROPERTIES_ORIGIN ["COM"]
properties('MP2/aug-cc-pvtz', properties = ['dipole'])
--------------------------------------------------------------------------

    Molecular point group: c1
  Charge       = 0
  Multiplicity = 1
  Basis Set: AUG-CC-PVTZ
    Blend: AUG-CC-PVTZ
  Basis Set: (AUG-CC-PVTZ AUX)
    Blend: AUG-CC-PVTZ-JKFIT

    Orbital Energies [Eh]
    ---------------------

    Doubly Occupied:

       1A    -20.606268     2A    -20.606006     3A    -15.846027
       4A    -11.311223     5A    -11.264854     6A    -11.228498
       7A    -11.228161     8A     -1.584313     9A     -1.384997
      10A     -1.142464    11A     -1.040982    12A     -0.947982
      13A     -0.879693    14A     -0.803590    15A     -0.736395
      16A     -0.727484    17A     -0.704620    18A     -0.633286
      19A     -0.628889    20A     -0.607040    21A     -0.557120
      22A     -0.543136    23A     -0.516932    24A     -0.501103
      25A     -0.499919    26A     -0.483530    27A     -0.474863
      28A     -0.448309

  @DF-RHF Final Energy:  -360.89698032394460

   => Energetics <=

    Nuclear Repulsion Energy =            328.2370078422858910
    One-Electron Energy =               -1142.3926052683639227
    Two-Electron Energy =                 453.2586171021333712
    Total Energy =                       -360.8969803239446037
  Basis Set: (AUG-CC-PVTZ AUX)
    Blend: AUG-CC-PVTZ-RI
    Molecular point group: c1

    Geometry (in Angstrom), charge = 0, multiplicity = 1:

       Center              X                  Y                   Z               Mass
    ------------   -----------------  -----------------  -----------------  -----------------
         O            1.525572401942     1.104141371181    -0.347140989239    15.994914619570
         O            1.525581401942    -1.104940628819    -0.347140989239    15.994914619570
         N            1.128982401942    -0.000401628819     0.066324010761    14.003074004430
         C           -1.330396598058    -0.000404628819     0.435571010761    12.000000000000
         C            0.052463401942    -0.000404628819     1.094998010761    12.000000000000
         C           -1.572835598058    -1.264616628819    -0.387505989239    12.000000000000
         C           -1.572839598058     1.263809371181    -0.387502989239    12.000000000000
         H           -2.033239598058    -0.000408628819     1.280470010761     1.007825032230
         H            0.217723101942     0.939193771181     1.722084710761     1.007825032230
         H            0.210488401942    -0.898853628819     1.694618010761     1.007825032230
         H           -0.906874598058    -1.305309628819    -1.253322989239     1.007825032230
         H           -2.604279598058    -1.279735628819    -0.751163989239     1.007825032230
         H           -1.406001598058    -2.168140628819     0.206347010761     1.007825032230
         H           -1.406014598058     2.167331371181     0.206356010761     1.007825032230
         H           -0.906874598058     1.304511371181    -1.253316989239     1.007825032230
         H           -2.604281598058     1.278924371181    -0.751165989239     1.007825032230

  Basis Set: AUG-CC-PVTZ
    Blend: AUG-CC-PVTZ
  Basis Set: (AUG-CC-PVTZ AUX)
    Blend: AUG-CC-PVTZ-JKFIT
	 Reference Energy          =    -360.8969803239446037 [Eh]
	 Singles Energy            =      -0.0000000000000000 [Eh]
	 Same-Spin Energy          =      -0.3690311612761563 [Eh]
	 Opposite-Spin Energy      =      -1.1817235750024679 [Eh]
	 Correlation Energy        =      -1.5507547362786243 [Eh]
	 Total Energy              =    -362.4477350602232377 [Eh]

	 ================> DF-SCS-MP2 Energies <==================
	-----------------------------------------------------------
	 SCS Same-Spin Scale       =       0.3333333333333333 [-]
	 SCS Opposite-Spin Scale   =       1.2000000000000000 [-]
	 SCS Same-Spin Energy      =      -0.1230103870920521 [Eh]
	 SCS Opposite-Spin Energy  =      -1.4180682900029615 [Eh]
	 SCS Correlation Energy    =      -1.5410786770950136 [Eh]
	 SCS Total Energy          =    -362.4380590010396190 [Eh]
	-----------------------------------------------------------

  Dipole Moment: [D]
     X:    -2.9911      Y:    -0.0051      Z:     2.1554     Total:     3.6868

*** Psi4 exiting successfully. Buy a developer a beer!
