                               Psi4 1.4a3.dev225

  ==> Input File <==

--------------------------------------------------------------------------
#psi4
#
memory 32 gb

molecule  {
0 1
  O        1.6269320     1.1045440    -0.3563700
  O        1.6269410    -1.1045380    -0.3563700
  N        1.2462784     0.0443855     0.0404805
  C       -1.2290370    -0.0000020     0.4263420
  C        0.1538230    -0.0000020     1.0857690
  C       -1.4714760    -1.2642140    -0.3967350
  C       -1.4714800     1.2642120    -0.3967320
  H       -1.9318800    -0.0000060     1.2712410
  H        0.3118450     0.8984460     1.6853920
  H        0.3118480    -0.8984510     1.6853890
  H       -0.8055150    -1.3049070    -1.2625520
  H       -2.5029200    -1.2793330    -0.7603930
  H       -1.3046420    -2.1677380     0.1971180
  H       -1.3046550     2.1677340     0.1971270
  H       -0.8055150     1.3049140    -1.2625460
  H       -2.5029220     1.2793270    -0.7603950
units angstrom
no_reorient  #important for SAPT in psi4, default
symmetry c1  #important for SAPT in psi4, default
}

set PROPERTIES_ORIGIN ["COM"]
properties('MP2/aug-cc-pvtz', properties = ['dipole'])
--------------------------------------------------------------------------

    Molecular point group: c1
  Charge       = 0
  Multiplicity = 1
  Basis Set: AUG-CC-PVTZ
    Blend: AUG-CC-PVTZ
  Basis Set: (AUG-CC-PVTZ AUX)
    Blend: AUG-CC-PVTZ-JKFIT

    Orbital Energies [Eh]
    ---------------------

    Doubly Occupied:

       1A    -20.622563     2A    -20.589017     3A    -15.844439
       4A    -11.305432     5A    -11.263542     6A    -11.229295
       7A    -11.226262     8A     -1.601500     9A     -1.386646
      10A     -1.138656    11A     -1.035716    12A     -0.947447
      13A     -0.880690    14A     -0.806254    15A     -0.741229
      16A     -0.730589    17A     -0.710389    18A     -0.638852
      19A     -0.631124    20A     -0.608620    21A     -0.557135
      22A     -0.544141    23A     -0.515337    24A     -0.501394
      25A     -0.499137    26A     -0.485061    27A     -0.467381
      28A     -0.449469

  @DF-RHF Final Energy:  -360.89910150944570

   => Energetics <=

    Nuclear Repulsion Energy =            328.5134029282477854
    One-Electron Energy =               -1142.9103730233300666
    Two-Electron Energy =                 453.4978685856365246
    Total Energy =                       -360.8991015094456998
  Basis Set: (AUG-CC-PVTZ AUX)
    Blend: AUG-CC-PVTZ-RI
    Molecular point group: c1

    Geometry (in Angstrom), charge = 0, multiplicity = 1:

       Center              X                  Y                   Z               Mass
    ------------   -----------------  -----------------  -----------------  -----------------
         O            1.523477920264     1.098513306930    -0.344615040572    15.994914619570
         O            1.523486920264    -1.110568693070    -0.344615040572    15.994914619570
         N            1.142824320264     0.038354806930     0.052235459428    14.003074004430
         C           -1.332491079736    -0.006032693070     0.438096959428    12.000000000000
         C            0.050368920264    -0.006032693070     1.097523959428    12.000000000000
         C           -1.574930079736    -1.270244693070    -0.384980040572    12.000000000000
         C           -1.574934079736     1.258181306930    -0.384977040572    12.000000000000
         H           -2.035334079736    -0.006036693070     1.282995959428     1.007825032230
         H            0.208390920264     0.892415306930     1.697146959428     1.007825032230
         H            0.208393920264    -0.904481693070     1.697143959428     1.007825032230
         H           -0.908969079736    -1.310937693070    -1.250797040572     1.007825032230
         H           -2.606374079736    -1.285363693070    -0.748638040572     1.007825032230
         H           -1.408096079736    -2.173768693070     0.208872959428     1.007825032230
         H           -1.408109079736     2.161703306930     0.208881959428     1.007825032230
         H           -0.908969079736     1.298883306930    -1.250791040572     1.007825032230
         H           -2.606376079736     1.273296306930    -0.748640040572     1.007825032230

  Basis Set: AUG-CC-PVTZ
    Blend: AUG-CC-PVTZ
  Basis Set: (AUG-CC-PVTZ AUX)
    Blend: AUG-CC-PVTZ-JKFIT
	 Reference Energy          =    -360.8991015094456998 [Eh]
	 Singles Energy            =      -0.0000000000000000 [Eh]
	 Same-Spin Energy          =      -0.3678095372928271 [Eh]
	 Opposite-Spin Energy      =      -1.1788885412150676 [Eh]
	 Correlation Energy        =      -1.5466980785078948 [Eh]
	 Total Energy              =    -362.4457995879536156 [Eh]

	 ================> DF-SCS-MP2 Energies <==================
	-----------------------------------------------------------
	 SCS Same-Spin Scale       =       0.3333333333333333 [-]
	 SCS Opposite-Spin Scale   =       1.2000000000000000 [-]
	 SCS Same-Spin Energy      =      -0.1226031790976090 [Eh]
	 SCS Opposite-Spin Energy  =      -1.4146662494580811 [Eh]
	 SCS Correlation Energy    =      -1.5372694285556900 [Eh]
	 SCS Total Energy          =    -362.4363709380014029 [Eh]
	-----------------------------------------------------------

  Dipole Moment: [D]
     X:    -2.9287      Y:     0.2507      Z:     2.1269     Total:     3.6282

*** Psi4 exiting successfully. Buy a developer a beer!
