                               Psi4 1.4a3.dev225

  ==> Input File <==

--------------------------------------------------------------------------
#psi4
#
memory 32 gb

molecule  {
0 1
  O        1.6269320     1.1045440    -0.3563700
  O        1.6269410    -1.1045380    -0.3563700
  N        1.2303420     0.0000010     0.0570950
  C       -1.2290370    -0.0000020     0.4263420
  C        0.1538230    -0.0000020     1.0857690
  C       -1.4714760    -1.2642140    -0.3967350
  C       -1.4714800     1.2642120    -0.3967320
  H       -2.0597837    -0.0000067     1.4249961
  H        0.3118450     0.8984460     1.6853920
  H        0.3118480    -0.8984510     1.6853890
  H       -0.8055150    -1.3049070    -1.2625520
  H       -2.5029200    -1.2793330    -0.7603930
  H       -1.3046420    -2.1677380     0.1971180
  H       -1.3046550     2.1677340     0.1971270
  H       -0.8055150     1.3049140    -1.2625460
  H       -2.5029220     1.2793270    -0.7603950
units angstrom
no_reorient  #important for SAPT in psi4, default
symmetry c1  #important for SAPT in psi4, default
}

set PROPERTIES_ORIGIN ["COM"]
properties('MP2/aug-cc-pvtz', properties = ['dipole'])
--------------------------------------------------------------------------

    Molecular point group: c1
  Charge       = 0
  Multiplicity = 1
  Basis Set: AUG-CC-PVTZ
    Blend: AUG-CC-PVTZ
  Basis Set: (AUG-CC-PVTZ AUX)
    Blend: AUG-CC-PVTZ-JKFIT

    Orbital Energies [Eh]
    ---------------------

    Doubly Occupied:

       1A    -20.607519     2A    -20.607469     3A    -15.847028
       4A    -11.307804     5A    -11.287589     6A    -11.230590
       7A    -11.230576     8A     -1.585658     9A     -1.386314
      10A     -1.142022    11A     -1.040344    12A     -0.949927
      13A     -0.879093    14A     -0.794475    15A     -0.739586
      16A     -0.729955    17A     -0.699958    18A     -0.639214
      19A     -0.618518    20A     -0.609595    21A     -0.558851
      22A     -0.546014    23A     -0.512363    24A     -0.503408
      25A     -0.499064    26A     -0.486377    27A     -0.460343
      28A     -0.449531

  @DF-RHF Final Energy:  -360.87974682395628

   => Energetics <=

    Nuclear Repulsion Energy =            327.5368997934521644
    One-Electron Energy =               -1140.9349183300769255
    Two-Electron Energy =                 452.5182717126684224
    Total Energy =                       -360.8797468239562818
  Basis Set: (AUG-CC-PVTZ AUX)
    Blend: AUG-CC-PVTZ-RI
    Molecular point group: c1

    Geometry (in Angstrom), charge = 0, multiplicity = 1:

       Center              X                  Y                   Z               Mass
    ------------   -----------------  -----------------  -----------------  -----------------
         O            1.526893908706     1.104543775308    -0.348375954538    15.994914619570
         O            1.526902908706    -1.104538224692    -0.348375954538    15.994914619570
         N            1.130303908706     0.000000775308     0.065089045462    14.003074004430
         C           -1.329075091294    -0.000002224692     0.434336045462    12.000000000000
         C            0.053784908706    -0.000002224692     1.093763045462    12.000000000000
         C           -1.571514091294    -1.264214224692    -0.388740954538    12.000000000000
         C           -1.571518091294     1.264211775308    -0.388737954538    12.000000000000
         H           -2.159821791294    -0.000006924692     1.432990145462     1.007825032230
         H            0.211806908706     0.898445775308     1.693386045462     1.007825032230
         H            0.211809908706    -0.898451224692     1.693383045462     1.007825032230
         H           -0.905553091294    -1.304907224692    -1.254557954538     1.007825032230
         H           -2.602958091294    -1.279333224692    -0.752398954538     1.007825032230
         H           -1.404680091294    -2.167738224692     0.205112045462     1.007825032230
         H           -1.404693091294     2.167733775308     0.205121045462     1.007825032230
         H           -0.905553091294     1.304913775308    -1.254551954538     1.007825032230
         H           -2.602960091294     1.279326775308    -0.752400954538     1.007825032230

  Basis Set: AUG-CC-PVTZ
    Blend: AUG-CC-PVTZ
  Basis Set: (AUG-CC-PVTZ AUX)
    Blend: AUG-CC-PVTZ-JKFIT
	 Reference Energy          =    -360.8797468239562818 [Eh]
	 Singles Energy            =      -0.0000000000000000 [Eh]
	 Same-Spin Energy          =      -0.3690375876854758 [Eh]
	 Opposite-Spin Energy      =      -1.1830078628249647 [Eh]
	 Correlation Energy        =      -1.5520454505104406 [Eh]
	 Total Energy              =    -362.4317922744667158 [Eh]

	 ================> DF-SCS-MP2 Energies <==================
	-----------------------------------------------------------
	 SCS Same-Spin Scale       =       0.3333333333333333 [-]
	 SCS Opposite-Spin Scale   =       1.2000000000000000 [-]
	 SCS Same-Spin Energy      =      -0.1230125292284919 [Eh]
	 SCS Opposite-Spin Energy  =      -1.4196094353899575 [Eh]
	 SCS Correlation Energy    =      -1.5426219646184494 [Eh]
	 SCS Total Energy          =    -362.4223687885747154 [Eh]
	-----------------------------------------------------------

  Dipole Moment: [D]
     X:    -2.8987      Y:    -0.0000      Z:     2.0258     Total:     3.5364

*** Psi4 exiting successfully. Buy a developer a beer!
