                               Psi4 1.4a3.dev225

  ==> Input File <==

--------------------------------------------------------------------------
#psi4
#
memory 32 gb

molecule  {
0 1
  O        1.6269320     1.1045440    -0.3563700
  O        1.6269410    -1.1045380    -0.3563700
  N        1.2303420     0.0000010     0.0570950
  C       -1.2290370    -0.0000020     0.4263420
  C        0.1538230    -0.0000020     1.0857690
  C       -1.4714760    -1.2642140    -0.3967350
  C       -1.4873478     1.3469541    -0.4506018
  H       -1.9318800    -0.0000060     1.2712410
  H        0.3118450     0.8984460     1.6853920
  H        0.3118480    -0.8984510     1.6853890
  H       -0.8055150    -1.3049070    -1.2625520
  H       -2.5029200    -1.2793330    -0.7603930
  H       -1.3046420    -2.1677380     0.1971180
  H       -1.3046550     2.1677340     0.1971270
  H       -0.8055150     1.3049140    -1.2625460
  H       -2.5029220     1.2793270    -0.7603950
units angstrom
no_reorient  #important for SAPT in psi4, default
symmetry c1  #important for SAPT in psi4, default
}

set PROPERTIES_ORIGIN ["COM"]
properties('MP2/aug-cc-pvtz', properties = ['dipole'])
--------------------------------------------------------------------------

    Molecular point group: c1
  Charge       = 0
  Multiplicity = 1
  Basis Set: AUG-CC-PVTZ
    Blend: AUG-CC-PVTZ
  Basis Set: (AUG-CC-PVTZ AUX)
    Blend: AUG-CC-PVTZ-JKFIT

    Orbital Energies [Eh]
    ---------------------

    Doubly Occupied:

       1A    -20.606086     2A    -20.605899     3A    -15.845562
       4A    -11.305736     5A    -11.267563     6A    -11.228047
       7A    -11.226081     8A     -1.584130     9A     -1.384866
      10A     -1.137637    11A     -1.035429    12A     -0.949330
      13A     -0.882171    14A     -0.803992    15A     -0.737635
      16A     -0.728452    17A     -0.703060    18A     -0.636340
      19A     -0.625569    20A     -0.609512    21A     -0.565960
      22A     -0.552450    23A     -0.521204    24A     -0.507465
      25A     -0.492298    26A     -0.477389    27A     -0.466477
      28A     -0.448283

  @DF-RHF Final Energy:  -360.89247229484448

   => Energetics <=

    Nuclear Repulsion Energy =            327.0120990343385756
    One-Electron Energy =               -1139.9398927218937843
    Two-Electron Energy =                 452.0353213927107277
    Total Energy =                       -360.8924722948444810
  Basis Set: (AUG-CC-PVTZ AUX)
    Blend: AUG-CC-PVTZ-RI
    Molecular point group: c1

    Geometry (in Angstrom), charge = 0, multiplicity = 1:

       Center              X                  Y                   Z               Mass
    ------------   -----------------  -----------------  -----------------  -----------------
         O            1.527490717002     1.094909835481    -0.340600193265    15.994914619570
         O            1.527499717002    -1.114172164519    -0.340600193265    15.994914619570
         N            1.130900717002    -0.009633164519     0.072864806735    14.003074004430
         C           -1.328478282998    -0.009636164519     0.442111806735    12.000000000000
         C            0.054381717002    -0.009636164519     1.101538806735    12.000000000000
         C           -1.570917282998    -1.273848164519    -0.380965193265    12.000000000000
         C           -1.586789082998     1.337319935481    -0.434831993265    12.000000000000
         H           -2.031321282998    -0.009640164519     1.287010806735     1.007825032230
         H            0.212403717002     0.888811835481     1.701161806735     1.007825032230
         H            0.212406717002    -0.908085164519     1.701158806735     1.007825032230
         H           -0.904956282998    -1.314541164519    -1.246782193265     1.007825032230
         H           -2.602361282998    -1.288967164519    -0.744623193265     1.007825032230
         H           -1.404083282998    -2.177372164519     0.212887806735     1.007825032230
         H           -1.404096282998     2.158099835481     0.212896806735     1.007825032230
         H           -0.904956282998     1.295279835481    -1.246776193265     1.007825032230
         H           -2.602363282998     1.269692835481    -0.744625193265     1.007825032230

  Basis Set: AUG-CC-PVTZ
    Blend: AUG-CC-PVTZ
  Basis Set: (AUG-CC-PVTZ AUX)
    Blend: AUG-CC-PVTZ-JKFIT
	 Reference Energy          =    -360.8924722948444810 [Eh]
	 Singles Energy            =      -0.0000000000000000 [Eh]
	 Same-Spin Energy          =      -0.3684531955555718 [Eh]
	 Opposite-Spin Energy      =      -1.1811153587054988 [Eh]
	 Correlation Energy        =      -1.5495685542610707 [Eh]
	 Total Energy              =    -362.4420408491055241 [Eh]

	 ================> DF-SCS-MP2 Energies <==================
	-----------------------------------------------------------
	 SCS Same-Spin Scale       =       0.3333333333333333 [-]
	 SCS Opposite-Spin Scale   =       1.2000000000000000 [-]
	 SCS Same-Spin Energy      =      -0.1228177318518573 [Eh]
	 SCS Opposite-Spin Energy  =      -1.4173384304465986 [Eh]
	 SCS Correlation Energy    =      -1.5401561622984559 [Eh]
	 SCS Total Energy          =    -362.4326284571429255 [Eh]
	-----------------------------------------------------------

  Dipole Moment: [D]
     X:    -2.9873      Y:    -0.0216      Z:     2.1816     Total:     3.6992

*** Psi4 exiting successfully. Buy a developer a beer!
