                               Psi4 1.4a3.dev225

  ==> Input File <==

--------------------------------------------------------------------------
#psi4
#
memory 32 gb

molecule  {
0 1
  O        1.6269320     1.1045440    -0.3563700
  O        1.6269410    -1.1045380    -0.3563700
  N        1.2303420     0.0000010     0.0570950
  C       -1.2290370    -0.0000020     0.4263420
  C        0.1538230    -0.0000020     1.0857690
  C       -1.5100142    -1.2779669    -0.3625319
  C       -1.4714800     1.2642120    -0.3967320
  H       -1.9318800    -0.0000060     1.2712410
  H        0.3118450     0.8984460     1.6853920
  H        0.3118480    -0.8984510     1.6853890
  H       -0.8055150    -1.3049070    -1.2625520
  H       -2.5029200    -1.2793330    -0.7603930
  H       -1.3046420    -2.1677380     0.1971180
  H       -1.3046550     2.1677340     0.1971270
  H       -0.8055150     1.3049140    -1.2625460
  H       -2.5029220     1.2793270    -0.7603950
units angstrom
no_reorient  #important for SAPT in psi4, default
symmetry c1  #important for SAPT in psi4, default
}

set PROPERTIES_ORIGIN ["COM"]
properties('MP2/aug-cc-pvtz', properties = ['dipole'])
--------------------------------------------------------------------------

    Molecular point group: c1
  Charge       = 0
  Multiplicity = 1
  Basis Set: AUG-CC-PVTZ
    Blend: AUG-CC-PVTZ
  Basis Set: (AUG-CC-PVTZ AUX)
    Blend: AUG-CC-PVTZ-JKFIT

    Orbital Energies [Eh]
    ---------------------

    Doubly Occupied:

       1A    -20.605935     2A    -20.605848     3A    -15.845544
       4A    -11.306522     5A    -11.264624     6A    -11.228682
       7A    -11.228609     8A     -1.584033     9A     -1.384735
      10A     -1.143603    11A     -1.041984    12A     -0.948936
      13A     -0.881062    14A     -0.803816    15A     -0.738539
      16A     -0.728516    17A     -0.705051    18A     -0.639023
      19A     -0.627053    20A     -0.613098    21A     -0.552468
      22A     -0.548244    23A     -0.514212    24A     -0.504014
      25A     -0.499371    26A     -0.485635    27A     -0.470861
      28A     -0.447851

  @DF-RHF Final Energy:  -360.89653972697164

   => Energetics <=

    Nuclear Repulsion Energy =            328.1542781502345747
    One-Electron Energy =               -1142.2059042427233635
    Two-Electron Energy =                 453.1550863655170929
    Total Energy =                       -360.8965397269716391
  Basis Set: (AUG-CC-PVTZ AUX)
    Blend: AUG-CC-PVTZ-RI
    Molecular point group: c1

    Geometry (in Angstrom), charge = 0, multiplicity = 1:

       Center              X                  Y                   Z               Mass
    ------------   -----------------  -----------------  -----------------  -----------------
         O            1.530130305727     1.106145063534    -0.350854808704    15.994914619570
         O            1.530139305727    -1.102936936466    -0.350854808704    15.994914619570
         N            1.133540305727     0.001602063534     0.062610191296    14.003074004430
         C           -1.325838694273     0.001599063534     0.431857191296    12.000000000000
         C            0.057021305727     0.001599063534     1.091284191296    12.000000000000
         C           -1.606815894273    -1.276365836466    -0.357016708704    12.000000000000
         C           -1.568281694273     1.265813063534    -0.391216808704    12.000000000000
         H           -2.028681694273     0.001595063534     1.276756191296     1.007825032230
         H            0.215043305727     0.900047063534     1.690907191296     1.007825032230
         H            0.215046305727    -0.896849936466     1.690904191296     1.007825032230
         H           -0.902316694273    -1.303305936466    -1.257036808704     1.007825032230
         H           -2.599721694273    -1.277731936466    -0.754877808704     1.007825032230
         H           -1.401443694273    -2.166136936466     0.202633191296     1.007825032230
         H           -1.401456694273     2.169335063534     0.202642191296     1.007825032230
         H           -0.902316694273     1.306515063534    -1.257030808704     1.007825032230
         H           -2.599723694273     1.280928063534    -0.754879808704     1.007825032230

  Basis Set: AUG-CC-PVTZ
    Blend: AUG-CC-PVTZ
  Basis Set: (AUG-CC-PVTZ AUX)
    Blend: AUG-CC-PVTZ-JKFIT
	 Reference Energy          =    -360.8965397269716391 [Eh]
	 Singles Energy            =      -0.0000000000000000 [Eh]
	 Same-Spin Energy          =      -0.3689475427724107 [Eh]
	 Opposite-Spin Energy      =      -1.1813284477882824 [Eh]
	 Correlation Energy        =      -1.5502759905606931 [Eh]
	 Total Energy              =    -362.4468157175323313 [Eh]

	 ================> DF-SCS-MP2 Energies <==================
	-----------------------------------------------------------
	 SCS Same-Spin Scale       =       0.3333333333333333 [-]
	 SCS Opposite-Spin Scale   =       1.2000000000000000 [-]
	 SCS Same-Spin Energy      =      -0.1229825142574702 [Eh]
	 SCS Opposite-Spin Energy  =      -1.4175941373459389 [Eh]
	 SCS Correlation Energy    =      -1.5405766516034092 [Eh]
	 SCS Total Energy          =    -362.4371163785750696 [Eh]
	-----------------------------------------------------------

  Dipole Moment: [D]
     X:    -2.9998      Y:    -0.0005      Z:     2.1836     Total:     3.7104

*** Psi4 exiting successfully. Buy a developer a beer!
