                               Psi4 1.4a3.dev225

  ==> Input File <==

--------------------------------------------------------------------------
#psi4
#
memory 32 gb

molecule  {
0 1
  O        1.6269320     1.1045440    -0.3563700
  O        1.6269410    -1.1045380    -0.3563700
  N        1.2303420     0.0000010     0.0570950
  C       -1.2290370    -0.0000020     0.4263420
  C        0.1538230    -0.0000020     1.0857690
  C       -1.4714760    -1.2642140    -0.3967350
  C       -1.4714800     1.2642120    -0.3967320
  H       -1.9318800    -0.0000060     1.2712410
  H        0.3118450     0.8984460     1.6853920
  H        0.3118480    -0.8984510     1.6853890
  H       -0.8055150    -1.3049070    -1.2625520
  H       -2.5029200    -1.2793330    -0.7603930
  H       -1.3198918    -2.0851495     0.1428356
  H       -1.3046550     2.1677340     0.1971270
  H       -0.8055150     1.3049140    -1.2625460
  H       -2.5029220     1.2793270    -0.7603950
units angstrom
no_reorient  #important for SAPT in psi4, default
symmetry c1  #important for SAPT in psi4, default
}

set PROPERTIES_ORIGIN ["COM"]
properties('MP2/aug-cc-pvtz', properties = ['dipole'])
--------------------------------------------------------------------------

    Molecular point group: c1
  Charge       = 0
  Multiplicity = 1
  Basis Set: AUG-CC-PVTZ
    Blend: AUG-CC-PVTZ
  Basis Set: (AUG-CC-PVTZ AUX)
    Blend: AUG-CC-PVTZ-JKFIT

    Orbital Energies [Eh]
    ---------------------

    Doubly Occupied:

       1A    -20.606045     2A    -20.605987     3A    -15.845684
       4A    -11.305980     5A    -11.263736     6A    -11.227363
       7A    -11.215712     8A     -1.584187     9A     -1.384897
      10A     -1.144271    11A     -1.043256    12A     -0.955319
      13A     -0.882117    14A     -0.805535    15A     -0.738960
      16A     -0.728614    17A     -0.705863    18A     -0.637866
      19A     -0.632126    20A     -0.615323    21A     -0.558793
      22A     -0.546252    23A     -0.516774    24A     -0.505128
      25A     -0.499553    26A     -0.485330    27A     -0.474461
      28A     -0.448219

  @DF-RHF Final Energy:  -360.89335466000216

   => Energetics <=

    Nuclear Repulsion Energy =            328.9480639400433688
    One-Electron Energy =               -1143.7561345997323770
    Two-Electron Energy =                 453.9147159996869050
    Total Energy =                       -360.8933546600021600
  Basis Set: (AUG-CC-PVTZ AUX)
    Blend: AUG-CC-PVTZ-RI
    Molecular point group: c1

    Geometry (in Angstrom), charge = 0, multiplicity = 1:

       Center              X                  Y                   Z               Mass
    ------------   -----------------  -----------------  -----------------  -----------------
         O            1.525792300384     1.103736160569    -0.346341618920    15.994914619570
         O            1.525801300384    -1.105345839431    -0.346341618920    15.994914619570
         N            1.129202300384    -0.000806839431     0.067123381080    14.003074004430
         C           -1.330176699616    -0.000809839431     0.436370381080    12.000000000000
         C            0.052683300384    -0.000809839431     1.095797381080    12.000000000000
         C           -1.572615699616    -1.265021839431    -0.386706618920    12.000000000000
         C           -1.572619699616     1.263404160569    -0.386703618920    12.000000000000
         H           -2.033019699616    -0.000813839431     1.281269381080     1.007825032230
         H            0.210705300384     0.897638160569     1.695420381080     1.007825032230
         H            0.210708300384    -0.899258839431     1.695417381080     1.007825032230
         H           -0.906654699616    -1.305714839431    -1.252523618920     1.007825032230
         H           -2.604059699616    -1.280140839431    -0.750364618920     1.007825032230
         H           -1.421031499616    -2.085957339431     0.152863981080     1.007825032230
         H           -1.405794699616     2.166926160569     0.207155381080     1.007825032230
         H           -0.906654699616     1.304106160569    -1.252517618920     1.007825032230
         H           -2.604061699616     1.278519160569    -0.750366618920     1.007825032230

  Basis Set: AUG-CC-PVTZ
    Blend: AUG-CC-PVTZ
  Basis Set: (AUG-CC-PVTZ AUX)
    Blend: AUG-CC-PVTZ-JKFIT
	 Reference Energy          =    -360.8933546600021600 [Eh]
	 Singles Energy            =      -0.0000000000000000 [Eh]
	 Same-Spin Energy          =      -0.3689257604561784 [Eh]
	 Opposite-Spin Energy      =      -1.1807415133307408 [Eh]
	 Correlation Energy        =      -1.5496672737869193 [Eh]
	 Total Energy              =    -362.4430219337890549 [Eh]

	 ================> DF-SCS-MP2 Energies <==================
	-----------------------------------------------------------
	 SCS Same-Spin Scale       =       0.3333333333333333 [-]
	 SCS Opposite-Spin Scale   =       1.2000000000000000 [-]
	 SCS Same-Spin Energy      =      -0.1229752534853928 [Eh]
	 SCS Opposite-Spin Energy  =      -1.4168898159968890 [Eh]
	 SCS Correlation Energy    =      -1.5398650694822817 [Eh]
	 SCS Total Energy          =    -362.4332197294844491 [Eh]
	-----------------------------------------------------------

  Dipole Moment: [D]
     X:    -2.9869      Y:    -0.0494      Z:     2.1888     Total:     3.7033

*** Psi4 exiting successfully. Buy a developer a beer!
