                               Psi4 1.4a3.dev225

  ==> Input File <==

--------------------------------------------------------------------------
#psi4
#
memory 32 gb

molecule  {
0 1
  O        1.6269320     1.1045440    -0.3563700
  O        1.6269410    -1.1045380    -0.3563700
  N        1.2303420     0.0000010     0.0570950
  C       -1.2672926     0.0157093     0.4600147
  C        0.1538230    -0.0000020     1.0857690
  C       -1.4714760    -1.2642140    -0.3967350
  C       -1.4714800     1.2642120    -0.3967320
  H       -1.9318800    -0.0000060     1.2712410
  H        0.3118450     0.8984460     1.6853920
  H        0.3118480    -0.8984510     1.6853890
  H       -0.8055150    -1.3049070    -1.2625520
  H       -2.5029200    -1.2793330    -0.7603930
  H       -1.3046420    -2.1677380     0.1971180
  H       -1.3046550     2.1677340     0.1971270
  H       -0.8055150     1.3049140    -1.2625460
  H       -2.5029220     1.2793270    -0.7603950
units angstrom
no_reorient  #important for SAPT in psi4, default
symmetry c1  #important for SAPT in psi4, default
}

set PROPERTIES_ORIGIN ["COM"]
properties('MP2/aug-cc-pvtz', properties = ['dipole'])
--------------------------------------------------------------------------

    Molecular point group: c1
  Charge       = 0
  Multiplicity = 1
  Basis Set: AUG-CC-PVTZ
    Blend: AUG-CC-PVTZ
  Basis Set: (AUG-CC-PVTZ AUX)
    Blend: AUG-CC-PVTZ-JKFIT

    Orbital Energies [Eh]
    ---------------------

    Doubly Occupied:

       1A    -20.606012     2A    -20.605931     3A    -15.846319
       4A    -11.305247     5A    -11.263401     6A    -11.228831
       7A    -11.228270     8A     -1.584012     9A     -1.384805
      10A     -1.139671    11A     -1.040941    12A     -0.945534
      13A     -0.881228    14A     -0.808700    15A     -0.735905
      16A     -0.728235    17A     -0.707862    18A     -0.635773
      19A     -0.630261    20A     -0.605522    21A     -0.559025
      22A     -0.542984    23A     -0.523052    24A     -0.498986
      25A     -0.494423    26A     -0.480917    27A     -0.480128
      28A     -0.447885

  @DF-RHF Final Energy:  -360.89671949255279

   => Energetics <=

    Nuclear Repulsion Energy =            327.8265890487886622
    One-Electron Energy =               -1141.5668978706971757
    Two-Electron Energy =                 452.8435893293556660
    Total Energy =                       -360.8967194925527906
  Basis Set: (AUG-CC-PVTZ AUX)
    Blend: AUG-CC-PVTZ-RI
    Molecular point group: c1

    Geometry (in Angstrom), charge = 0, multiplicity = 1:

       Center              X                  Y                   Z               Mass
    ------------   -----------------  -----------------  -----------------  -----------------
         O            1.530097401686     1.102714450482    -0.350793052500    15.994914619570
         O            1.530106401686    -1.106367549518    -0.350793052500    15.994914619570
         N            1.133507401686    -0.001828549518     0.062671947500    14.003074004430
         C           -1.364127198314     0.013879750482     0.465591647500    12.000000000000
         C            0.056988401686    -0.001831549518     1.091345947500    12.000000000000
         C           -1.568310598314    -1.266043549518    -0.391158052500    12.000000000000
         C           -1.568314598314     1.262382450482    -0.391155052500    12.000000000000
         H           -2.028714598314    -0.001835549518     1.276817947500     1.007825032230
         H            0.215010401686     0.896616450482     1.690968947500     1.007825032230
         H            0.215013401686    -0.900280549518     1.690965947500     1.007825032230
         H           -0.902349598314    -1.306736549518    -1.256975052500     1.007825032230
         H           -2.599754598314    -1.281162549518    -0.754816052500     1.007825032230
         H           -1.401476598314    -2.169567549518     0.202694947500     1.007825032230
         H           -1.401489598314     2.165904450482     0.202703947500     1.007825032230
         H           -0.902349598314     1.303084450482    -1.256969052500     1.007825032230
         H           -2.599756598314     1.277497450482    -0.754818052500     1.007825032230

  Basis Set: AUG-CC-PVTZ
    Blend: AUG-CC-PVTZ
  Basis Set: (AUG-CC-PVTZ AUX)
    Blend: AUG-CC-PVTZ-JKFIT
	 Reference Energy          =    -360.8967194925527906 [Eh]
	 Singles Energy            =      -0.0000000000000000 [Eh]
	 Same-Spin Energy          =      -0.3686405730097130 [Eh]
	 Opposite-Spin Energy      =      -1.1810773167356343 [Eh]
	 Correlation Energy        =      -1.5497178897453474 [Eh]
	 Total Energy              =    -362.4464373822981429 [Eh]

	 ================> DF-SCS-MP2 Energies <==================
	-----------------------------------------------------------
	 SCS Same-Spin Scale       =       0.3333333333333333 [-]
	 SCS Opposite-Spin Scale   =       1.2000000000000000 [-]
	 SCS Same-Spin Energy      =      -0.1228801910032377 [Eh]
	 SCS Opposite-Spin Energy  =      -1.4172927800827611 [Eh]
	 SCS Correlation Energy    =      -1.5401729710859988 [Eh]
	 SCS Total Energy          =    -362.4368924636387987 [Eh]
	-----------------------------------------------------------

  Dipole Moment: [D]
     X:    -3.0085      Y:     0.0115      Z:     2.1687     Total:     3.7087

*** Psi4 exiting successfully. Buy a developer a beer!
