                               Psi4 1.4a3.dev225

  ==> Input File <==

--------------------------------------------------------------------------
#psi4
#
memory 32 gb

molecule  {
0 1
  O        1.6269320     1.1045440    -0.3563700
  O        1.5403407    -1.1583023    -0.2752975
  N        1.2303420     0.0000010     0.0570950
  C       -1.2290370    -0.0000020     0.4263420
  C        0.1538230    -0.0000020     1.0857690
  C       -1.4714760    -1.2642140    -0.3967350
  C       -1.4714800     1.2642120    -0.3967320
  H       -1.9318800    -0.0000060     1.2712410
  H        0.3118450     0.8984460     1.6853920
  H        0.3118480    -0.8984510     1.6853890
  H       -0.8055150    -1.3049070    -1.2625520
  H       -2.5029200    -1.2793330    -0.7603930
  H       -1.3046420    -2.1677380     0.1971180
  H       -1.3046550     2.1677340     0.1971270
  H       -0.8055150     1.3049140    -1.2625460
  H       -2.5029220     1.2793270    -0.7603950
units angstrom
no_reorient  #important for SAPT in psi4, default
symmetry c1  #important for SAPT in psi4, default
}

set PROPERTIES_ORIGIN ["COM"]
properties('MP2/aug-cc-pvtz', properties = ['dipole'])
--------------------------------------------------------------------------

    Molecular point group: c1
  Charge       = 0
  Multiplicity = 1
  Basis Set: AUG-CC-PVTZ
    Blend: AUG-CC-PVTZ
  Basis Set: (AUG-CC-PVTZ AUX)
    Blend: AUG-CC-PVTZ-JKFIT

    Orbital Energies [Eh]
    ---------------------

    Doubly Occupied:

       1A    -20.613397     2A    -20.610149     3A    -15.847725
       4A    -11.299927     5A    -11.262010     6A    -11.227082
       7A    -11.226325     8A     -1.584643     9A     -1.396893
      10A     -1.138658    11A     -1.037718    12A     -0.946361
      13A     -0.880914    14A     -0.805662    15A     -0.738226
      16A     -0.732399    17A     -0.705354    18A     -0.637718
      19A     -0.627360    20A     -0.605992    21A     -0.557178
      22A     -0.543490    23A     -0.513689    24A     -0.505549
      25A     -0.497635    26A     -0.485772    27A     -0.469665
      28A     -0.454451

  @DF-RHF Final Energy:  -360.89458942261848

   => Energetics <=

    Nuclear Repulsion Energy =            329.2069050606461360
    One-Electron Energy =               -1144.2991021910570453
    Two-Electron Energy =                 454.1976077077924288
    Total Energy =                       -360.8945894226184805
  Basis Set: (AUG-CC-PVTZ AUX)
    Blend: AUG-CC-PVTZ-RI
    Molecular point group: c1

    Geometry (in Angstrom), charge = 0, multiplicity = 1:

       Center              X                  Y                   Z               Mass
    ------------   -----------------  -----------------  -----------------  -----------------
         O            1.539083111906     1.112887719704    -0.359454477744    15.994914619570
         O            1.452491811906    -1.149958580296    -0.278381977744    15.994914619570
         N            1.142493111906     0.008344719704     0.054010522256    14.003074004430
         C           -1.316885888094     0.008341719704     0.423257522256    12.000000000000
         C            0.065974111906     0.008341719704     1.082684522256    12.000000000000
         C           -1.559324888094    -1.255870280296    -0.399819477744    12.000000000000
         C           -1.559328888094     1.272555719704    -0.399816477744    12.000000000000
         H           -2.019728888094     0.008337719704     1.268156522256     1.007825032230
         H            0.223996111906     0.906789719704     1.682307522256     1.007825032230
         H            0.223999111906    -0.890107280296     1.682304522256     1.007825032230
         H           -0.893363888094    -1.296563280296    -1.265636477744     1.007825032230
         H           -2.590768888094    -1.270989280296    -0.763477477744     1.007825032230
         H           -1.392490888094    -2.159394280296     0.194033522256     1.007825032230
         H           -1.392503888094     2.176077719704     0.194042522256     1.007825032230
         H           -0.893363888094     1.313257719704    -1.265630477744     1.007825032230
         H           -2.590770888094     1.287670719704    -0.763479477744     1.007825032230

  Basis Set: AUG-CC-PVTZ
    Blend: AUG-CC-PVTZ
  Basis Set: (AUG-CC-PVTZ AUX)
    Blend: AUG-CC-PVTZ-JKFIT
	 Reference Energy          =    -360.8945894226184805 [Eh]
	 Singles Energy            =      -0.0000000000000000 [Eh]
	 Same-Spin Energy          =      -0.3693894017867455 [Eh]
	 Opposite-Spin Energy      =      -1.1820490549414628 [Eh]
	 Correlation Energy        =      -1.5514384567282082 [Eh]
	 Total Energy              =    -362.4460278793466728 [Eh]

	 ================> DF-SCS-MP2 Energies <==================
	-----------------------------------------------------------
	 SCS Same-Spin Scale       =       0.3333333333333333 [-]
	 SCS Opposite-Spin Scale   =       1.2000000000000000 [-]
	 SCS Same-Spin Energy      =      -0.1231298005955818 [Eh]
	 SCS Opposite-Spin Energy  =      -1.4184588659297555 [Eh]
	 SCS Correlation Energy    =      -1.5415886665253373 [Eh]
	 SCS Total Energy          =    -362.4361780891438229 [Eh]
	-----------------------------------------------------------

  Dipole Moment: [D]
     X:    -2.7714      Y:     0.0534      Z:     2.0106     Total:     3.4243

*** Psi4 exiting successfully. Buy a developer a beer!
