                               Psi4 1.4a3.dev225

  ==> Input File <==

--------------------------------------------------------------------------
#psi4
#
memory 32 gb

molecule  {
0 1
  O        1.6269320     1.1045440    -0.3563700
  O        1.6269410    -1.1045380    -0.3563700
  N        1.2303420     0.0000010     0.0570950
  C       -1.2290370    -0.0000020     0.4263420
  C        0.1538230    -0.0000020     1.0857690
  C       -1.4714760    -1.2642140    -0.3967350
  C       -1.4714800     1.2642120    -0.3967320
  H       -1.9318800    -0.0000060     1.2712410
  H        0.3118450     0.8984460     1.6853920
  H        0.3118480    -0.8984510     1.6853890
  H       -0.7756708    -1.3038633    -1.2388051
  H       -2.5029200    -1.2793330    -0.7603930
  H       -1.3046420    -2.1677380     0.1971180
  H       -1.3046550     2.1677340     0.1971270
  H       -0.8055150     1.3049140    -1.2625460
  H       -2.5029220     1.2793270    -0.7603950
units angstrom
no_reorient  #important for SAPT in psi4, default
symmetry c1  #important for SAPT in psi4, default
}

set PROPERTIES_ORIGIN ["COM"]
properties('MP2/aug-cc-pvtz', properties = ['dipole'])
--------------------------------------------------------------------------

    Molecular point group: c1
  Charge       = 0
  Multiplicity = 1
  Basis Set: AUG-CC-PVTZ
    Blend: AUG-CC-PVTZ
  Basis Set: (AUG-CC-PVTZ AUX)
    Blend: AUG-CC-PVTZ-JKFIT

    Orbital Energies [Eh]
    ---------------------

    Doubly Occupied:

       1A    -20.606268     2A    -20.606182     3A    -15.845872
       4A    -11.306028     5A    -11.264328     6A    -11.228172
       7A    -11.228156     8A     -1.584433     9A     -1.385136
      10A     -1.143982    11A     -1.041858    12A     -0.947969
      13A     -0.881166    14A     -0.804030    15A     -0.738505
      16A     -0.728780    17A     -0.705707    18A     -0.637707
      19A     -0.629226    20A     -0.608116    21A     -0.557499
      22A     -0.545073    23A     -0.517386    24A     -0.501096
      25A     -0.499067    26A     -0.484570    27A     -0.474814
      28A     -0.448494

  @DF-RHF Final Energy:  -360.89918009478197

   => Energetics <=

    Nuclear Repulsion Energy =            328.5552470501765470
    One-Electron Energy =               -1143.0096150977981324
    Two-Electron Energy =                 453.5551879528395602
    Total Energy =                       -360.8991800947819684
  Basis Set: (AUG-CC-PVTZ AUX)
    Blend: AUG-CC-PVTZ-RI
    Molecular point group: c1

    Geometry (in Angstrom), charge = 0, multiplicity = 1:

       Center              X                  Y                   Z               Mass
    ------------   -----------------  -----------------  -----------------  -----------------
         O            1.525351339835     1.104533562437    -0.347104643779    15.994914619570
         O            1.525360339835    -1.104548437563    -0.347104643779    15.994914619570
         N            1.128761339835    -0.000009437563     0.066360356221    14.003074004430
         C           -1.330617660165    -0.000012437563     0.435607356221    12.000000000000
         C            0.052242339835    -0.000012437563     1.095034356221    12.000000000000
         C           -1.573056660165    -1.264224437563    -0.387469643779    12.000000000000
         C           -1.573060660165     1.264201562437    -0.387466643779    12.000000000000
         H           -2.033460660165    -0.000016437563     1.280506356221     1.007825032230
         H            0.210264339835     0.898435562437     1.694657356221     1.007825032230
         H            0.210267339835    -0.898461437563     1.694654356221     1.007825032230
         H           -0.877251460165    -1.303873737563    -1.229539743779     1.007825032230
         H           -2.604500660165    -1.279343437563    -0.751127643779     1.007825032230
         H           -1.406222660165    -2.167748437563     0.206383356221     1.007825032230
         H           -1.406235660165     2.167723562437     0.206392356221     1.007825032230
         H           -0.907095660165     1.304903562437    -1.253280643779     1.007825032230
         H           -2.604502660165     1.279316562437    -0.751129643779     1.007825032230

  Basis Set: AUG-CC-PVTZ
    Blend: AUG-CC-PVTZ
  Basis Set: (AUG-CC-PVTZ AUX)
    Blend: AUG-CC-PVTZ-JKFIT
	 Reference Energy          =    -360.8991800947819684 [Eh]
	 Singles Energy            =      -0.0000000000000000 [Eh]
	 Same-Spin Energy          =      -0.3689529389255314 [Eh]
	 Opposite-Spin Energy      =      -1.1812893126928459 [Eh]
	 Correlation Energy        =      -1.5502422516183771 [Eh]
	 Total Energy              =    -362.4494223464003539 [Eh]

	 ================> DF-SCS-MP2 Energies <==================
	-----------------------------------------------------------
	 SCS Same-Spin Scale       =       0.3333333333333333 [-]
	 SCS Opposite-Spin Scale   =       1.2000000000000000 [-]
	 SCS Same-Spin Energy      =      -0.1229843129751771 [Eh]
	 SCS Opposite-Spin Energy  =      -1.4175471752314150 [Eh]
	 SCS Correlation Energy    =      -1.5405314882065921 [Eh]
	 SCS Total Energy          =    -362.4397115829885365 [Eh]
	-----------------------------------------------------------

  Dipole Moment: [D]
     X:    -2.9804      Y:     0.0009      Z:     2.1794     Total:     3.6922

*** Psi4 exiting successfully. Buy a developer a beer!
