                               Psi4 1.4a3.dev225

  ==> Input File <==

--------------------------------------------------------------------------
#psi4
#
memory 32 gb

molecule  {
0 1
  O        1.6269320     1.1045440    -0.3563700
  O        1.6269410    -1.1045380    -0.3563700
  N        1.2303420     0.0000010     0.0570950
  C       -1.2290370    -0.0000020     0.4263420
  C        0.1538230    -0.0000020     1.0857690
  C       -1.3542788    -1.2137903    -0.4931671
  C       -1.4714800     1.2642120    -0.3967320
  H       -1.9318800    -0.0000060     1.2712410
  H        0.3118450     0.8984460     1.6853920
  H        0.3118480    -0.8984510     1.6853890
  H       -0.8055150    -1.3049070    -1.2625520
  H       -2.5029200    -1.2793330    -0.7603930
  H       -1.3046420    -2.1677380     0.1971180
  H       -1.3046550     2.1677340     0.1971270
  H       -0.8055150     1.3049140    -1.2625460
  H       -2.5029220     1.2793270    -0.7603950
units angstrom
no_reorient  #important for SAPT in psi4, default
symmetry c1  #important for SAPT in psi4, default
}

set PROPERTIES_ORIGIN ["COM"]
properties('MP2/aug-cc-pvtz', properties = ['dipole'])
--------------------------------------------------------------------------

    Molecular point group: c1
  Charge       = 0
  Multiplicity = 1
  Basis Set: AUG-CC-PVTZ
    Blend: AUG-CC-PVTZ
  Basis Set: (AUG-CC-PVTZ AUX)
    Blend: AUG-CC-PVTZ-JKFIT

    Orbital Energies [Eh]
    ---------------------

    Doubly Occupied:

       1A    -20.606703     2A    -20.606580     3A    -15.846332
       4A    -11.304965     5A    -11.267509     6A    -11.232614
       7A    -11.227535     8A     -1.584960     9A     -1.385620
      10A     -1.145978    11A     -1.042658    12A     -0.948685
      13A     -0.883891    14A     -0.808833    15A     -0.738018
      16A     -0.729319    17A     -0.709714    18A     -0.642705
      19A     -0.629224    20A     -0.600296    21A     -0.586425
      22A     -0.530110    23A     -0.526251    24A     -0.495528
      25A     -0.492634    26A     -0.474960    27A     -0.471829
      28A     -0.448571

  @DF-RHF Final Energy:  -360.86683961895915

   => Energetics <=

    Nuclear Repulsion Energy =            329.5792294164138525
    One-Electron Energy =               -1144.9552423811624067
    Two-Electron Energy =                 454.5091733457893497
    Total Energy =                       -360.8668396189591476
  Basis Set: (AUG-CC-PVTZ AUX)
    Blend: AUG-CC-PVTZ-RI
    Molecular point group: c1

    Geometry (in Angstrom), charge = 0, multiplicity = 1:

       Center              X                  Y                   Z               Mass
    ------------   -----------------  -----------------  -----------------  -----------------
         O            1.511997524392     1.098672772361    -0.335644525645    15.994914619570
         O            1.512006524392    -1.110409227639    -0.335644525645    15.994914619570
         N            1.115407524392    -0.005870227639     0.077820474355    14.003074004430
         C           -1.343971475608    -0.005873227639     0.447067474355    12.000000000000
         C            0.038888524392    -0.005873227639     1.106494474355    12.000000000000
         C           -1.469213275608    -1.219661527639    -0.472441625645    12.000000000000
         C           -1.586414475608     1.258340772361    -0.376006525645    12.000000000000
         H           -2.046814475608    -0.005877227639     1.291966474355     1.007825032230
         H            0.196910524392     0.892574772361     1.706117474355     1.007825032230
         H            0.196913524392    -0.904322227639     1.706114474355     1.007825032230
         H           -0.920449475608    -1.310778227639    -1.241826525645     1.007825032230
         H           -2.617854475608    -1.285204227639    -0.739667525645     1.007825032230
         H           -1.419576475608    -2.173609227639     0.217843474355     1.007825032230
         H           -1.419589475608     2.161862772361     0.217852474355     1.007825032230
         H           -0.920449475608     1.299042772361    -1.241820525645     1.007825032230
         H           -2.617856475608     1.273455772361    -0.739669525645     1.007825032230

  Basis Set: AUG-CC-PVTZ
    Blend: AUG-CC-PVTZ
  Basis Set: (AUG-CC-PVTZ AUX)
    Blend: AUG-CC-PVTZ-JKFIT
	 Reference Energy          =    -360.8668396189591476 [Eh]
	 Singles Energy            =      -0.0000000000000000 [Eh]
	 Same-Spin Energy          =      -0.3694524020026503 [Eh]
	 Opposite-Spin Energy      =      -1.1829239959745070 [Eh]
	 Correlation Energy        =      -1.5523763979771574 [Eh]
	 Total Energy              =    -362.4192160169363319 [Eh]

	 ================> DF-SCS-MP2 Energies <==================
	-----------------------------------------------------------
	 SCS Same-Spin Scale       =       0.3333333333333333 [-]
	 SCS Opposite-Spin Scale   =       1.2000000000000000 [-]
	 SCS Same-Spin Energy      =      -0.1231508006675501 [Eh]
	 SCS Opposite-Spin Energy  =      -1.4195087951694083 [Eh]
	 SCS Correlation Energy    =      -1.5426595958369584 [Eh]
	 SCS Total Energy          =    -362.4094992147960852 [Eh]
	-----------------------------------------------------------

  Dipole Moment: [D]
     X:    -2.9646      Y:     0.0380      Z:     2.1706     Total:     3.6744

*** Psi4 exiting successfully. Buy a developer a beer!
