                               Psi4 1.4a3.dev225

  ==> Input File <==

--------------------------------------------------------------------------
#psi4
#
memory 32 gb

molecule  {
0 1
  O        1.6269320     1.1045440    -0.3563700
  O        1.6269410    -1.1045380    -0.3563700
  N        1.2303420     0.0000010     0.0570950
  C       -1.2290370    -0.0000020     0.4263420
  C        0.1538230    -0.0000020     1.0857690
  C       -1.4714760    -1.2642140    -0.3967350
  C       -1.4714800     1.2642120    -0.3967320
  H       -1.9318800    -0.0000060     1.2712410
  H        0.3118450     0.8984460     1.6853920
  H        0.3118480    -0.8984510     1.6853890
  H       -0.9273666    -1.2974614    -1.1041325
  H       -2.5029200    -1.2793330    -0.7603930
  H       -1.3046420    -2.1677380     0.1971180
  H       -1.3046550     2.1677340     0.1971270
  H       -0.8055150     1.3049140    -1.2625460
  H       -2.5029220     1.2793270    -0.7603950
units angstrom
no_reorient  #important for SAPT in psi4, default
symmetry c1  #important for SAPT in psi4, default
}

set PROPERTIES_ORIGIN ["COM"]
properties('MP2/aug-cc-pvtz', properties = ['dipole'])
--------------------------------------------------------------------------

    Molecular point group: c1
  Charge       = 0
  Multiplicity = 1
  Basis Set: AUG-CC-PVTZ
    Blend: AUG-CC-PVTZ
  Basis Set: (AUG-CC-PVTZ AUX)
    Blend: AUG-CC-PVTZ-JKFIT

    Orbital Energies [Eh]
    ---------------------

    Doubly Occupied:

       1A    -20.606546     2A    -20.606407     3A    -15.846016
       4A    -11.305729     5A    -11.263106     6A    -11.228276
       7A    -11.204396     8A     -1.584606     9A     -1.385301
      10A     -1.145495    11A     -1.047151    12A     -0.963536
      13A     -0.885244    14A     -0.809689    15A     -0.738468
      16A     -0.729075    17A     -0.708790    18A     -0.642836
      19A     -0.633385    20A     -0.607504    21A     -0.579898
      22A     -0.544160    23A     -0.521221    24A     -0.501745
      25A     -0.500036    26A     -0.484368    27A     -0.476711
      28A     -0.449282

  @DF-RHF Final Energy:  -360.86537377253052

   => Energetics <=

    Nuclear Repulsion Energy =            329.3318211395911135
    One-Electron Energy =               -1144.3964350593864765
    Two-Electron Energy =                 454.1992401472649021
    Total Energy =                       -360.8653737725305177
  Basis Set: (AUG-CC-PVTZ AUX)
    Blend: AUG-CC-PVTZ-RI
    Molecular point group: c1

    Geometry (in Angstrom), charge = 0, multiplicity = 1:

       Center              X                  Y                   Z               Mass
    ------------   -----------------  -----------------  -----------------  -----------------
         O            1.526834727056     1.104470960198    -0.348421566290    15.994914619570
         O            1.526843727056    -1.104611039802    -0.348421566290    15.994914619570
         N            1.130244727056    -0.000072039802     0.065043433710    14.003074004430
         C           -1.329134272944    -0.000075039802     0.434290433710    12.000000000000
         C            0.053725727056    -0.000075039802     1.093717433710    12.000000000000
         C           -1.571573272944    -1.264287039802    -0.388786566290    12.000000000000
         C           -1.571577272944     1.264138960198    -0.388783566290    12.000000000000
         H           -2.031977272944    -0.000079039802     1.279189433710     1.007825032230
         H            0.211747727056     0.898372960198     1.693340433710     1.007825032230
         H            0.211750727056    -0.898524039802     1.693337433710     1.007825032230
         H           -1.027463872944    -1.297534439802    -1.096184066290     1.007825032230
         H           -2.603017272944    -1.279406039802    -0.752444566290     1.007825032230
         H           -1.404739272944    -2.167811039802     0.205066433710     1.007825032230
         H           -1.404752272944     2.167660960198     0.205075433710     1.007825032230
         H           -0.905612272944     1.304840960198    -1.254597566290     1.007825032230
         H           -2.603019272944     1.279253960198    -0.752446566290     1.007825032230

  Basis Set: AUG-CC-PVTZ
    Blend: AUG-CC-PVTZ
  Basis Set: (AUG-CC-PVTZ AUX)
    Blend: AUG-CC-PVTZ-JKFIT
	 Reference Energy          =    -360.8653737725305177 [Eh]
	 Singles Energy            =      -0.0000000000000000 [Eh]
	 Same-Spin Energy          =      -0.3687863179854560 [Eh]
	 Opposite-Spin Energy      =      -1.1804127444992136 [Eh]
	 Correlation Energy        =      -1.5491990624846697 [Eh]
	 Total Energy              =    -362.4145728350151785 [Eh]

	 ================> DF-SCS-MP2 Energies <==================
	-----------------------------------------------------------
	 SCS Same-Spin Scale       =       0.3333333333333333 [-]
	 SCS Opposite-Spin Scale   =       1.2000000000000000 [-]
	 SCS Same-Spin Energy      =      -0.1229287726618187 [Eh]
	 SCS Opposite-Spin Energy  =      -1.4164952933990562 [Eh]
	 SCS Correlation Energy    =      -1.5394240660608749 [Eh]
	 SCS Total Energy          =    -362.4047978385913780 [Eh]
	-----------------------------------------------------------

  Dipole Moment: [D]
     X:    -2.9693      Y:    -0.0027      Z:     2.1172     Total:     3.6468

*** Psi4 exiting successfully. Buy a developer a beer!
