                               Psi4 1.4a3.dev225

  ==> Input File <==

--------------------------------------------------------------------------
#psi4
#
memory 32 gb

molecule  {
0 1
  O        1.6269320     1.1045440    -0.3563700
  O        1.6269410    -1.1045380    -0.3563700
  N        1.2303420     0.0000010     0.0570950
  C       -1.1534582    -0.0267866     0.3560305
  C        0.1538230    -0.0000020     1.0857690
  C       -1.4714760    -1.2642140    -0.3967350
  C       -1.4714800     1.2642120    -0.3967320
  H       -1.9318800    -0.0000060     1.2712410
  H        0.3118450     0.8984460     1.6853920
  H        0.3118480    -0.8984510     1.6853890
  H       -0.8055150    -1.3049070    -1.2625520
  H       -2.5029200    -1.2793330    -0.7603930
  H       -1.3046420    -2.1677380     0.1971180
  H       -1.3046550     2.1677340     0.1971270
  H       -0.8055150     1.3049140    -1.2625460
  H       -2.5029220     1.2793270    -0.7603950
units angstrom
no_reorient  #important for SAPT in psi4, default
symmetry c1  #important for SAPT in psi4, default
}

set PROPERTIES_ORIGIN ["COM"]
properties('MP2/aug-cc-pvtz', properties = ['dipole'])
--------------------------------------------------------------------------

    Molecular point group: c1
  Charge       = 0
  Multiplicity = 1
  Basis Set: AUG-CC-PVTZ
    Blend: AUG-CC-PVTZ
  Basis Set: (AUG-CC-PVTZ AUX)
    Blend: AUG-CC-PVTZ-JKFIT

    Orbital Energies [Eh]
    ---------------------

    Doubly Occupied:

       1A    -20.606081     2A    -20.605937     3A    -15.844273
       4A    -11.308197     5A    -11.269347     6A    -11.229461
       7A    -11.228058     8A     -1.584622     9A     -1.385060
      10A     -1.152745    11A     -1.044825    12A     -0.953178
      13A     -0.881570    14A     -0.798190    15A     -0.743527
      16A     -0.729355    17A     -0.701393    18A     -0.642746
      19A     -0.626133    20A     -0.613884    21A     -0.554905
      22A     -0.549444    23A     -0.523057    24A     -0.510310
      25A     -0.497938    26A     -0.486456    27A     -0.451941
      28A     -0.448944

  @DF-RHF Final Energy:  -360.88677824276635

   => Energetics <=

    Nuclear Repulsion Energy =            329.7617139408365006
    One-Electron Energy =               -1145.3538242320594236
    Two-Electron Energy =                 454.7053320484566257
    Total Energy =                       -360.8867782427663542
  Basis Set: (AUG-CC-PVTZ AUX)
    Blend: AUG-CC-PVTZ-RI
    Molecular point group: c1

    Geometry (in Angstrom), charge = 0, multiplicity = 1:

       Center              X                  Y                   Z               Mass
    ------------   -----------------  -----------------  -----------------  -----------------
         O            1.516843290651     1.107662386933    -0.338685832427    15.994914619570
         O            1.516852290651    -1.101419613067    -0.338685832427    15.994914619570
         N            1.120253290651     0.003119386933     0.074779167573    14.003074004430
         C           -1.263546909349    -0.023668213067     0.373714667573    12.000000000000
         C            0.043734290651     0.003116386933     1.103453167573    12.000000000000
         C           -1.581564709349    -1.261095613067    -0.379050832427    12.000000000000
         C           -1.581568709349     1.267330386933    -0.379047832427    12.000000000000
         H           -2.041968709349     0.003112386933     1.288925167573     1.007825032230
         H            0.201756290651     0.901564386933     1.703076167573     1.007825032230
         H            0.201759290651    -0.895332613067     1.703073167573     1.007825032230
         H           -0.915603709349    -1.301788613067    -1.244867832427     1.007825032230
         H           -2.613008709349    -1.276214613067    -0.742708832427     1.007825032230
         H           -1.414730709349    -2.164619613067     0.214802167573     1.007825032230
         H           -1.414743709349     2.170852386933     0.214811167573     1.007825032230
         H           -0.915603709349     1.308032386933    -1.244861832427     1.007825032230
         H           -2.613010709349     1.282445386933    -0.742710832427     1.007825032230

  Basis Set: AUG-CC-PVTZ
    Blend: AUG-CC-PVTZ
  Basis Set: (AUG-CC-PVTZ AUX)
    Blend: AUG-CC-PVTZ-JKFIT
	 Reference Energy          =    -360.8867782427663542 [Eh]
	 Singles Energy            =      -0.0000000000000000 [Eh]
	 Same-Spin Energy          =      -0.3698368550567052 [Eh]
	 Opposite-Spin Energy      =      -1.1825724965222664 [Eh]
	 Correlation Energy        =      -1.5524093515789716 [Eh]
	 Total Energy              =    -362.4391875943452987 [Eh]

	 ================> DF-SCS-MP2 Energies <==================
	-----------------------------------------------------------
	 SCS Same-Spin Scale       =       0.3333333333333333 [-]
	 SCS Opposite-Spin Scale   =       1.2000000000000000 [-]
	 SCS Same-Spin Energy      =      -0.1232789516855684 [Eh]
	 SCS Opposite-Spin Energy  =      -1.4190869958267196 [Eh]
	 SCS Correlation Energy    =      -1.5423659475122879 [Eh]
	 SCS Total Energy          =    -362.4291441902786346 [Eh]
	-----------------------------------------------------------

  Dipole Moment: [D]
     X:    -2.9557      Y:    -0.0182      Z:     2.1510     Total:     3.6556

*** Psi4 exiting successfully. Buy a developer a beer!
