                               Psi4 1.4a3.dev225

  ==> Input File <==

--------------------------------------------------------------------------
#psi4
#
memory 32 gb

molecule  {
0 1
  O        1.6269320     1.1045440    -0.3563700
  O        1.6269410    -1.1045380    -0.3563700
  N        1.2303420     0.0000010     0.0570950
  C       -1.2290370    -0.0000020     0.4263420
  C        0.1538230    -0.0000020     1.0857690
  C       -1.4714760    -1.2642140    -0.3967350
  C       -1.4714800     1.2642120    -0.3967320
  H       -1.9318800    -0.0000060     1.2712410
  H        0.3118450     0.8984460     1.6853920
  H        0.3118480    -0.8984510     1.6853890
  H       -0.8055150    -1.3049070    -1.2625520
  H       -2.5029200    -1.2793330    -0.7603930
  H       -1.3046420    -2.1677380     0.1971180
  H       -1.3843703     2.1279210     0.2690530
  H       -0.8055150     1.3049140    -1.2625460
  H       -2.5029220     1.2793270    -0.7603950
units angstrom
no_reorient  #important for SAPT in psi4, default
symmetry c1  #important for SAPT in psi4, default
}

set PROPERTIES_ORIGIN ["COM"]
properties('MP2/aug-cc-pvtz', properties = ['dipole'])
--------------------------------------------------------------------------

    Molecular point group: c1
  Charge       = 0
  Multiplicity = 1
  Basis Set: AUG-CC-PVTZ
    Blend: AUG-CC-PVTZ
  Basis Set: (AUG-CC-PVTZ AUX)
    Blend: AUG-CC-PVTZ-JKFIT

    Orbital Energies [Eh]
    ---------------------

    Doubly Occupied:

       1A    -20.605946     2A    -20.605888     3A    -15.845585
       4A    -11.305899     5A    -11.263945     6A    -11.228685
       7A    -11.227652     8A     -1.584116     9A     -1.384796
      10A     -1.143963    11A     -1.041986    12A     -0.948103
      13A     -0.880999    14A     -0.803329    15A     -0.738432
      16A     -0.728495    17A     -0.704735    18A     -0.638206
      19A     -0.631097    20A     -0.605866    21A     -0.562133
      22A     -0.542353    23A     -0.517894    24A     -0.500930
      25A     -0.499044    26A     -0.482497    27A     -0.474651
      28A     -0.448202

  @DF-RHF Final Energy:  -360.89811688603237

   => Energetics <=

    Nuclear Repulsion Energy =            328.4802945752632581
    One-Electron Energy =               -1142.8659719385841527
    Two-Electron Energy =                 453.4875604772884685
    Total Energy =                       -360.8981168860323692
  Basis Set: (AUG-CC-PVTZ AUX)
    Blend: AUG-CC-PVTZ-RI
    Molecular point group: c1

    Geometry (in Angstrom), charge = 0, multiplicity = 1:

       Center              X                  Y                   Z               Mass
    ------------   -----------------  -----------------  -----------------  -----------------
         O            1.526422688957     1.104933087715    -0.347575772586    15.994914619570
         O            1.526431688957    -1.104148912285    -0.347575772586    15.994914619570
         N            1.129832688957     0.000390087715     0.065889227414    14.003074004430
         C           -1.329546311043     0.000387087715     0.435136227414    12.000000000000
         C            0.053313688957     0.000387087715     1.094563227414    12.000000000000
         C           -1.571985311043    -1.263824912285    -0.387940772586    12.000000000000
         C           -1.571989311043     1.264601087715    -0.387937772586    12.000000000000
         H           -2.032389311043     0.000383087715     1.280035227414     1.007825032230
         H            0.211335688957     0.898835087715     1.694186227414     1.007825032230
         H            0.211338688957    -0.898061912285     1.694183227414     1.007825032230
         H           -0.906024311043    -1.304517912285    -1.253757772586     1.007825032230
         H           -2.603429311043    -1.278943912285    -0.751598772586     1.007825032230
         H           -1.405151311043    -2.167348912285     0.205912227414     1.007825032230
         H           -1.484879611043     2.128310087715     0.277847227414     1.007825032230
         H           -0.906024311043     1.305303087715    -1.253751772586     1.007825032230
         H           -2.603431311043     1.279716087715    -0.751600772586     1.007825032230

  Basis Set: AUG-CC-PVTZ
    Blend: AUG-CC-PVTZ
  Basis Set: (AUG-CC-PVTZ AUX)
    Blend: AUG-CC-PVTZ-JKFIT
	 Reference Energy          =    -360.8981168860323692 [Eh]
	 Singles Energy            =      -0.0000000000000000 [Eh]
	 Same-Spin Energy          =      -0.3689527470849209 [Eh]
	 Opposite-Spin Energy      =      -1.1813565954062004 [Eh]
	 Correlation Energy        =      -1.5503093424911214 [Eh]
	 Total Energy              =    -362.4484262285234877 [Eh]

	 ================> DF-SCS-MP2 Energies <==================
	-----------------------------------------------------------
	 SCS Same-Spin Scale       =       0.3333333333333333 [-]
	 SCS Opposite-Spin Scale   =       1.2000000000000000 [-]
	 SCS Same-Spin Energy      =      -0.1229842490283070 [Eh]
	 SCS Opposite-Spin Energy  =      -1.4176279144874404 [Eh]
	 SCS Correlation Energy    =      -1.5406121635157475 [Eh]
	 SCS Total Energy          =    -362.4387290495481011 [Eh]
	-----------------------------------------------------------

  Dipole Moment: [D]
     X:    -3.0195      Y:    -0.0023      Z:     2.1820     Total:     3.7253

*** Psi4 exiting successfully. Buy a developer a beer!
