                               Psi4 1.4a3.dev225

  ==> Input File <==

--------------------------------------------------------------------------
#psi4
#
memory 32 gb

molecule  {
0 1
  O        1.6269320     1.1045440    -0.3563700
  O        1.6269410    -1.1045380    -0.3563700
  N        1.2303420     0.0000010     0.0570950
  C       -1.2290370    -0.0000020     0.4263420
  C        0.1538230    -0.0000020     1.0857690
  C       -1.4714760    -1.2642140    -0.3967350
  C       -1.4794139     1.3055831    -0.4236669
  H       -1.9318800    -0.0000060     1.2712410
  H        0.3118450     0.8984460     1.6853920
  H        0.3118480    -0.8984510     1.6853890
  H       -0.8055150    -1.3049070    -1.2625520
  H       -2.5029200    -1.2793330    -0.7603930
  H       -1.3046420    -2.1677380     0.1971180
  H       -1.3046550     2.1677340     0.1971270
  H       -0.8055150     1.3049140    -1.2625460
  H       -2.5029220     1.2793270    -0.7603950
units angstrom
no_reorient  #important for SAPT in psi4, default
symmetry c1  #important for SAPT in psi4, default
}

set PROPERTIES_ORIGIN ["COM"]
properties('MP2/aug-cc-pvtz', properties = ['dipole'])
--------------------------------------------------------------------------

    Molecular point group: c1
  Charge       = 0
  Multiplicity = 1
  Basis Set: AUG-CC-PVTZ
    Blend: AUG-CC-PVTZ
  Basis Set: (AUG-CC-PVTZ AUX)
    Blend: AUG-CC-PVTZ-JKFIT

    Orbital Energies [Eh]
    ---------------------

    Doubly Occupied:

       1A    -20.606051     2A    -20.605944     3A    -15.845616
       4A    -11.305825     5A    -11.266216     6A    -11.228103
       7A    -11.226751     8A     -1.584159     9A     -1.384876
      10A     -1.140424    11A     -1.038411    12A     -0.948498
      13A     -0.881756    14A     -0.804117    15A     -0.737952
      16A     -0.728519    17A     -0.704152    18A     -0.636993
      19A     -0.626880    20A     -0.608396    21A     -0.561096
      22A     -0.548531    23A     -0.519439    24A     -0.504669
      25A     -0.494487    26A     -0.479449    27A     -0.474822
      28A     -0.448398

  @DF-RHF Final Energy:  -360.89787156355834

   => Energetics <=

    Nuclear Repulsion Energy =            327.7396751647985980
    One-Electron Energy =               -1141.3940346139115718
    Two-Electron Energy =                 452.7564878855545771
    Total Energy =                       -360.8978715635583399
  Basis Set: (AUG-CC-PVTZ AUX)
    Blend: AUG-CC-PVTZ-RI
    Molecular point group: c1

    Geometry (in Angstrom), charge = 0, multiplicity = 1:

       Center              X                  Y                   Z               Mass
    ------------   -----------------  -----------------  -----------------  -----------------
         O            1.526566947108     1.099726796150    -0.343736311656    15.994914619570
         O            1.526575947108    -1.109355203850    -0.343736311656    15.994914619570
         N            1.129976947108    -0.004816203850     0.069728688344    14.003074004430
         C           -1.329402052892    -0.004819203850     0.438975688344    12.000000000000
         C            0.053457947108    -0.004819203850     1.098402688344    12.000000000000
         C           -1.571841052892    -1.269031203850    -0.384101311656    12.000000000000
         C           -1.579778952892     1.300765896150    -0.411033211656    12.000000000000
         H           -2.032245052892    -0.004823203850     1.283874688344     1.007825032230
         H            0.211479947108     0.893628796150     1.698025688344     1.007825032230
         H            0.211482947108    -0.903268203850     1.698022688344     1.007825032230
         H           -0.905880052892    -1.309724203850    -1.249918311656     1.007825032230
         H           -2.603285052892    -1.284150203850    -0.747759311656     1.007825032230
         H           -1.405007052892    -2.172555203850     0.209751688344     1.007825032230
         H           -1.405020052892     2.162916796150     0.209760688344     1.007825032230
         H           -0.905880052892     1.300096796150    -1.249912311656     1.007825032230
         H           -2.603287052892     1.274509796150    -0.747761311656     1.007825032230

  Basis Set: AUG-CC-PVTZ
    Blend: AUG-CC-PVTZ
  Basis Set: (AUG-CC-PVTZ AUX)
    Blend: AUG-CC-PVTZ-JKFIT
	 Reference Energy          =    -360.8978715635583399 [Eh]
	 Singles Energy            =      -0.0000000000000000 [Eh]
	 Same-Spin Energy          =      -0.3685918055586063 [Eh]
	 Opposite-Spin Energy      =      -1.1810167013072994 [Eh]
	 Correlation Energy        =      -1.5496085068659058 [Eh]
	 Total Energy              =    -362.4474800704242625 [Eh]

	 ================> DF-SCS-MP2 Energies <==================
	-----------------------------------------------------------
	 SCS Same-Spin Scale       =       0.3333333333333333 [-]
	 SCS Opposite-Spin Scale   =       1.2000000000000000 [-]
	 SCS Same-Spin Energy      =      -0.1228639351862021 [Eh]
	 SCS Opposite-Spin Energy  =      -1.4172200415687592 [Eh]
	 SCS Correlation Energy    =      -1.5400839767549612 [Eh]
	 SCS Total Energy          =    -362.4379555403132827 [Eh]
	-----------------------------------------------------------

  Dipole Moment: [D]
     X:    -2.9895      Y:    -0.0086      Z:     2.1743     Total:     3.6966

*** Psi4 exiting successfully. Buy a developer a beer!
