                               Psi4 1.4a3.dev225

  ==> Input File <==

--------------------------------------------------------------------------
#psi4
#
memory 32 gb

molecule  {
0 1
  O        1.5726302     1.1418182    -0.2997584
  O        1.6269410    -1.1045380    -0.3563700
  N        1.2303420     0.0000010     0.0570950
  C       -1.2290370    -0.0000020     0.4263420
  C        0.1538230    -0.0000020     1.0857690
  C       -1.4714760    -1.2642140    -0.3967350
  C       -1.4714800     1.2642120    -0.3967320
  H       -1.9318800    -0.0000060     1.2712410
  H        0.3118450     0.8984460     1.6853920
  H        0.3118480    -0.8984510     1.6853890
  H       -0.8055150    -1.3049070    -1.2625520
  H       -2.5029200    -1.2793330    -0.7603930
  H       -1.3046420    -2.1677380     0.1971180
  H       -1.3046550     2.1677340     0.1971270
  H       -0.8055150     1.3049140    -1.2625460
  H       -2.5029220     1.2793270    -0.7603950
units angstrom
no_reorient  #important for SAPT in psi4, default
symmetry c1  #important for SAPT in psi4, default
}

set PROPERTIES_ORIGIN ["COM"]
properties('MP2/aug-cc-pvtz', properties = ['dipole'])
--------------------------------------------------------------------------

    Molecular point group: c1
  Charge       = 0
  Multiplicity = 1
  Basis Set: AUG-CC-PVTZ
    Blend: AUG-CC-PVTZ
  Basis Set: (AUG-CC-PVTZ AUX)
    Blend: AUG-CC-PVTZ-JKFIT

    Orbital Energies [Eh]
    ---------------------

    Doubly Occupied:

       1A    -20.610980     2A    -20.608889     3A    -15.847131
       4A    -11.301942     5A    -11.262893     6A    -11.227483
       7A    -11.227005     8A     -1.584413     9A     -1.393015
      10A     -1.140449    11A     -1.039109    12A     -0.946917
      13A     -0.880986    14A     -0.805170    15A     -0.738236
      16A     -0.731213    17A     -0.705409    18A     -0.637754
      19A     -0.627911    20A     -0.606699    21A     -0.557233
      22A     -0.543820    23A     -0.514819    24A     -0.504014
      25A     -0.498505    26A     -0.485756    27A     -0.471448
      28A     -0.452500

  @DF-RHF Final Energy:  -360.89702950173887

   => Energetics <=

    Nuclear Repulsion Energy =            328.9207334731163996
    One-Electron Energy =               -1143.7321240127052988
    Two-Electron Energy =                 453.9143610378500853
    Total Energy =                       -360.8970295017388707
  Basis Set: (AUG-CC-PVTZ AUX)
    Blend: AUG-CC-PVTZ-RI
    Molecular point group: c1

    Geometry (in Angstrom), charge = 0, multiplicity = 1:

       Center              X                  Y                   Z               Mass
    ------------   -----------------  -----------------  -----------------  -----------------
         O            1.479768745776     1.136033198506    -0.299046668048    15.994914619570
         O            1.534079545776    -1.110323001494    -0.355658268048    15.994914619570
         N            1.137480545776    -0.005784001494     0.057806731952    14.003074004430
         C           -1.321898454224    -0.005787001494     0.427053731952    12.000000000000
         C            0.060961545776    -0.005787001494     1.086480731952    12.000000000000
         C           -1.564337454224    -1.269999001494    -0.396023268048    12.000000000000
         C           -1.564341454224     1.258426998506    -0.396020268048    12.000000000000
         H           -2.024741454224    -0.005791001494     1.271952731952     1.007825032230
         H            0.218983545776     0.892660998506     1.686103731952     1.007825032230
         H            0.218986545776    -0.904236001494     1.686100731952     1.007825032230
         H           -0.898376454224    -1.310692001494    -1.261840268048     1.007825032230
         H           -2.595781454224    -1.285118001494    -0.759681268048     1.007825032230
         H           -1.397503454224    -2.173523001494     0.197829731952     1.007825032230
         H           -1.397516454224     2.161948998506     0.197838731952     1.007825032230
         H           -0.898376454224     1.299128998506    -1.261834268048     1.007825032230
         H           -2.595783454224     1.273541998506    -0.759683268048     1.007825032230

  Basis Set: AUG-CC-PVTZ
    Blend: AUG-CC-PVTZ
  Basis Set: (AUG-CC-PVTZ AUX)
    Blend: AUG-CC-PVTZ-JKFIT
	 Reference Energy          =    -360.8970295017388707 [Eh]
	 Singles Energy            =      -0.0000000000000000 [Eh]
	 Same-Spin Energy          =      -0.3691987291141188 [Eh]
	 Opposite-Spin Energy      =      -1.1817241852472449 [Eh]
	 Correlation Energy        =      -1.5509229143613636 [Eh]
	 Total Energy              =    -362.4479524161002360 [Eh]

	 ================> DF-SCS-MP2 Energies <==================
	-----------------------------------------------------------
	 SCS Same-Spin Scale       =       0.3333333333333333 [-]
	 SCS Opposite-Spin Scale   =       1.2000000000000000 [-]
	 SCS Same-Spin Energy      =      -0.1230662430380396 [Eh]
	 SCS Opposite-Spin Energy  =      -1.4180690222966938 [Eh]
	 SCS Correlation Energy    =      -1.5411352653347334 [Eh]
	 SCS Total Energy          =    -362.4381647670736015 [Eh]
	-----------------------------------------------------------

  Dipole Moment: [D]
     X:    -2.8481      Y:    -0.0384      Z:     2.0617     Total:     3.5162

*** Psi4 exiting successfully. Buy a developer a beer!
