                               Psi4 1.4a3.dev225

  ==> Input File <==

--------------------------------------------------------------------------
#psi4
#
memory 32 gb

molecule  {
0 1
  O        1.6269320     1.1045440    -0.3563700
  O        1.6269410    -1.1045380    -0.3563700
  N        1.2303420     0.0000010     0.0570950
  C       -1.2290370    -0.0000020     0.4263420
  C        0.1538230    -0.0000020     1.0857690
  C       -1.4714760    -1.2642140    -0.3967350
  C       -1.4714800     1.2642120    -0.3967320
  H       -1.9318800    -0.0000060     1.2712410
  H        0.3147401     0.9149062     1.6963775
  H        0.3118480    -0.8984510     1.6853890
  H       -0.8055150    -1.3049070    -1.2625520
  H       -2.5029200    -1.2793330    -0.7603930
  H       -1.3046420    -2.1677380     0.1971180
  H       -1.3046550     2.1677340     0.1971270
  H       -0.8055150     1.3049140    -1.2625460
  H       -2.5029220     1.2793270    -0.7603950
units angstrom
no_reorient  #important for SAPT in psi4, default
symmetry c1  #important for SAPT in psi4, default
}

set PROPERTIES_ORIGIN ["COM"]
properties('MP2/aug-cc-pvtz', properties = ['dipole'])
--------------------------------------------------------------------------

    Molecular point group: c1
  Charge       = 0
  Multiplicity = 1
  Basis Set: AUG-CC-PVTZ
    Blend: AUG-CC-PVTZ
  Basis Set: (AUG-CC-PVTZ AUX)
    Blend: AUG-CC-PVTZ-JKFIT

    Orbital Energies [Eh]
    ---------------------

    Doubly Occupied:

       1A    -20.606113     2A    -20.605998     3A    -15.845812
       4A    -11.308095     5A    -11.264706     6A    -11.228330
       7A    -11.228199     8A     -1.584237     9A     -1.384929
      10A     -1.143265    11A     -1.041447    12A     -0.947956
      13A     -0.880581    14A     -0.803905    15A     -0.737419
      16A     -0.728184    17A     -0.705109    18A     -0.636080
      19A     -0.628852    20A     -0.607662    21A     -0.557286
      22A     -0.544024    23A     -0.516928    24A     -0.501042
      25A     -0.500079    26A     -0.484149    27A     -0.474787
      28A     -0.448274

  @DF-RHF Final Energy:  -360.89876188908084

   => Energetics <=

    Nuclear Repulsion Energy =            328.3839571585183421
    One-Electron Energy =               -1142.6785422219882093
    Two-Electron Energy =                 453.3958231743890224
    Total Energy =                       -360.8987618890808449
  Basis Set: (AUG-CC-PVTZ AUX)
    Blend: AUG-CC-PVTZ-RI
    Molecular point group: c1

    Geometry (in Angstrom), charge = 0, multiplicity = 1:

       Center              X                  Y                   Z               Mass
    ------------   -----------------  -----------------  -----------------  -----------------
         O            1.525614866910     1.104382809159    -0.346979853919    15.994914619570
         O            1.525623866910    -1.104699190841    -0.346979853919    15.994914619570
         N            1.129024866910    -0.000160190841     0.066485146081    14.003074004430
         C           -1.330354133090    -0.000163190841     0.435732146081    12.000000000000
         C            0.052505866910    -0.000163190841     1.095159146081    12.000000000000
         C           -1.572793133090    -1.264375190841    -0.387344853919    12.000000000000
         C           -1.572797133090     1.264050809159    -0.387341853919    12.000000000000
         H           -2.033197133090    -0.000167190841     1.280631146081     1.007825032230
         H            0.213422966910     0.914745009159     1.705767646081     1.007825032230
         H            0.210530866910    -0.898612190841     1.694779146081     1.007825032230
         H           -0.906832133090    -1.305068190841    -1.253161853919     1.007825032230
         H           -2.604237133090    -1.279494190841    -0.751002853919     1.007825032230
         H           -1.405959133090    -2.167899190841     0.206508146081     1.007825032230
         H           -1.405972133090     2.167572809159     0.206517146081     1.007825032230
         H           -0.906832133090     1.304752809159    -1.253155853919     1.007825032230
         H           -2.604239133090     1.279165809159    -0.751004853919     1.007825032230

  Basis Set: AUG-CC-PVTZ
    Blend: AUG-CC-PVTZ
  Basis Set: (AUG-CC-PVTZ AUX)
    Blend: AUG-CC-PVTZ-JKFIT
	 Reference Energy          =    -360.8987618890808449 [Eh]
	 Singles Energy            =      -0.0000000000000000 [Eh]
	 Same-Spin Energy          =      -0.3689534293891773 [Eh]
	 Opposite-Spin Energy      =      -1.1814207066955162 [Eh]
	 Correlation Energy        =      -1.5503741360846934 [Eh]
	 Total Energy              =    -362.4491360251655578 [Eh]

	 ================> DF-SCS-MP2 Energies <==================
	-----------------------------------------------------------
	 SCS Same-Spin Scale       =       0.3333333333333333 [-]
	 SCS Opposite-Spin Scale   =       1.2000000000000000 [-]
	 SCS Same-Spin Energy      =      -0.1229844764630591 [Eh]
	 SCS Opposite-Spin Energy  =      -1.4177048480346195 [Eh]
	 SCS Correlation Energy    =      -1.5406893244976785 [Eh]
	 SCS Total Energy          =    -362.4394512135785362 [Eh]
	-----------------------------------------------------------

  Dipole Moment: [D]
     X:    -2.9907      Y:    -0.0018      Z:     2.1640     Total:     3.6915

*** Psi4 exiting successfully. Buy a developer a beer!
