                               Psi4 1.4a3.dev225

  ==> Input File <==

--------------------------------------------------------------------------
#psi4
#
memory 32 gb

molecule  {
0 1
  O        1.6269320     1.1045440    -0.3563700
  O        1.6269410    -1.1045380    -0.3563700
  N        1.2303420     0.0000010     0.0570950
  C       -1.2290370    -0.0000020     0.4263420
  C        0.1538230    -0.0000020     1.0857690
  C       -1.4714760    -1.2642140    -0.3967350
  C       -1.4683064     1.2476636    -0.3859580
  H       -1.9318800    -0.0000060     1.2712410
  H        0.3118450     0.8984460     1.6853920
  H        0.3118480    -0.8984510     1.6853890
  H       -0.8055150    -1.3049070    -1.2625520
  H       -2.5029200    -1.2793330    -0.7603930
  H       -1.3046420    -2.1677380     0.1971180
  H       -1.3046550     2.1677340     0.1971270
  H       -0.8055150     1.3049140    -1.2625460
  H       -2.5029220     1.2793270    -0.7603950
units angstrom
no_reorient  #important for SAPT in psi4, default
symmetry c1  #important for SAPT in psi4, default
}

set PROPERTIES_ORIGIN ["COM"]
properties('MP2/aug-cc-pvtz', properties = ['dipole'])
--------------------------------------------------------------------------

    Molecular point group: c1
  Charge       = 0
  Multiplicity = 1
  Basis Set: AUG-CC-PVTZ
    Blend: AUG-CC-PVTZ
  Basis Set: (AUG-CC-PVTZ AUX)
    Blend: AUG-CC-PVTZ-JKFIT

    Orbital Energies [Eh]
    ---------------------

    Doubly Occupied:

       1A    -20.606048     2A    -20.605984     3A    -15.845705
       4A    -11.306043     5A    -11.263900     6A    -11.229030
       7A    -11.228297     8A     -1.584208     9A     -1.384896
      10A     -1.145468    11A     -1.043266    12A     -0.947822
      13A     -0.881013    14A     -0.804123    15A     -0.738470
      16A     -0.728627    17A     -0.706016    18A     -0.638535
      19A     -0.629751    20A     -0.608078    21A     -0.556401
      22A     -0.543119    23A     -0.515693    24A     -0.504118
      25A     -0.498556    26A     -0.485289    27A     -0.474217
      28A     -0.448152

  @DF-RHF Final Energy:  -360.89873817463103

   => Energetics <=

    Nuclear Repulsion Energy =            328.7882209405343588
    One-Electron Energy =               -1143.4722720369422859
    Two-Electron Energy =                 453.7853129217769492
    Total Energy =                       -360.8987381746310348
  Basis Set: (AUG-CC-PVTZ AUX)
    Blend: AUG-CC-PVTZ-RI
    Molecular point group: c1

    Geometry (in Angstrom), charge = 0, multiplicity = 1:

       Center              X                  Y                   Z               Mass
    ------------   -----------------  -----------------  -----------------  -----------------
         O            1.525273664601     1.106470552730    -0.348126882060    15.994914619570
         O            1.525282664601    -1.102611447270    -0.348126882060    15.994914619570
         N            1.128683664601     0.001927552730     0.065338117940    14.003074004430
         C           -1.330695335399     0.001924552730     0.434585117940    12.000000000000
         C            0.052164664601     0.001924552730     1.094012117940    12.000000000000
         C           -1.573134335399    -1.262287447270    -0.388491882060    12.000000000000
         C           -1.569964735399     1.249590152730    -0.377714882060    12.000000000000
         H           -2.033538335399     0.001920552730     1.279484117940     1.007825032230
         H            0.210186664601     0.900372552730     1.693635117940     1.007825032230
         H            0.210189664601    -0.896524447270     1.693632117940     1.007825032230
         H           -0.907173335399    -1.302980447270    -1.254308882060     1.007825032230
         H           -2.604578335399    -1.277406447270    -0.752149882060     1.007825032230
         H           -1.406300335399    -2.165811447270     0.205361117940     1.007825032230
         H           -1.406313335399     2.169660552730     0.205370117940     1.007825032230
         H           -0.907173335399     1.306840552730    -1.254302882060     1.007825032230
         H           -2.604580335399     1.281253552730    -0.752151882060     1.007825032230

  Basis Set: AUG-CC-PVTZ
    Blend: AUG-CC-PVTZ
  Basis Set: (AUG-CC-PVTZ AUX)
    Blend: AUG-CC-PVTZ-JKFIT
	 Reference Energy          =    -360.8987381746310348 [Eh]
	 Singles Energy            =      -0.0000000000000000 [Eh]
	 Same-Spin Energy          =      -0.3690822033270514 [Eh]
	 Opposite-Spin Energy      =      -1.1814125569245260 [Eh]
	 Correlation Energy        =      -1.5504947602515773 [Eh]
	 Total Energy              =    -362.4492329348826161 [Eh]

	 ================> DF-SCS-MP2 Energies <==================
	-----------------------------------------------------------
	 SCS Same-Spin Scale       =       0.3333333333333333 [-]
	 SCS Opposite-Spin Scale   =       1.2000000000000000 [-]
	 SCS Same-Spin Energy      =      -0.1230274011090171 [Eh]
	 SCS Opposite-Spin Energy  =      -1.4176950683094312 [Eh]
	 SCS Correlation Energy    =      -1.5407224694184483 [Eh]
	 SCS Total Energy          =    -362.4394606440494613 [Eh]
	-----------------------------------------------------------

  Dipole Moment: [D]
     X:    -2.9907      Y:     0.0023      Z:     2.1677     Total:     3.6936

*** Psi4 exiting successfully. Buy a developer a beer!
