                               Psi4 1.4a3.dev225

  ==> Input File <==

--------------------------------------------------------------------------
#psi4
#
memory 32 gb

molecule  {
0 1
  O        1.6000063     1.1238657    -0.3282990
  O        1.6269410    -1.1045380    -0.3563700
  N        1.2303420     0.0000010     0.0570950
  C       -1.2290370    -0.0000020     0.4263420
  C        0.1538230    -0.0000020     1.0857690
  C       -1.4714760    -1.2642140    -0.3967350
  C       -1.4714800     1.2642120    -0.3967320
  H       -1.9318800    -0.0000060     1.2712410
  H        0.3118450     0.8984460     1.6853920
  H        0.3118480    -0.8984510     1.6853890
  H       -0.8055150    -1.3049070    -1.2625520
  H       -2.5029200    -1.2793330    -0.7603930
  H       -1.3046420    -2.1677380     0.1971180
  H       -1.3046550     2.1677340     0.1971270
  H       -0.8055150     1.3049140    -1.2625460
  H       -2.5029220     1.2793270    -0.7603950
units angstrom
no_reorient  #important for SAPT in psi4, default
symmetry c1  #important for SAPT in psi4, default
}

set PROPERTIES_ORIGIN ["COM"]
properties('MP2/aug-cc-pvtz', properties = ['dipole'])
--------------------------------------------------------------------------

    Molecular point group: c1
  Charge       = 0
  Multiplicity = 1
  Basis Set: AUG-CC-PVTZ
    Blend: AUG-CC-PVTZ
  Basis Set: (AUG-CC-PVTZ AUX)
    Blend: AUG-CC-PVTZ-JKFIT

    Orbital Energies [Eh]
    ---------------------

    Doubly Occupied:

       1A    -20.608522     2A    -20.607503     3A    -15.846444
       4A    -11.303965     5A    -11.263764     6A    -11.227862
       7A    -11.227613     8A     -1.584266     9A     -1.389014
      10A     -1.142178    11A     -1.040473    12A     -0.947432
      13A     -0.881088    14A     -0.804667    15A     -0.738266
      16A     -0.729944    17A     -0.705449    18A     -0.637851
      19A     -0.628374    20A     -0.607369    21A     -0.557305
      22A     -0.544168    23A     -0.515882    24A     -0.502437
      25A     -0.499354    26A     -0.485381    27A     -0.473149
      28A     -0.450424

  @DF-RHF Final Energy:  -360.89861995254387

   => Energetics <=

    Nuclear Repulsion Energy =            328.6922482347010828
    One-Electron Energy =               -1143.2814529758238677
    Two-Electron Energy =                 453.6905847885789171
    Total Energy =                       -360.8986199525438678
  Basis Set: (AUG-CC-PVTZ AUX)
    Blend: AUG-CC-PVTZ-RI
    Molecular point group: c1

    Geometry (in Angstrom), charge = 0, multiplicity = 1:

       Center              X                  Y                   Z               Mass
    ------------   -----------------  -----------------  -----------------  -----------------
         O            1.502896211579     1.120866836978    -0.323157909258    15.994914619570
         O            1.529830911579    -1.107536863022    -0.351228909258    15.994914619570
         N            1.133231911579    -0.002997863022     0.062236090742    14.003074004430
         C           -1.326147088421    -0.003000863022     0.431483090742    12.000000000000
         C            0.056712911579    -0.003000863022     1.090910090742    12.000000000000
         C           -1.568586088421    -1.267212863022    -0.391593909258    12.000000000000
         C           -1.568590088421     1.261213136978    -0.391590909258    12.000000000000
         H           -2.028990088421    -0.003004863022     1.276382090742     1.007825032230
         H            0.214734911579     0.895447136978     1.690533090742     1.007825032230
         H            0.214737911579    -0.901449863022     1.690530090742     1.007825032230
         H           -0.902625088421    -1.307905863022    -1.257410909258     1.007825032230
         H           -2.600030088421    -1.282331863022    -0.755251909258     1.007825032230
         H           -1.401752088421    -2.170736863022     0.202259090742     1.007825032230
         H           -1.401765088421     2.164735136978     0.202268090742     1.007825032230
         H           -0.902625088421     1.301915136978    -1.257404909258     1.007825032230
         H           -2.600032088421     1.276328136978    -0.755253909258     1.007825032230

  Basis Set: AUG-CC-PVTZ
    Blend: AUG-CC-PVTZ
  Basis Set: (AUG-CC-PVTZ AUX)
    Blend: AUG-CC-PVTZ-JKFIT
	 Reference Energy          =    -360.8986199525438678 [Eh]
	 Singles Energy            =      -0.0000000000000000 [Eh]
	 Same-Spin Energy          =      -0.3690424257137635 [Eh]
	 Opposite-Spin Energy      =      -1.1814584611306813 [Eh]
	 Correlation Energy        =      -1.5505008868444448 [Eh]
	 Total Energy              =    -362.4491208393882857 [Eh]

	 ================> DF-SCS-MP2 Energies <==================
	-----------------------------------------------------------
	 SCS Same-Spin Scale       =       0.3333333333333333 [-]
	 SCS Opposite-Spin Scale   =       1.2000000000000000 [-]
	 SCS Same-Spin Energy      =      -0.1230141419045878 [Eh]
	 SCS Opposite-Spin Energy  =      -1.4177501533568175 [Eh]
	 SCS Correlation Energy    =      -1.5407642952614053 [Eh]
	 SCS Total Energy          =    -362.4393842478052647 [Eh]
	-----------------------------------------------------------

  Dipole Moment: [D]
     X:    -2.9198      Y:    -0.0204      Z:     2.1160     Total:     3.6060

*** Psi4 exiting successfully. Buy a developer a beer!
