                               Psi4 1.4a3.dev225

  ==> Input File <==

--------------------------------------------------------------------------
#psi4
#
memory 32 gb

molecule  {
0 1
  O        1.6269320     1.1045440    -0.3563700
  O        1.6269410    -1.1045380    -0.3563700
  N        1.2303420     0.0000010     0.0570950
  C       -1.2290370    -0.0000020     0.4263420
  C        0.1538230    -0.0000020     1.0857690
  C       -1.4714760    -1.2642140    -0.3967350
  C       -1.4714800     1.2642120    -0.3967320
  H       -1.9318800    -0.0000060     1.2712410
  H        0.3118450     0.8984460     1.6853920
  H        0.3118480    -0.8984510     1.6853890
  H       -0.8195106    -1.2713288    -1.2740545
  H       -2.5029200    -1.2793330    -0.7603930
  H       -1.3046420    -2.1677380     0.1971180
  H       -1.3046550     2.1677340     0.1971270
  H       -0.8055150     1.3049140    -1.2625460
  H       -2.5029220     1.2793270    -0.7603950
units angstrom
no_reorient  #important for SAPT in psi4, default
symmetry c1  #important for SAPT in psi4, default
}

set PROPERTIES_ORIGIN ["COM"]
properties('MP2/aug-cc-pvtz', properties = ['dipole'])
--------------------------------------------------------------------------

    Molecular point group: c1
  Charge       = 0
  Multiplicity = 1
  Basis Set: AUG-CC-PVTZ
    Blend: AUG-CC-PVTZ
  Basis Set: (AUG-CC-PVTZ AUX)
    Blend: AUG-CC-PVTZ-JKFIT

    Orbital Energies [Eh]
    ---------------------

    Doubly Occupied:

       1A    -20.605954     2A    -20.605891     3A    -15.845579
       4A    -11.305911     5A    -11.264360     6A    -11.228409
       7A    -11.228292     8A     -1.584106     9A     -1.384793
      10A     -1.143894    11A     -1.041915    12A     -0.947840
      13A     -0.881258    14A     -0.803912    15A     -0.738253
      16A     -0.728502    17A     -0.705135    18A     -0.638074
      19A     -0.629586    20A     -0.608014    21A     -0.557572
      22A     -0.544151    23A     -0.516769    24A     -0.501556
      25A     -0.500238    26A     -0.484325    27A     -0.474418
      28A     -0.448181

  @DF-RHF Final Energy:  -360.89923441636336

   => Energetics <=

    Nuclear Repulsion Energy =            328.5044904056531436
    One-Electron Energy =               -1142.9136774404103107
    Two-Electron Energy =                 453.5099526183938679
    Total Energy =                       -360.8992344163633561
  Basis Set: (AUG-CC-PVTZ AUX)
    Blend: AUG-CC-PVTZ-RI
    Molecular point group: c1

    Geometry (in Angstrom), charge = 0, multiplicity = 1:

       Center              X                  Y                   Z               Mass
    ------------   -----------------  -----------------  -----------------  -----------------
         O            1.525780035943     1.104215417429    -0.346759950587    15.994914619570
         O            1.525789035943    -1.104866582571    -0.346759950587    15.994914619570
         N            1.129190035943    -0.000327582571     0.066705049413    14.003074004430
         C           -1.330188964057    -0.000330582571     0.435952049413    12.000000000000
         C            0.052671035943    -0.000330582571     1.095379049413    12.000000000000
         C           -1.572627964057    -1.264542582571    -0.387124950587    12.000000000000
         C           -1.572631964057     1.263883417429    -0.387121950587    12.000000000000
         H           -2.033031964057    -0.000334582571     1.280851049413     1.007825032230
         H            0.210693035943     0.898117417429     1.695002049413     1.007825032230
         H            0.210696035943    -0.898779582571     1.694999049413     1.007825032230
         H           -0.920662564057    -1.271657382571    -1.264444450587     1.007825032230
         H           -2.604071964057    -1.279661582571    -0.750782950587     1.007825032230
         H           -1.405793964057    -2.168066582571     0.206728049413     1.007825032230
         H           -1.405806964057     2.167405417429     0.206737049413     1.007825032230
         H           -0.906666964057     1.304585417429    -1.252935950587     1.007825032230
         H           -2.604073964057     1.278998417429    -0.750784950587     1.007825032230

  Basis Set: AUG-CC-PVTZ
    Blend: AUG-CC-PVTZ
  Basis Set: (AUG-CC-PVTZ AUX)
    Blend: AUG-CC-PVTZ-JKFIT
	 Reference Energy          =    -360.8992344163633561 [Eh]
	 Singles Energy            =      -0.0000000000000000 [Eh]
	 Same-Spin Energy          =      -0.3689221974748454 [Eh]
	 Opposite-Spin Energy      =      -1.1812769977339737 [Eh]
	 Correlation Energy        =      -1.5501991952088190 [Eh]
	 Total Energy              =    -362.4494336115722035 [Eh]

	 ================> DF-SCS-MP2 Energies <==================
	-----------------------------------------------------------
	 SCS Same-Spin Scale       =       0.3333333333333333 [-]
	 SCS Opposite-Spin Scale   =       1.2000000000000000 [-]
	 SCS Same-Spin Energy      =      -0.1229740658249485 [Eh]
	 SCS Opposite-Spin Energy  =      -1.4175323972807683 [Eh]
	 SCS Correlation Energy    =      -1.5405064631057168 [Eh]
	 SCS Total Energy          =    -362.4397408794690705 [Eh]
	-----------------------------------------------------------

  Dipole Moment: [D]
     X:    -3.0004      Y:     0.0046      Z:     2.1680     Total:     3.7017

*** Psi4 exiting successfully. Buy a developer a beer!
