                               Psi4 1.4a3.dev225

  ==> Input File <==

--------------------------------------------------------------------------
#psi4
#
memory 32 gb

molecule  {
0 1
  O        1.6269320     1.1045440    -0.3563700
  O        1.6269410    -1.1045380    -0.3563700
  N        1.2303420     0.0000010     0.0570950
  C       -1.2290370    -0.0000020     0.4263420
  C        0.1538230    -0.0000020     1.0857690
  C       -1.4714760    -1.2642140    -0.3967350
  C       -1.4714800     1.2642120    -0.3967320
  H       -1.9318800    -0.0000060     1.2712410
  H        0.3118450     0.8984460     1.6853920
  H        0.3118480    -0.8984510     1.6853890
  H       -0.8055150    -1.3049070    -1.2625520
  H       -2.5500705    -1.2800241    -0.7770169
  H       -1.3046420    -2.1677380     0.1971180
  H       -1.3046550     2.1677340     0.1971270
  H       -0.8055150     1.3049140    -1.2625460
  H       -2.5029220     1.2793270    -0.7603950
units angstrom
no_reorient  #important for SAPT in psi4, default
symmetry c1  #important for SAPT in psi4, default
}

set PROPERTIES_ORIGIN ["COM"]
properties('MP2/aug-cc-pvtz', properties = ['dipole'])
--------------------------------------------------------------------------

    Molecular point group: c1
  Charge       = 0
  Multiplicity = 1
  Basis Set: AUG-CC-PVTZ
    Blend: AUG-CC-PVTZ
  Basis Set: (AUG-CC-PVTZ AUX)
    Blend: AUG-CC-PVTZ-JKFIT

    Orbital Energies [Eh]
    ---------------------

    Doubly Occupied:

       1A    -20.606381     2A    -20.606329     3A    -15.846022
       4A    -11.306467     5A    -11.265112     6A    -11.234288
       7A    -11.228239     8A     -1.584542     9A     -1.385234
      10A     -1.144060    11A     -1.041163    12A     -0.945637
      13A     -0.880641    14A     -0.803717    15A     -0.738201
      16A     -0.728870    17A     -0.705764    18A     -0.637515
      19A     -0.628236    20A     -0.607096    21A     -0.557622
      22A     -0.539785    23A     -0.516183    24A     -0.501462
      25A     -0.498942    26A     -0.484926    27A     -0.474685
      28A     -0.448489

  @DF-RHF Final Energy:  -360.89730923814363

   => Energetics <=

    Nuclear Repulsion Energy =            328.2614029962581981
    One-Electron Energy =               -1142.4262054759974490
    Two-Electron Energy =                 453.2674932415956164
    Total Energy =                       -360.8973092381436345
  Basis Set: (AUG-CC-PVTZ AUX)
    Blend: AUG-CC-PVTZ-RI
    Molecular point group: c1

    Geometry (in Angstrom), charge = 0, multiplicity = 1:

       Center              X                  Y                   Z               Mass
    ------------   -----------------  -----------------  -----------------  -----------------
         O            1.526104247655     1.104550526520    -0.346709869970    15.994914619570
         O            1.526113247655    -1.104531473480    -0.346709869970    15.994914619570
         N            1.129514247655     0.000007526520     0.066755130030    14.003074004430
         C           -1.329864752345     0.000004526520     0.436002130030    12.000000000000
         C            0.052995247655     0.000004526520     1.095429130030    12.000000000000
         C           -1.572303752345    -1.264207473480    -0.387074869970    12.000000000000
         C           -1.572307752345     1.264218526520    -0.387071869970    12.000000000000
         H           -2.032707752345     0.000000526520     1.280901130030     1.007825032230
         H            0.211017247655     0.898452526520     1.695052130030     1.007825032230
         H            0.211020247655    -0.898444473480     1.695049130030     1.007825032230
         H           -0.906342752345    -1.304900473480    -1.252891869970     1.007825032230
         H           -2.650898252345    -1.280017573480    -0.767356769970     1.007825032230
         H           -1.405469752345    -2.167731473480     0.206778130030     1.007825032230
         H           -1.405482752345     2.167740526520     0.206787130030     1.007825032230
         H           -0.906342752345     1.304920526520    -1.252885869970     1.007825032230
         H           -2.603749752345     1.279333526520    -0.750734869970     1.007825032230

  Basis Set: AUG-CC-PVTZ
    Blend: AUG-CC-PVTZ
  Basis Set: (AUG-CC-PVTZ AUX)
    Blend: AUG-CC-PVTZ-JKFIT
	 Reference Energy          =    -360.8973092381436345 [Eh]
	 Singles Energy            =      -0.0000000000000000 [Eh]
	 Same-Spin Energy          =      -0.3689000982204372 [Eh]
	 Opposite-Spin Energy      =      -1.1815785773133740 [Eh]
	 Correlation Energy        =      -1.5504786755338111 [Eh]
	 Total Energy              =    -362.4477879136774732 [Eh]

	 ================> DF-SCS-MP2 Energies <==================
	-----------------------------------------------------------
	 SCS Same-Spin Scale       =       0.3333333333333333 [-]
	 SCS Opposite-Spin Scale   =       1.2000000000000000 [-]
	 SCS Same-Spin Energy      =      -0.1229666994068124 [Eh]
	 SCS Opposite-Spin Energy  =      -1.4178942927760487 [Eh]
	 SCS Correlation Energy    =      -1.5408609921828611 [Eh]
	 SCS Total Energy          =    -362.4381702303264774 [Eh]
	-----------------------------------------------------------

  Dipole Moment: [D]
     X:    -2.9583      Y:     0.0089      Z:     2.1828     Total:     3.6764

*** Psi4 exiting successfully. Buy a developer a beer!
