                               Psi4 1.4a3.dev225

  ==> Input File <==

--------------------------------------------------------------------------
#psi4
#
memory 32 gb

molecule  {
0 1
  O        1.6269320     1.1045440    -0.3563700
  O        1.7091961    -1.0386722    -0.4329125
  N        1.2303420     0.0000010     0.0570950
  C       -1.2290370    -0.0000020     0.4263420
  C        0.1538230    -0.0000020     1.0857690
  C       -1.4714760    -1.2642140    -0.3967350
  C       -1.4714800     1.2642120    -0.3967320
  H       -1.9318800    -0.0000060     1.2712410
  H        0.3118450     0.8984460     1.6853920
  H        0.3118480    -0.8984510     1.6853890
  H       -0.8055150    -1.3049070    -1.2625520
  H       -2.5029200    -1.2793330    -0.7603930
  H       -1.3046420    -2.1677380     0.1971180
  H       -1.3046550     2.1677340     0.1971270
  H       -0.8055150     1.3049140    -1.2625460
  H       -2.5029220     1.2793270    -0.7603950
units angstrom
no_reorient  #important for SAPT in psi4, default
symmetry c1  #important for SAPT in psi4, default
}

set PROPERTIES_ORIGIN ["COM"]
properties('MP2/aug-cc-pvtz', properties = ['dipole'])
--------------------------------------------------------------------------

    Molecular point group: c1
  Charge       = 0
  Multiplicity = 1
  Basis Set: AUG-CC-PVTZ
    Blend: AUG-CC-PVTZ
  Basis Set: (AUG-CC-PVTZ AUX)
    Blend: AUG-CC-PVTZ-JKFIT

    Orbital Energies [Eh]
    ---------------------

    Doubly Occupied:

       1A    -20.600896     2A    -20.598120     3A    -15.842949
       4A    -11.311820     5A    -11.267060     6A    -11.230154
       7A    -11.229236     8A     -1.584449     9A     -1.371726
      10A     -1.148718    11A     -1.045533    12A     -0.949486
      13A     -0.882020    14A     -0.802541    15A     -0.738452
      16A     -0.724142    17A     -0.705132    18A     -0.638593
      19A     -0.630099    20A     -0.609873    21A     -0.557893
      22A     -0.546005    23A     -0.519915    24A     -0.502622
      25A     -0.498671    26A     -0.479399    27A     -0.477658
      28A     -0.441219

  @DF-RHF Final Energy:  -360.89689633482618

   => Energetics <=

    Nuclear Repulsion Energy =            327.9523762157679130
    One-Electron Energy =               -1141.8297836397939591
    Two-Electron Energy =                 452.9805110891998652
    Total Energy =                       -360.8968963348261809
  Basis Set: (AUG-CC-PVTZ AUX)
    Blend: AUG-CC-PVTZ-RI
    Molecular point group: c1

    Geometry (in Angstrom), charge = 0, multiplicity = 1:

       Center              X                  Y                   Z               Mass
    ------------   -----------------  -----------------  -----------------  -----------------
         O            1.512877595895     1.094321724770    -0.334993415758    15.994914619570
         O            1.595141695895    -1.048894475230    -0.411535915758    15.994914619570
         N            1.116287595895    -0.010221275230     0.078471584242    14.003074004430
         C           -1.343091404105    -0.010224275230     0.447718584242    12.000000000000
         C            0.039768595895    -0.010224275230     1.107145584242    12.000000000000
         C           -1.585530404105    -1.274436275230    -0.375358415758    12.000000000000
         C           -1.585534404105     1.253989724770    -0.375355415758    12.000000000000
         H           -2.045934404105    -0.010228275230     1.292617584242     1.007825032230
         H            0.197790595895     0.888223724770     1.706768584242     1.007825032230
         H            0.197793595895    -0.908673275230     1.706765584242     1.007825032230
         H           -0.919569404105    -1.315129275230    -1.241175415758     1.007825032230
         H           -2.616974404105    -1.289555275230    -0.739016415758     1.007825032230
         H           -1.418696404105    -2.177960275230     0.218494584242     1.007825032230
         H           -1.418709404105     2.157511724770     0.218503584242     1.007825032230
         H           -0.919569404105     1.294691724770    -1.241169415758     1.007825032230
         H           -2.616976404105     1.269104724770    -0.739018415758     1.007825032230

  Basis Set: AUG-CC-PVTZ
    Blend: AUG-CC-PVTZ
  Basis Set: (AUG-CC-PVTZ AUX)
    Blend: AUG-CC-PVTZ-JKFIT
	 Reference Energy          =    -360.8968963348261809 [Eh]
	 Singles Energy            =      -0.0000000000000000 [Eh]
	 Same-Spin Energy          =      -0.3685891578058418 [Eh]
	 Opposite-Spin Energy      =      -1.1807887625107849 [Eh]
	 Correlation Energy        =      -1.5493779203166267 [Eh]
	 Total Energy              =    -362.4462742551427823 [Eh]

	 ================> DF-SCS-MP2 Energies <==================
	-----------------------------------------------------------
	 SCS Same-Spin Scale       =       0.3333333333333333 [-]
	 SCS Opposite-Spin Scale   =       1.2000000000000000 [-]
	 SCS Same-Spin Energy      =      -0.1228630526019473 [Eh]
	 SCS Opposite-Spin Energy  =      -1.4169465150129419 [Eh]
	 SCS Correlation Energy    =      -1.5398095676148891 [Eh]
	 SCS Total Energy          =    -362.4367059024410764 [Eh]
	-----------------------------------------------------------

  Dipole Moment: [D]
     X:    -3.2002      Y:    -0.0740      Z:     2.3185     Total:     3.9525

*** Psi4 exiting successfully. Buy a developer a beer!
