                               Psi4 1.4a3.dev225

  ==> Input File <==

--------------------------------------------------------------------------
#psi4
#
memory 32 gb

molecule  {
0 1
  O        1.6269320     1.1045440    -0.3563700
  O        1.6269410    -1.1045380    -0.3563700
  N        1.2303420     0.0000010     0.0570950
  C       -1.2290370    -0.0000020     0.4263420
  C        0.1538230    -0.0000020     1.0857690
  C       -1.4714760    -1.2642140    -0.3967350
  C       -1.4714800     1.2642120    -0.3967320
  H       -1.9318800    -0.0000060     1.2712410
  H        0.3118450     0.8984460     1.6853920
  H        0.3118480    -0.8984510     1.6853890
  H       -0.7904892    -1.3043913    -1.2508086
  H       -2.5029200    -1.2793330    -0.7603930
  H       -1.3046420    -2.1677380     0.1971180
  H       -1.3046550     2.1677340     0.1971270
  H       -0.8055150     1.3049140    -1.2625460
  H       -2.5029220     1.2793270    -0.7603950
units angstrom
no_reorient  #important for SAPT in psi4, default
symmetry c1  #important for SAPT in psi4, default
}

set PROPERTIES_ORIGIN ["COM"]
properties('MP2/aug-cc-pvtz', properties = ['dipole'])
--------------------------------------------------------------------------

    Molecular point group: c1
  Charge       = 0
  Multiplicity = 1
  Basis Set: AUG-CC-PVTZ
    Blend: AUG-CC-PVTZ
  Basis Set: (AUG-CC-PVTZ AUX)
    Blend: AUG-CC-PVTZ-JKFIT

    Orbital Energies [Eh]
    ---------------------

    Doubly Occupied:

       1A    -20.606146     2A    -20.606085     3A    -15.845774
       4A    -11.305998     5A    -11.264471     6A    -11.228203
       7A    -11.228187     8A     -1.584311     9A     -1.385011
      10A     -1.143923    11A     -1.041825    12A     -0.947953
      13A     -0.881204    14A     -0.804089    15A     -0.738406
      16A     -0.728686    17A     -0.705572    18A     -0.637847
      19A     -0.629020    20A     -0.608062    21A     -0.557408
      22A     -0.544862    23A     -0.517166    24A     -0.501047
      25A     -0.499640    26A     -0.484546    27A     -0.474790
      28A     -0.448374

  @DF-RHF Final Energy:  -360.89932592302711

   => Energetics <=

    Nuclear Repulsion Energy =            328.5196316534168091
    One-Electron Energy =               -1142.9407040219589362
    Two-Electron Energy =                 453.5217464455150207
    Total Energy =                       -360.8993259230271065
  Basis Set: (AUG-CC-PVTZ AUX)
    Blend: AUG-CC-PVTZ-RI
    Molecular point group: c1

    Geometry (in Angstrom), charge = 0, multiplicity = 1:

       Center              X                  Y                   Z               Mass
    ------------   -----------------  -----------------  -----------------  -----------------
         O            1.525496244474     1.104538725589    -0.346987265193    15.994914619570
         O            1.525505244474    -1.104543274411    -0.346987265193    15.994914619570
         N            1.128906244474    -0.000004274411     0.066477734807    14.003074004430
         C           -1.330472755526    -0.000007274411     0.435724734807    12.000000000000
         C            0.052387244474    -0.000007274411     1.095151734807    12.000000000000
         C           -1.572911755526    -1.264219274411    -0.387352265193    12.000000000000
         C           -1.572915755526     1.264206725589    -0.387349265193    12.000000000000
         H           -2.033315755526    -0.000011274411     1.280623734807     1.007825032230
         H            0.210409244474     0.898440725589     1.694774734807     1.007825032230
         H            0.210412244474    -0.898456274411     1.694771734807     1.007825032230
         H           -0.891924955526    -1.304396574411    -1.241425865193     1.007825032230
         H           -2.604355755526    -1.279338274411    -0.751010265193     1.007825032230
         H           -1.406077755526    -2.167743274411     0.206500734807     1.007825032230
         H           -1.406090755526     2.167728725589     0.206509734807     1.007825032230
         H           -0.906950755526     1.304908725589    -1.253163265193     1.007825032230
         H           -2.604357755526     1.279321725589    -0.751012265193     1.007825032230

  Basis Set: AUG-CC-PVTZ
    Blend: AUG-CC-PVTZ
  Basis Set: (AUG-CC-PVTZ AUX)
    Blend: AUG-CC-PVTZ-JKFIT
	 Reference Energy          =    -360.8993259230271065 [Eh]
	 Singles Energy            =      -0.0000000000000000 [Eh]
	 Same-Spin Energy          =      -0.3689268506565144 [Eh]
	 Opposite-Spin Energy      =      -1.1812585540822358 [Eh]
	 Correlation Energy        =      -1.5501854047387502 [Eh]
	 Total Energy              =    -362.4495113277658334 [Eh]

	 ================> DF-SCS-MP2 Energies <==================
	-----------------------------------------------------------
	 SCS Same-Spin Scale       =       0.3333333333333333 [-]
	 SCS Opposite-Spin Scale   =       1.2000000000000000 [-]
	 SCS Same-Spin Energy      =      -0.1229756168855048 [Eh]
	 SCS Opposite-Spin Energy  =      -1.4175102648986828 [Eh]
	 SCS Correlation Energy    =      -1.5404858817841875 [Eh]
	 SCS Total Energy          =    -362.4398118048113133 [Eh]
	-----------------------------------------------------------

  Dipole Moment: [D]
     X:    -2.9855      Y:     0.0004      Z:     2.1743     Total:     3.6933

*** Psi4 exiting successfully. Buy a developer a beer!
