                               Psi4 1.4a3.dev225

  ==> Input File <==

--------------------------------------------------------------------------
#psi4
#
memory 32 gb

molecule  {
0 1
  O        1.6269320     1.1045440    -0.3563700
  O        1.6269410    -1.1045380    -0.3563700
  N        1.2303420     0.0000010     0.0570950
  C       -1.2290370    -0.0000020     0.4263420
  C        0.1538230    -0.0000020     1.0857690
  C       -1.4714760    -1.2642140    -0.3967350
  C       -1.4714800     1.2642120    -0.3967320
  H       -1.9958319    -0.0000064     1.3481186
  H        0.3118450     0.8984460     1.6853920
  H        0.3118480    -0.8984510     1.6853890
  H       -0.8055150    -1.3049070    -1.2625520
  H       -2.5029200    -1.2793330    -0.7603930
  H       -1.3046420    -2.1677380     0.1971180
  H       -1.3046550     2.1677340     0.1971270
  H       -0.8055150     1.3049140    -1.2625460
  H       -2.5029220     1.2793270    -0.7603950
units angstrom
no_reorient  #important for SAPT in psi4, default
symmetry c1  #important for SAPT in psi4, default
}

set PROPERTIES_ORIGIN ["COM"]
properties('MP2/aug-cc-pvtz', properties = ['dipole'])
--------------------------------------------------------------------------

    Molecular point group: c1
  Charge       = 0
  Multiplicity = 1
  Basis Set: AUG-CC-PVTZ
    Blend: AUG-CC-PVTZ
  Basis Set: (AUG-CC-PVTZ AUX)
    Blend: AUG-CC-PVTZ-JKFIT

    Orbital Energies [Eh]
    ---------------------

    Doubly Occupied:

       1A    -20.606680     2A    -20.606630     3A    -15.846237
       4A    -11.306774     5A    -11.276521     6A    -11.229285
       7A    -11.229270     8A     -1.584828     9A     -1.385506
      10A     -1.142467    11A     -1.040670    12A     -0.948814
      13A     -0.879729    14A     -0.798303    15A     -0.738873
      16A     -0.729181    17A     -0.702132    18A     -0.638501
      19A     -0.623423    20A     -0.608720    21A     -0.558016
      22A     -0.545193    23A     -0.513817    24A     -0.502070
      25A     -0.499641    26A     -0.485342    27A     -0.468795
      28A     -0.448806

  @DF-RHF Final Energy:  -360.89290039756833

   => Energetics <=

    Nuclear Repulsion Energy =            327.9878010386356095
    One-Electron Energy =               -1141.8729557527974521
    Two-Electron Energy =                 452.9922543165935735
    Total Energy =                       -360.8929003975683258
  Basis Set: (AUG-CC-PVTZ AUX)
    Blend: AUG-CC-PVTZ-RI
    Molecular point group: c1

    Geometry (in Angstrom), charge = 0, multiplicity = 1:

       Center              X                  Y                   Z               Mass
    ------------   -----------------  -----------------  -----------------  -----------------
         O            1.526268543450     1.104543772374    -0.347624192781    15.994914619570
         O            1.526277543450    -1.104538227626    -0.347624192781    15.994914619570
         N            1.129678543450     0.000000772374     0.065840807219    14.003074004430
         C           -1.329700456550    -0.000002227626     0.435087807219    12.000000000000
         C            0.053159543450    -0.000002227626     1.094514807219    12.000000000000
         C           -1.572139456550    -1.264214227626    -0.387989192781    12.000000000000
         C           -1.572143456550     1.264211772374    -0.387986192781    12.000000000000
         H           -2.096495356550    -0.000006627626     1.356864407219     1.007825032230
         H            0.211181543450     0.898445772374     1.694137807219     1.007825032230
         H            0.211184543450    -0.898451227626     1.694134807219     1.007825032230
         H           -0.906178456550    -1.304907227626    -1.253806192781     1.007825032230
         H           -2.603583456550    -1.279333227626    -0.751647192781     1.007825032230
         H           -1.405305456550    -2.167738227626     0.205863807219     1.007825032230
         H           -1.405318456550     2.167733772374     0.205872807219     1.007825032230
         H           -0.906178456550     1.304913772374    -1.253800192781     1.007825032230
         H           -2.603585456550     1.279326772374    -0.751649192781     1.007825032230

  Basis Set: AUG-CC-PVTZ
    Blend: AUG-CC-PVTZ
  Basis Set: (AUG-CC-PVTZ AUX)
    Blend: AUG-CC-PVTZ-JKFIT
	 Reference Energy          =    -360.8929003975683258 [Eh]
	 Singles Energy            =      -0.0000000000000000 [Eh]
	 Same-Spin Energy          =      -0.3689705624883546 [Eh]
	 Opposite-Spin Energy      =      -1.1820415650283724 [Eh]
	 Correlation Energy        =      -1.5510121275167270 [Eh]
	 Total Energy              =    -362.4439125250850680 [Eh]

	 ================> DF-SCS-MP2 Energies <==================
	-----------------------------------------------------------
	 SCS Same-Spin Scale       =       0.3333333333333333 [-]
	 SCS Opposite-Spin Scale   =       1.2000000000000000 [-]
	 SCS Same-Spin Energy      =      -0.1229901874961182 [Eh]
	 SCS Opposite-Spin Energy  =      -1.4184498780340469 [Eh]
	 SCS Correlation Energy    =      -1.5414400655301650 [Eh]
	 SCS Total Energy          =    -362.4343404630984651 [Eh]
	-----------------------------------------------------------

  Dipole Moment: [D]
     X:    -2.9516      Y:    -0.0000      Z:     2.1057     Total:     3.6257

*** Psi4 exiting successfully. Buy a developer a beer!
