                               Psi4 1.4a3.dev225

  ==> Input File <==

--------------------------------------------------------------------------
#psi4
#
memory 32 gb

molecule  {
0 1
  O        1.6269320     1.1045440    -0.3563700
  O        1.6269410    -1.1045380    -0.3563700
  N        1.2303420     0.0000010     0.0570950
  C       -1.2290370    -0.0000020     0.4263420
  C        0.1538230    -0.0000020     1.0857690
  C       -1.4520932    -1.2567588    -0.4134631
  C       -1.4714800     1.2642120    -0.3967320
  H       -1.9318800    -0.0000060     1.2712410
  H        0.3118450     0.8984460     1.6853920
  H        0.3118480    -0.8984510     1.6853890
  H       -0.8055150    -1.3049070    -1.2625520
  H       -2.5029200    -1.2793330    -0.7603930
  H       -1.3046420    -2.1677380     0.1971180
  H       -1.3046550     2.1677340     0.1971270
  H       -0.8055150     1.3049140    -1.2625460
  H       -2.5029220     1.2793270    -0.7603950
units angstrom
no_reorient  #important for SAPT in psi4, default
symmetry c1  #important for SAPT in psi4, default
}

set PROPERTIES_ORIGIN ["COM"]
properties('MP2/aug-cc-pvtz', properties = ['dipole'])
--------------------------------------------------------------------------

    Molecular point group: c1
  Charge       = 0
  Multiplicity = 1
  Basis Set: AUG-CC-PVTZ
    Blend: AUG-CC-PVTZ
  Basis Set: (AUG-CC-PVTZ AUX)
    Blend: AUG-CC-PVTZ-JKFIT

    Orbital Energies [Eh]
    ---------------------

    Doubly Occupied:

       1A    -20.606112     2A    -20.606055     3A    -15.845759
       4A    -11.305731     5A    -11.264787     6A    -11.228389
       7A    -11.228038     8A     -1.584289     9A     -1.384982
      10A     -1.144081    11A     -1.041787    12A     -0.947631
      13A     -0.881450    14A     -0.804521    15A     -0.738207
      16A     -0.728658    17A     -0.705825    18A     -0.637880
      19A     -0.629497    20A     -0.605853    21A     -0.562085
      22A     -0.541442    23A     -0.518672    24A     -0.499933
      25A     -0.499296    26A     -0.483642    27A     -0.475781
      28A     -0.448388

  @DF-RHF Final Energy:  -360.89854868038185

   => Energetics <=

    Nuclear Repulsion Energy =            328.6551590422560594
    One-Electron Energy =               -1143.2098731544492694
    Two-Electron Energy =                 453.6561654318113597
    Total Energy =                       -360.8985486803818503
  Basis Set: (AUG-CC-PVTZ AUX)
    Blend: AUG-CC-PVTZ-RI
    Molecular point group: c1

    Geometry (in Angstrom), charge = 0, multiplicity = 1:

       Center              X                  Y                   Z               Mass
    ------------   -----------------  -----------------  -----------------  -----------------
         O            1.523386374497     1.103675735174    -0.344924722720    15.994914619570
         O            1.523395374497    -1.105406264826    -0.344924722720    15.994914619570
         N            1.126796374497    -0.000867264826     0.068540277280    14.003074004430
         C           -1.332582625503    -0.000870264826     0.437787277280    12.000000000000
         C            0.050277374497    -0.000870264826     1.097214277280    12.000000000000
         C           -1.555638825503    -1.257627064826    -0.402017822720    12.000000000000
         C           -1.575025625503     1.263343735174    -0.385286722720    12.000000000000
         H           -2.035425625503    -0.000874264826     1.282686277280     1.007825032230
         H            0.208299374497     0.897577735174     1.696837277280     1.007825032230
         H            0.208302374497    -0.899319264826     1.696834277280     1.007825032230
         H           -0.909060625503    -1.305775264826    -1.251106722720     1.007825032230
         H           -2.606465625503    -1.280201264826    -0.748947722720     1.007825032230
         H           -1.408187625503    -2.168606264826     0.208563277280     1.007825032230
         H           -1.408200625503     2.166865735174     0.208572277280     1.007825032230
         H           -0.909060625503     1.304045735174    -1.251100722720     1.007825032230
         H           -2.606467625503     1.278458735174    -0.748949722720     1.007825032230

  Basis Set: AUG-CC-PVTZ
    Blend: AUG-CC-PVTZ
  Basis Set: (AUG-CC-PVTZ AUX)
    Blend: AUG-CC-PVTZ-JKFIT
	 Reference Energy          =    -360.8985486803818503 [Eh]
	 Singles Energy            =      -0.0000000000000000 [Eh]
	 Same-Spin Energy          =      -0.3689240462611615 [Eh]
	 Opposite-Spin Energy      =      -1.1813022585825141 [Eh]
	 Correlation Energy        =      -1.5502263048436755 [Eh]
	 Total Energy              =    -362.4487749852254979 [Eh]

	 ================> DF-SCS-MP2 Energies <==================
	-----------------------------------------------------------
	 SCS Same-Spin Scale       =       0.3333333333333333 [-]
	 SCS Opposite-Spin Scale   =       1.2000000000000000 [-]
	 SCS Same-Spin Energy      =      -0.1229746820870538 [Eh]
	 SCS Opposite-Spin Energy  =      -1.4175627102990169 [Eh]
	 SCS Correlation Energy    =      -1.5405373923860708 [Eh]
	 SCS Total Energy          =    -362.4390860727679069 [Eh]
	-----------------------------------------------------------

  Dipole Moment: [D]
     X:    -2.9861      Y:     0.0023      Z:     2.1647     Total:     3.6881

*** Psi4 exiting successfully. Buy a developer a beer!
