                               Psi4 1.4a3.dev225

  ==> Input File <==

--------------------------------------------------------------------------
#psi4
#
memory 32 gb

molecule  {
0 1
  O        1.6269320     1.1045440    -0.3563700
  O        1.6269410    -1.1045380    -0.3563700
  N        1.2303420     0.0000010     0.0570950
  C       -1.2290370    -0.0000020     0.4263420
  C        0.1538230    -0.0000020     1.0857690
  C       -1.4714760    -1.2642140    -0.3967350
  C       -1.4714800     1.2642120    -0.3967320
  H       -1.9318800    -0.0000060     1.2712410
  H        0.3118450     0.8984460     1.6853920
  H        0.3118480    -0.8984510     1.6853890
  H       -0.7750521    -1.3067684    -1.3021569
  H       -2.5029200    -1.2793330    -0.7603930
  H       -1.3046420    -2.1677380     0.1971180
  H       -1.3046550     2.1677340     0.1971270
  H       -0.8055150     1.3049140    -1.2625460
  H       -2.5029220     1.2793270    -0.7603950
units angstrom
no_reorient  #important for SAPT in psi4, default
symmetry c1  #important for SAPT in psi4, default
}

set PROPERTIES_ORIGIN ["COM"]
properties('MP2/aug-cc-pvtz', properties = ['dipole'])
--------------------------------------------------------------------------

    Molecular point group: c1
  Charge       = 0
  Multiplicity = 1
  Basis Set: AUG-CC-PVTZ
    Blend: AUG-CC-PVTZ
  Basis Set: (AUG-CC-PVTZ AUX)
    Blend: AUG-CC-PVTZ-JKFIT

    Orbital Energies [Eh]
    ---------------------

    Doubly Occupied:

       1A    -20.605898     2A    -20.605844     3A    -15.845576
       4A    -11.306076     5A    -11.265142     6A    -11.233956
       7A    -11.228244     8A     -1.584065     9A     -1.384762
      10A     -1.143718    11A     -1.041153    12A     -0.945544
      13A     -0.880437    14A     -0.803085    15A     -0.738303
      16A     -0.728477    17A     -0.704867    18A     -0.637810
      19A     -0.627680    20A     -0.608297    21A     -0.552324
      22A     -0.544578    23A     -0.515141    24A     -0.501149
      25A     -0.499613    26A     -0.484579    27A     -0.473852
      28A     -0.447804

  @DF-RHF Final Energy:  -360.89721867621449

   => Energetics <=

    Nuclear Repulsion Energy =            328.3071244079895905
    One-Electron Energy =               -1142.5327353308462079
    Two-Electron Energy =                 453.3283922466421245
    Total Energy =                       -360.8972186762144929
  Basis Set: (AUG-CC-PVTZ AUX)
    Blend: AUG-CC-PVTZ-RI
    Molecular point group: c1

    Geometry (in Angstrom), charge = 0, multiplicity = 1:

       Center              X                  Y                   Z               Mass
    ------------   -----------------  -----------------  -----------------  -----------------
         O            1.525345289755     1.104561970529    -0.346485145741    15.994914619570
         O            1.525354289755    -1.104520029471    -0.346485145741    15.994914619570
         N            1.128755289755     0.000018970529     0.066979854259    14.003074004430
         C           -1.330623710245     0.000015970529     0.436226854259    12.000000000000
         C            0.052236289755     0.000015970529     1.095653854259    12.000000000000
         C           -1.573062710245    -1.264196029471    -0.386850145741    12.000000000000
         C           -1.573066710245     1.264229970529    -0.386847145741    12.000000000000
         H           -2.033466710245     0.000011970529     1.281125854259     1.007825032230
         H            0.210258289755     0.898463970529     1.695276854259     1.007825032230
         H            0.210261289755    -0.898433029471     1.695273854259     1.007825032230
         H           -0.876638810245    -1.306750429471    -1.292272045741     1.007825032230
         H           -2.604506710245    -1.279315029471    -0.750508145741     1.007825032230
         H           -1.406228710245    -2.167720029471     0.207002854259     1.007825032230
         H           -1.406241710245     2.167751970529     0.207011854259     1.007825032230
         H           -0.907101710245     1.304931970529    -1.252661145741     1.007825032230
         H           -2.604508710245     1.279344970529    -0.750510145741     1.007825032230

  Basis Set: AUG-CC-PVTZ
    Blend: AUG-CC-PVTZ
  Basis Set: (AUG-CC-PVTZ AUX)
    Blend: AUG-CC-PVTZ-JKFIT
	 Reference Energy          =    -360.8972186762144929 [Eh]
	 Singles Energy            =      -0.0000000000000000 [Eh]
	 Same-Spin Energy          =      -0.3689725585065370 [Eh]
	 Opposite-Spin Energy      =      -1.1816418956201662 [Eh]
	 Correlation Energy        =      -1.5506144541267033 [Eh]
	 Total Energy              =    -362.4478331303412233 [Eh]

	 ================> DF-SCS-MP2 Energies <==================
	-----------------------------------------------------------
	 SCS Same-Spin Scale       =       0.3333333333333333 [-]
	 SCS Opposite-Spin Scale   =       1.2000000000000000 [-]
	 SCS Same-Spin Energy      =      -0.1229908528355123 [Eh]
	 SCS Opposite-Spin Energy  =      -1.4179702747441993 [Eh]
	 SCS Correlation Energy    =      -1.5409611275797117 [Eh]
	 SCS Total Energy          =    -362.4381798037941849 [Eh]
	-----------------------------------------------------------

  Dipole Moment: [D]
     X:    -2.9989      Y:     0.0018      Z:     2.1887     Total:     3.7127

*** Psi4 exiting successfully. Buy a developer a beer!
