                               Psi4 1.4a3.dev225

  ==> Input File <==

--------------------------------------------------------------------------
#psi4
#
memory 32 gb

molecule  {
0 1
  O        1.6269320     1.1045440    -0.3563700
  O        1.6269410    -1.1045380    -0.3563700
  N        1.2303420     0.0000010     0.0570950
  C       -1.1910768    -0.0141730     0.3916665
  C        0.1538230    -0.0000020     1.0857690
  C       -1.4714760    -1.2642140    -0.3967350
  C       -1.4714800     1.2642120    -0.3967320
  H       -1.9318800    -0.0000060     1.2712410
  H        0.3118450     0.8984460     1.6853920
  H        0.3118480    -0.8984510     1.6853890
  H       -0.8055150    -1.3049070    -1.2625520
  H       -2.5029200    -1.2793330    -0.7603930
  H       -1.3046420    -2.1677380     0.1971180
  H       -1.3046550     2.1677340     0.1971270
  H       -0.8055150     1.3049140    -1.2625460
  H       -2.5029220     1.2793270    -0.7603950
units angstrom
no_reorient  #important for SAPT in psi4, default
symmetry c1  #important for SAPT in psi4, default
}

set PROPERTIES_ORIGIN ["COM"]
properties('MP2/aug-cc-pvtz', properties = ['dipole'])
--------------------------------------------------------------------------

    Molecular point group: c1
  Charge       = 0
  Multiplicity = 1
  Basis Set: AUG-CC-PVTZ
    Blend: AUG-CC-PVTZ
  Basis Set: (AUG-CC-PVTZ AUX)
    Blend: AUG-CC-PVTZ-JKFIT

    Orbital Energies [Eh]
    ---------------------

    Doubly Occupied:

       1A    -20.606059     2A    -20.605976     3A    -15.844988
       4A    -11.306943     5A    -11.266590     6A    -11.228628
       7A    -11.227957     8A     -1.584389     9A     -1.384969
      10A     -1.148246    11A     -1.043097    12A     -0.950497
      13A     -0.881407    14A     -0.800676    15A     -0.740887
      16A     -0.728964    17A     -0.703238    18A     -0.640374
      19A     -0.627346    20A     -0.610848    21A     -0.556003
      22A     -0.546680    23A     -0.517373    24A     -0.506642
      25A     -0.499800    26A     -0.485902    27A     -0.465041
      28A     -0.448605

  @DF-RHF Final Energy:  -360.89580760777886

   => Energetics <=

    Nuclear Repulsion Energy =            329.1315586320486091
    One-Electron Energy =               -1144.1384834553166456
    Two-Electron Energy =                 454.1111172154891733
    Total Energy =                       -360.8958076077788633
  Basis Set: (AUG-CC-PVTZ AUX)
    Blend: AUG-CC-PVTZ-RI
    Molecular point group: c1

    Geometry (in Angstrom), charge = 0, multiplicity = 1:

       Center              X                  Y                   Z               Mass
    ------------   -----------------  -----------------  -----------------  -----------------
         O            1.521223347131     1.106193744283    -0.342835048313    15.994914619570
         O            1.521232347131    -1.102888255717    -0.342835048313    15.994914619570
         N            1.124633347131     0.001650744283     0.070629951687    14.003074004430
         C           -1.296785452869    -0.012523255717     0.405201451687    12.000000000000
         C            0.048114347131     0.001647744283     1.099303951687    12.000000000000
         C           -1.577184652869    -1.262564255717    -0.383200048313    12.000000000000
         C           -1.577188652869     1.265861744283    -0.383197048313    12.000000000000
         H           -2.037588652869     0.001643744283     1.284775951687     1.007825032230
         H            0.206136347131     0.900095744283     1.698926951687     1.007825032230
         H            0.206139347131    -0.896801255717     1.698923951687     1.007825032230
         H           -0.911223652869    -1.303257255717    -1.249017048313     1.007825032230
         H           -2.608628652869    -1.277683255717    -0.746858048313     1.007825032230
         H           -1.410350652869    -2.166088255717     0.210652951687     1.007825032230
         H           -1.410363652869     2.169383744283     0.210661951687     1.007825032230
         H           -0.911223652869     1.306563744283    -1.249011048313     1.007825032230
         H           -2.608630652869     1.280976744283    -0.746860048313     1.007825032230

  Basis Set: AUG-CC-PVTZ
    Blend: AUG-CC-PVTZ
  Basis Set: (AUG-CC-PVTZ AUX)
    Blend: AUG-CC-PVTZ-JKFIT
	 Reference Energy          =    -360.8958076077788633 [Eh]
	 Singles Energy            =      -0.0000000000000000 [Eh]
	 Same-Spin Energy          =      -0.3693065265150962 [Eh]
	 Opposite-Spin Energy      =      -1.1817425062404183 [Eh]
	 Correlation Energy        =      -1.5510490327555144 [Eh]
	 Total Energy              =    -362.4468566405343495 [Eh]

	 ================> DF-SCS-MP2 Energies <==================
	-----------------------------------------------------------
	 SCS Same-Spin Scale       =       0.3333333333333333 [-]
	 SCS Opposite-Spin Scale   =       1.2000000000000000 [-]
	 SCS Same-Spin Energy      =      -0.1231021755050321 [Eh]
	 SCS Opposite-Spin Energy  =      -1.4180910074885020 [Eh]
	 SCS Correlation Energy    =      -1.5411931829935341 [Eh]
	 SCS Total Energy          =    -362.4370007907724016 [Eh]
	-----------------------------------------------------------

  Dipole Moment: [D]
     X:    -2.9730      Y:    -0.0098      Z:     2.1634     Total:     3.6768

*** Psi4 exiting successfully. Buy a developer a beer!
