                               Psi4 1.4a3.dev225

  ==> Input File <==

--------------------------------------------------------------------------
#psi4
#
memory 32 gb

molecule  {
0 1
  O        1.6269320     1.1045440    -0.3563700
  O        1.6269410    -1.1045380    -0.3563700
  N        1.1665963    -0.1775372     0.1235531
  C       -1.2290370    -0.0000020     0.4263420
  C        0.1538230    -0.0000020     1.0857690
  C       -1.4714760    -1.2642140    -0.3967350
  C       -1.4714800     1.2642120    -0.3967320
  H       -1.9318800    -0.0000060     1.2712410
  H        0.3118450     0.8984460     1.6853920
  H        0.3118480    -0.8984510     1.6853890
  H       -0.8055150    -1.3049070    -1.2625520
  H       -2.5029200    -1.2793330    -0.7603930
  H       -1.3046420    -2.1677380     0.1971180
  H       -1.3046550     2.1677340     0.1971270
  H       -0.8055150     1.3049140    -1.2625460
  H       -2.5029220     1.2793270    -0.7603950
units angstrom
no_reorient  #important for SAPT in psi4, default
symmetry c1  #important for SAPT in psi4, default
}

set PROPERTIES_ORIGIN ["COM"]
properties('MP2/aug-cc-pvtz', properties = ['dipole'])
--------------------------------------------------------------------------

    Molecular point group: c1
  Charge       = 0
  Multiplicity = 1
  Basis Set: AUG-CC-PVTZ
    Blend: AUG-CC-PVTZ
  Basis Set: (AUG-CC-PVTZ AUX)
    Blend: AUG-CC-PVTZ-JKFIT

    Orbital Energies [Eh]
    ---------------------

    Doubly Occupied:

       1A    -20.666247     2A    -20.543637     3A    -15.836387
       4A    -11.307752     5A    -11.269432     6A    -11.235635
       7A    -11.224668     8A     -1.643277     9A     -1.294717
      10A     -1.163239    11A     -1.062001    12A     -0.950371
      13A     -0.888738    14A     -0.819809    15A     -0.757248
      16A     -0.741102    17A     -0.717083    18A     -0.637910
      19A     -0.633155    20A     -0.610557    21A     -0.557447
      22A     -0.548837    23A     -0.512086    24A     -0.503881
      25A     -0.497470    26A     -0.469767    27A     -0.443747
      28A     -0.424858

  @DF-RHF Final Energy:  -360.84543037723409

   => Energetics <=

    Nuclear Repulsion Energy =            328.8892967995158756
    One-Electron Energy =               -1143.5473296150398710
    Two-Electron Energy =                 453.8126024382898436
    Total Energy =                       -360.8454303772340950
  Basis Set: (AUG-CC-PVTZ AUX)
    Blend: AUG-CC-PVTZ-RI
    Molecular point group: c1

    Geometry (in Angstrom), charge = 0, multiplicity = 1:

       Center              X                  Y                   Z               Mass
    ------------   -----------------  -----------------  -----------------  -----------------
         O            1.534304218608     1.128665641767    -0.355902001531    15.994914619570
         O            1.534313218608    -1.080416358233    -0.355902001531    15.994914619570
         N            1.073968518608    -0.153415558233     0.124021098469    14.003074004430
         C           -1.321664781392     0.024119641767     0.426809998469    12.000000000000
         C            0.061195218608     0.024119641767     1.086236998469    12.000000000000
         C           -1.564103781392    -1.240092358233    -0.396267001531    12.000000000000
         C           -1.564107781392     1.288333641767    -0.396264001531    12.000000000000
         H           -2.024507781392     0.024115641767     1.271708998469     1.007825032230
         H            0.219217218608     0.922567641767     1.685859998469     1.007825032230
         H            0.219220218608    -0.874329358233     1.685856998469     1.007825032230
         H           -0.898142781392    -1.280785358233    -1.262084001531     1.007825032230
         H           -2.595547781392    -1.255211358233    -0.759925001531     1.007825032230
         H           -1.397269781392    -2.143616358233     0.197585998469     1.007825032230
         H           -1.397282781392     2.191855641767     0.197594998469     1.007825032230
         H           -0.898142781392     1.329035641767    -1.262078001531     1.007825032230
         H           -2.595549781392     1.303448641767    -0.759927001531     1.007825032230

  Basis Set: AUG-CC-PVTZ
    Blend: AUG-CC-PVTZ
  Basis Set: (AUG-CC-PVTZ AUX)
    Blend: AUG-CC-PVTZ-JKFIT
	 Reference Energy          =    -360.8454303772340950 [Eh]
	 Singles Energy            =      -0.0000000000000000 [Eh]
	 Same-Spin Energy          =      -0.3673413493573396 [Eh]
	 Opposite-Spin Energy      =      -1.1790188190305184 [Eh]
	 Correlation Energy        =      -1.5463601683878581 [Eh]
	 Total Energy              =    -362.3917905456219728 [Eh]

	 ================> DF-SCS-MP2 Energies <==================
	-----------------------------------------------------------
	 SCS Same-Spin Scale       =       0.3333333333333333 [-]
	 SCS Opposite-Spin Scale   =       1.2000000000000000 [-]
	 SCS Same-Spin Energy      =      -0.1224471164524465 [Eh]
	 SCS Opposite-Spin Energy  =      -1.4148225828366221 [Eh]
	 SCS Correlation Energy    =      -1.5372696992890686 [Eh]
	 SCS Total Energy          =    -362.3827000765231787 [Eh]
	-----------------------------------------------------------

  Dipole Moment: [D]
     X:    -3.4603      Y:    -1.2494      Z:     2.4481     Total:     4.4190

*** Psi4 exiting successfully. Buy a developer a beer!
