                               Psi4 1.4a3.dev225

  ==> Input File <==

--------------------------------------------------------------------------
#psi4
#
memory 32 gb

molecule  {
0 1
  O        1.6269320     1.1045440    -0.3563700
  O        1.6269410    -1.1045380    -0.3563700
  N        1.2303420     0.0000010     0.0570950
  C       -1.2290370    -0.0000020     0.4263420
  C        0.1538230    -0.0000020     1.0857690
  C       -1.4714760    -1.2642140    -0.3967350
  C       -1.4746536     1.2807604    -0.4075060
  H       -1.9318800    -0.0000060     1.2712410
  H        0.3118450     0.8984460     1.6853920
  H        0.3118480    -0.8984510     1.6853890
  H       -0.8055150    -1.3049070    -1.2625520
  H       -2.5029200    -1.2793330    -0.7603930
  H       -1.3046420    -2.1677380     0.1971180
  H       -1.3046550     2.1677340     0.1971270
  H       -0.8055150     1.3049140    -1.2625460
  H       -2.5029220     1.2793270    -0.7603950
units angstrom
no_reorient  #important for SAPT in psi4, default
symmetry c1  #important for SAPT in psi4, default
}

set PROPERTIES_ORIGIN ["COM"]
properties('MP2/aug-cc-pvtz', properties = ['dipole'])
--------------------------------------------------------------------------

    Molecular point group: c1
  Charge       = 0
  Multiplicity = 1
  Basis Set: AUG-CC-PVTZ
    Blend: AUG-CC-PVTZ
  Basis Set: (AUG-CC-PVTZ AUX)
    Blend: AUG-CC-PVTZ-JKFIT

    Orbital Energies [Eh]
    ---------------------

    Doubly Occupied:

       1A    -20.606036     2A    -20.605972     3A    -15.845652
       4A    -11.305905     5A    -11.265288     6A    -11.228168
       7A    -11.227542     8A     -1.584179     9A     -1.384884
      10A     -1.142401    11A     -1.040392    12A     -0.948127
      13A     -0.881462    14A     -0.804152    15A     -0.738163
      16A     -0.728563    17A     -0.704900    18A     -0.637549
      19A     -0.627970    20A     -0.608080    21A     -0.558696
      22A     -0.546121    23A     -0.518028    24A     -0.502388
      25A     -0.497588    26A     -0.483005    27A     -0.475084
      28A     -0.448333

  @DF-RHF Final Energy:  -360.89930541738477

   => Energetics <=

    Nuclear Repulsion Energy =            328.1842032438455590
    One-Electron Energy =               -1142.2777636764617455
    Two-Electron Energy =                 453.1942550152314197
    Total Energy =                       -360.8993054173847668
  Basis Set: (AUG-CC-PVTZ AUX)
    Blend: AUG-CC-PVTZ-RI
    Molecular point group: c1

    Geometry (in Angstrom), charge = 0, multiplicity = 1:

       Center              X                  Y                   Z               Mass
    ------------   -----------------  -----------------  -----------------  -----------------
         O            1.526012689830     1.102616984195    -0.345617978033    15.994914619570
         O            1.526021689830    -1.106465015805    -0.345617978033    15.994914619570
         N            1.129422689830    -0.001926015805     0.067847021967    14.003074004430
         C           -1.329956310170    -0.001929015805     0.437094021967    12.000000000000
         C            0.052903689830    -0.001929015805     1.096521021967    12.000000000000
         C           -1.572395310170    -1.266141015805    -0.385982978033    12.000000000000
         C           -1.575572910170     1.278833384195    -0.396753978033    12.000000000000
         H           -2.032799310170    -0.001933015805     1.281993021967     1.007825032230
         H            0.210925689830     0.896518984195     1.696144021967     1.007825032230
         H            0.210928689830    -0.900378015805     1.696141021967     1.007825032230
         H           -0.906434310170    -1.306834015805    -1.251799978033     1.007825032230
         H           -2.603839310170    -1.281260015805    -0.749640978033     1.007825032230
         H           -1.405561310170    -2.169665015805     0.207870021967     1.007825032230
         H           -1.405574310170     2.165806984195     0.207879021967     1.007825032230
         H           -0.906434310170     1.302986984195    -1.251793978033     1.007825032230
         H           -2.603841310170     1.277399984195    -0.749642978033     1.007825032230

  Basis Set: AUG-CC-PVTZ
    Blend: AUG-CC-PVTZ
  Basis Set: (AUG-CC-PVTZ AUX)
    Blend: AUG-CC-PVTZ-JKFIT
	 Reference Energy          =    -360.8993054173847668 [Eh]
	 Singles Energy            =      -0.0000000000000000 [Eh]
	 Same-Spin Energy          =      -0.3687576752049526 [Eh]
	 Opposite-Spin Energy      =      -1.1811074796705148 [Eh]
	 Correlation Energy        =      -1.5498651548754674 [Eh]
	 Total Energy              =    -362.4491705722602433 [Eh]

	 ================> DF-SCS-MP2 Energies <==================
	-----------------------------------------------------------
	 SCS Same-Spin Scale       =       0.3333333333333333 [-]
	 SCS Opposite-Spin Scale   =       1.2000000000000000 [-]
	 SCS Same-Spin Energy      =      -0.1229192250683175 [Eh]
	 SCS Opposite-Spin Energy  =      -1.4173289756046177 [Eh]
	 SCS Correlation Energy    =      -1.5402482006729352 [Eh]
	 SCS Total Energy          =    -362.4395536180576869 [Eh]
	-----------------------------------------------------------

  Dipole Moment: [D]
     X:    -2.9903      Y:    -0.0029      Z:     2.1710     Total:     3.6953

*** Psi4 exiting successfully. Buy a developer a beer!
