                               Psi4 1.4a3.dev225

  ==> Input File <==

--------------------------------------------------------------------------
#psi4
#
memory 32 gb

molecule  {
0 1
  O        1.6269320     1.1045440    -0.3563700
  O        1.6269410    -1.1045380    -0.3563700
  N        1.2303420     0.0000010     0.0570950
  C       -1.2290370    -0.0000020     0.4263420
  C        0.1538230    -0.0000020     1.0857690
  C       -1.4714760    -1.2642140    -0.3967350
  C       -1.4714800     1.2642120    -0.3967320
  H       -1.9318800    -0.0000060     1.2712410
  H        0.3118450     0.8984460     1.6853920
  H        0.3118480    -0.8984510     1.6853890
  H       -0.7466743    -1.3027713    -1.2140323
  H       -2.5029200    -1.2793330    -0.7603930
  H       -1.3046420    -2.1677380     0.1971180
  H       -1.3046550     2.1677340     0.1971270
  H       -0.8055150     1.3049140    -1.2625460
  H       -2.5029220     1.2793270    -0.7603950
units angstrom
no_reorient  #important for SAPT in psi4, default
symmetry c1  #important for SAPT in psi4, default
}

set PROPERTIES_ORIGIN ["COM"]
properties('MP2/aug-cc-pvtz', properties = ['dipole'])
--------------------------------------------------------------------------

    Molecular point group: c1
  Charge       = 0
  Multiplicity = 1
  Basis Set: AUG-CC-PVTZ
    Blend: AUG-CC-PVTZ
  Basis Set: (AUG-CC-PVTZ AUX)
    Blend: AUG-CC-PVTZ-JKFIT

    Orbital Energies [Eh]
    ---------------------

    Doubly Occupied:

       1A    -20.606528     2A    -20.606380     3A    -15.846077
       4A    -11.306092     5A    -11.264046     6A    -11.228112
       7A    -11.228087     8A     -1.584687     9A     -1.385397
      10A     -1.144112    11A     -1.041934    12A     -0.948021
      13A     -0.881101    14A     -0.803925    15A     -0.738725
      16A     -0.728979    17A     -0.705983    18A     -0.637476
      19A     -0.629639    20A     -0.608258    21A     -0.557944
      22A     -0.545249    23A     -0.517763    24A     -0.501200
      25A     -0.497874    26A     -0.484614    27A     -0.474783
      28A     -0.448734

  @DF-RHF Final Energy:  -360.89866884419104

   => Energetics <=

    Nuclear Repulsion Energy =            328.6278128719928873
    One-Electron Energy =               -1143.1495225329285859
    Two-Electron Energy =                 453.6230408167446626
    Total Energy =                       -360.8986688441910360
  Basis Set: (AUG-CC-PVTZ AUX)
    Blend: AUG-CC-PVTZ-RI
    Molecular point group: c1

    Geometry (in Angstrom), charge = 0, multiplicity = 1:

       Center              X                  Y                   Z               Mass
    ------------   -----------------  -----------------  -----------------  -----------------
         O            1.525067791855     1.104522884100    -0.347346889477    15.994914619570
         O            1.525076791855    -1.104559115900    -0.347346889477    15.994914619570
         N            1.128477791855    -0.000020115900     0.066118110523    14.003074004430
         C           -1.330901208145    -0.000023115900     0.435365110523    12.000000000000
         C            0.051958791855    -0.000023115900     1.094792110523    12.000000000000
         C           -1.573340208145    -1.264235115900    -0.387711889477    12.000000000000
         C           -1.573344208145     1.264190884100    -0.387708889477    12.000000000000
         H           -2.033744208145    -0.000027115900     1.280264110523     1.007825032230
         H            0.209980791855     0.898424884100     1.694415110523     1.007825032230
         H            0.209983791855    -0.898472115900     1.694412110523     1.007825032230
         H           -0.848538508145    -1.302792415900    -1.205009189477     1.007825032230
         H           -2.604784208145    -1.279354115900    -0.751369889477     1.007825032230
         H           -1.406506208145    -2.167759115900     0.206141110523     1.007825032230
         H           -1.406519208145     2.167712884100     0.206150110523     1.007825032230
         H           -0.907379208145     1.304892884100    -1.253522889477     1.007825032230
         H           -2.604786208145     1.279305884100    -0.751371889477     1.007825032230

  Basis Set: AUG-CC-PVTZ
    Blend: AUG-CC-PVTZ
  Basis Set: (AUG-CC-PVTZ AUX)
    Blend: AUG-CC-PVTZ-JKFIT
	 Reference Energy          =    -360.8986688441910360 [Eh]
	 Singles Energy            =      -0.0000000000000000 [Eh]
	 Same-Spin Energy          =      -0.3690171072545076 [Eh]
	 Opposite-Spin Energy      =      -1.1813669294631044 [Eh]
	 Correlation Energy        =      -1.5503840367176120 [Eh]
	 Total Energy              =    -362.4490528809086527 [Eh]

	 ================> DF-SCS-MP2 Energies <==================
	-----------------------------------------------------------
	 SCS Same-Spin Scale       =       0.3333333333333333 [-]
	 SCS Opposite-Spin Scale   =       1.2000000000000000 [-]
	 SCS Same-Spin Energy      =      -0.1230057024181692 [Eh]
	 SCS Opposite-Spin Energy  =      -1.4176403153557253 [Eh]
	 SCS Correlation Energy    =      -1.5406460177738945 [Eh]
	 SCS Total Energy          =    -362.4393148619649310 [Eh]
	-----------------------------------------------------------

  Dipole Moment: [D]
     X:    -2.9704      Y:     0.0022      Z:     2.1897     Total:     3.6903

*** Psi4 exiting successfully. Buy a developer a beer!
