                               Psi4 1.3.2 release

  ==> Input File <==

--------------------------------------------------------------------------
#psi4
#
memory 32 gb

molecule  {
0 1
  C        0.8906310    -0.4594820    -0.0000050
  C        1.6569550     0.1328190    -1.1912600
  C        1.6569550     0.1327950     1.1912610
  C        3.1340990     0.0195060    -0.7766230
  C        3.1340970     0.0194780     0.7766250
  C       -0.5942150    -0.2116140    -0.0000020
  C       -1.4969670    -1.2829160    -0.0000100
  C       -1.1118122     1.0929470    -0.2499910
  C       -2.8761960    -1.0641450    -0.0000080
  C       -2.4886110     1.3169940     0.0000100
  C       -3.3769130     0.2384400     0.0000020
  H        1.0572190    -1.5476170    -0.0000160
  H        1.3709970     1.1847810    -1.3110530
  H        1.4307960    -0.3756260    -2.1343410
  H        1.4307900    -0.3756630     2.1343350
  H        1.3710040     1.1847570     1.3110690
  H        3.7365840     0.8333760    -1.1915700
  H        3.5617080    -0.9139040    -1.1569620
  H        3.5616920    -0.9139530     1.1569300
  H        3.7365940     0.8333230     1.1916040
  H       -1.1121130    -2.3017550    -0.0000190
  H       -0.4349580     1.9454780     0.0000160
  H       -3.5585010    -1.9112830    -0.0000130
  H       -2.8698420     2.3358160     0.0000180
  H       -4.4501080     0.4133470     0.0000030
units angstrom
no_reorient  #important for SAPT in psi4, default
symmetry c1  #important for SAPT in psi4, default
}

set PROPERTIES_ORIGIN ["COM"]
properties('MP2/aug-cc-pvtz', properties = ['dipole'])
--------------------------------------------------------------------------

    Molecular point group: c1
  Charge       = 0
  Multiplicity = 1
  Basis Set: AUG-CC-PVTZ
    Blend: AUG-CC-PVTZ
  Basis Set: (AUG-CC-PVTZ AUX)
    Blend: AUG-CC-PVTZ-JKFIT

    Orbital Energies [Eh]
    ---------------------

    Doubly Occupied:

       1A    -11.242634     2A    -11.238886     3A    -11.236458
       4A    -11.234000     5A    -11.229267     6A    -11.228586
       7A    -11.227721     8A    -11.217427     9A    -11.216763
      10A    -11.216328    11A    -11.215807    12A     -1.154234
      13A     -1.118961    14A     -1.026950    15A     -1.006351
      16A     -0.961164    17A     -0.943601    18A     -0.831197
      19A     -0.814337    20A     -0.772870    21A     -0.760684
      22A     -0.693035    23A     -0.654716    24A     -0.643884
      25A     -0.616476    26A     -0.609046    27A     -0.578521
      28A     -0.572719    29A     -0.561644    30A     -0.522858
      31A     -0.510769    32A     -0.490009    33A     -0.479172
      34A     -0.471759    35A     -0.465947    36A     -0.458794
      37A     -0.453226    38A     -0.450914    39A     -0.332392
      40A     -0.318896

  @DF-RHF Final Energy:  -424.82658618573373

   => Energetics <=

    Nuclear Repulsion Energy =            580.0551104310909523
    One-Electron Energy =               -1724.2053870462436862
    Two-Electron Energy =                 719.3236904294190026
    Total Energy =                       -424.8265861857337313
  Basis Set: (AUG-CC-PVTZ AUX)
    Blend: AUG-CC-PVTZ-RI
    Molecular point group: c1

    Geometry (in Angstrom), charge = 0, multiplicity = 1:

       Center              X                  Y                   Z               Mass
    ------------   -----------------  -----------------  -----------------  -----------------
         C            0.950604867335    -0.456826466473     0.020527613939    12.000000000000
         C            1.716928867335     0.135474533527    -1.170727386061    12.000000000000
         C            1.716928867335     0.135450533527     1.211793613939    12.000000000000
         C            3.194072867335     0.022161533527    -0.756090386061    12.000000000000
         C            3.194070867335     0.022133533527     0.797157613939    12.000000000000
         C           -0.534241132665    -0.208958466473     0.020530613939    12.000000000000
         C           -1.436993132665    -1.280260466473     0.020522613939    12.000000000000
         C           -1.051838332665     1.095602533527    -0.229458386061    12.000000000000
         C           -2.816222132665    -1.061489466473     0.020524613939    12.000000000000
         C           -2.428637132665     1.319649533527     0.020542613939    12.000000000000
         C           -3.316939132665     0.241095533527     0.020534613939    12.000000000000
         H            1.117192867335    -1.544961466473     0.020516613939     1.007825032230
         H            1.430970867335     1.187436533527    -1.290520386061     1.007825032230
         H            1.490769867335    -0.372970466473    -2.113808386061     1.007825032230
         H            1.490763867335    -0.373007466473     2.154867613939     1.007825032230
         H            1.430977867335     1.187412533527     1.331601613939     1.007825032230
         H            3.796557867335     0.836031533527    -1.171037386061     1.007825032230
         H            3.621681867335    -0.911248466473    -1.136429386061     1.007825032230
         H            3.621665867335    -0.911297466473     1.177462613939     1.007825032230
         H            3.796567867335     0.835978533527     1.212136613939     1.007825032230
         H           -1.052139132665    -2.299099466473     0.020513613939     1.007825032230
         H           -0.374984132665     1.948133533527     0.020548613939     1.007825032230
         H           -3.498527132665    -1.908627466473     0.020519613939     1.007825032230
         H           -2.809868132665     2.338471533527     0.020550613939     1.007825032230
         H           -4.390134132665     0.416002533527     0.020535613939     1.007825032230

  Basis Set: AUG-CC-PVTZ
    Blend: AUG-CC-PVTZ
  Basis Set: (AUG-CC-PVTZ AUX)
    Blend: AUG-CC-PVTZ-JKFIT
	 Reference Energy          =    -424.8265861857337313 [Eh]
	 Singles Energy            =      -0.0000000000000000 [Eh]
	 Same-Spin Energy          =      -0.4762110924251219 [Eh]
	 Opposite-Spin Energy      =      -1.5727349560529200 [Eh]
	 Correlation Energy        =      -2.0489460484780420 [Eh]
	 Total Energy              =    -426.8755322342117893 [Eh]

	 ================> DF-SCS-MP2 Energies <==================
	-----------------------------------------------------------
	 SCS Same-Spin Scale       =       0.3333333333333333 [-]
	 SCS Opposite-Spin Scale   =       1.2000000000000000 [-]
	 SCS Same-Spin Energy      =      -0.1587370308083740 [Eh]
	 SCS Opposite-Spin Energy  =      -1.8872819472635038 [Eh]
	 SCS Correlation Energy    =      -2.0460189780718778 [Eh]
	 SCS Total Energy          =    -426.8726051638055878 [Eh]
	-----------------------------------------------------------

  Dipole Moment: [D]
     X:     0.3988      Y:    -0.1317      Z:     0.1397     Total:     0.4426

*** Psi4 exiting successfully. Buy a developer a beer!
