                               Psi4 1.3.2 release

  ==> Input File <==

--------------------------------------------------------------------------
#psi4
#
memory 32 gb

molecule  {
0 1
  C        0.8906310    -0.4594820    -0.0000050
  C        1.6569550     0.1328190    -1.1912600
  C        1.6569550     0.1327950     1.1912610
  C        3.1340990     0.0195060    -0.7766230
  C        3.1340970     0.0194780     0.7766250
  C       -0.5942150    -0.2116140    -0.0000020
  C       -1.4969670    -1.2829160    -0.0000100
  C       -1.1118121     1.0929466    -0.1999910
  C       -2.8761960    -1.0641450    -0.0000080
  C       -2.4886110     1.3169940     0.0000100
  C       -3.3769130     0.2384400     0.0000020
  H        1.0572190    -1.5476170    -0.0000160
  H        1.3709970     1.1847810    -1.3110530
  H        1.4307960    -0.3756260    -2.1343410
  H        1.4307900    -0.3756630     2.1343350
  H        1.3710040     1.1847570     1.3110690
  H        3.7365840     0.8333760    -1.1915700
  H        3.5617080    -0.9139040    -1.1569620
  H        3.5616920    -0.9139530     1.1569300
  H        3.7365940     0.8333230     1.1916040
  H       -1.1121130    -2.3017550    -0.0000190
  H       -0.4349580     1.9454780     0.0000160
  H       -3.5585010    -1.9112830    -0.0000130
  H       -2.8698420     2.3358160     0.0000180
  H       -4.4501080     0.4133470     0.0000030
units angstrom
no_reorient  #important for SAPT in psi4, default
symmetry c1  #important for SAPT in psi4, default
}

set PROPERTIES_ORIGIN ["COM"]
properties('MP2/aug-cc-pvtz', properties = ['dipole'])
--------------------------------------------------------------------------

    Molecular point group: c1
  Charge       = 0
  Multiplicity = 1
  Basis Set: AUG-CC-PVTZ
    Blend: AUG-CC-PVTZ
  Basis Set: (AUG-CC-PVTZ AUX)
    Blend: AUG-CC-PVTZ-JKFIT

    Orbital Energies [Eh]
    ---------------------

    Doubly Occupied:

       1A    -11.240722     2A    -11.237034     3A    -11.235244
       4A    -11.232311     5A    -11.229374     6A    -11.228681
       7A    -11.227615     8A    -11.217292     9A    -11.216743
      10A    -11.216383    11A    -11.215903    12A     -1.154750
      13A     -1.119042    14A     -1.027045    15A     -1.007218
      16A     -0.961170    17A     -0.943789    18A     -0.831402
      19A     -0.815209    20A     -0.772895    21A     -0.761167
      22A     -0.693883    23A     -0.654834    24A     -0.644225
      25A     -0.617686    26A     -0.609169    27A     -0.579581
      28A     -0.572887    29A     -0.561862    30A     -0.523721
      31A     -0.511255    32A     -0.491151    33A     -0.479171
      34A     -0.471768    35A     -0.465838    36A     -0.459557
      37A     -0.453233    38A     -0.451654    39A     -0.332413
      40A     -0.319212

  @DF-RHF Final Energy:  -424.83374389902241

   => Energetics <=

    Nuclear Repulsion Energy =            580.3055672799935110
    One-Electron Energy =               -1724.7104473406054694
    Two-Electron Energy =                 719.5711361615894930
    Total Energy =                       -424.8337438990224655
  Basis Set: (AUG-CC-PVTZ AUX)
    Blend: AUG-CC-PVTZ-RI
    Molecular point group: c1

    Geometry (in Angstrom), charge = 0, multiplicity = 1:

       Center              X                  Y                   Z               Mass
    ------------   -----------------  -----------------  -----------------  -----------------
         C            0.950604859122    -0.456826433621     0.016421106197    12.000000000000
         C            1.716928859122     0.135474566379    -1.174833893803    12.000000000000
         C            1.716928859122     0.135450566379     1.207687106197    12.000000000000
         C            3.194072859122     0.022161566379    -0.760196893803    12.000000000000
         C            3.194070859122     0.022133566379     0.793051106197    12.000000000000
         C           -0.534241140878    -0.208958433621     0.016424106197    12.000000000000
         C           -1.436993140878    -1.280260433621     0.016416106197    12.000000000000
         C           -1.051838240878     1.095602166379    -0.183564893803    12.000000000000
         C           -2.816222140878    -1.061489433621     0.016418106197    12.000000000000
         C           -2.428637140878     1.319649566379     0.016436106197    12.000000000000
         C           -3.316939140878     0.241095566379     0.016428106197    12.000000000000
         H            1.117192859122    -1.544961433621     0.016410106197     1.007825032230
         H            1.430970859122     1.187436566379    -1.294626893803     1.007825032230
         H            1.490769859122    -0.372970433621    -2.117914893803     1.007825032230
         H            1.490763859122    -0.373007433621     2.150761106197     1.007825032230
         H            1.430977859122     1.187412566379     1.327495106197     1.007825032230
         H            3.796557859122     0.836031566379    -1.175143893803     1.007825032230
         H            3.621681859122    -0.911248433621    -1.140535893803     1.007825032230
         H            3.621665859122    -0.911297433621     1.173356106197     1.007825032230
         H            3.796567859122     0.835978566379     1.208030106197     1.007825032230
         H           -1.052139140878    -2.299099433621     0.016407106197     1.007825032230
         H           -0.374984140878     1.948133566379     0.016442106197     1.007825032230
         H           -3.498527140878    -1.908627433621     0.016413106197     1.007825032230
         H           -2.809868140878     2.338471566379     0.016444106197     1.007825032230
         H           -4.390134140878     0.416002566379     0.016429106197     1.007825032230

  Basis Set: AUG-CC-PVTZ
    Blend: AUG-CC-PVTZ
  Basis Set: (AUG-CC-PVTZ AUX)
    Blend: AUG-CC-PVTZ-JKFIT
	 Reference Energy          =    -424.8337438990224086 [Eh]
	 Singles Energy            =      -0.0000000000000000 [Eh]
	 Same-Spin Energy          =      -0.4758777565440990 [Eh]
	 Opposite-Spin Energy      =      -1.5717045166516712 [Eh]
	 Correlation Energy        =      -2.0475822731957702 [Eh]
	 Total Energy              =    -426.8813261722181664 [Eh]

	 ================> DF-SCS-MP2 Energies <==================
	-----------------------------------------------------------
	 SCS Same-Spin Scale       =       0.3333333333333333 [-]
	 SCS Opposite-Spin Scale   =       1.2000000000000000 [-]
	 SCS Same-Spin Energy      =      -0.1586259188480330 [Eh]
	 SCS Opposite-Spin Energy  =      -1.8860454199820054 [Eh]
	 SCS Correlation Energy    =      -2.0446713388300384 [Eh]
	 SCS Total Energy          =    -426.8784152378524368 [Eh]
	-----------------------------------------------------------

  Dipole Moment: [D]
     X:     0.4253      Y:    -0.0970      Z:     0.1101     Total:     0.4499

*** Psi4 exiting successfully. Buy a developer a beer!
