                               Psi4 1.3.2 release

  ==> Input File <==

--------------------------------------------------------------------------
#psi4
#
memory 32 gb

molecule  {
0 1
  C        0.8906310    -0.4594820    -0.0000050
  C        1.6569550     0.1328190    -1.1912600
  C        1.6569550     0.1327950     1.1912610
  C        3.1340990     0.0195060    -0.7766230
  C        3.1340970     0.0194780     0.7766250
  C       -0.5942150    -0.2116140    -0.0000020
  C       -1.4969670    -1.2829160    -0.0000100
  C       -1.1118121     1.0929458    -0.0999910
  C       -2.8761960    -1.0641450    -0.0000080
  C       -2.4886110     1.3169940     0.0000100
  C       -3.3769130     0.2384400     0.0000020
  H        1.0572190    -1.5476170    -0.0000160
  H        1.3709970     1.1847810    -1.3110530
  H        1.4307960    -0.3756260    -2.1343410
  H        1.4307900    -0.3756630     2.1343350
  H        1.3710040     1.1847570     1.3110690
  H        3.7365840     0.8333760    -1.1915700
  H        3.5617080    -0.9139040    -1.1569620
  H        3.5616920    -0.9139530     1.1569300
  H        3.7365940     0.8333230     1.1916040
  H       -1.1121130    -2.3017550    -0.0000190
  H       -0.4349580     1.9454780     0.0000160
  H       -3.5585010    -1.9112830    -0.0000130
  H       -2.8698420     2.3358160     0.0000180
  H       -4.4501080     0.4133470     0.0000030
units angstrom
no_reorient  #important for SAPT in psi4, default
symmetry c1  #important for SAPT in psi4, default
}

set PROPERTIES_ORIGIN ["COM"]
properties('MP2/aug-cc-pvtz', properties = ['dipole'])
--------------------------------------------------------------------------

    Molecular point group: c1
  Charge       = 0
  Multiplicity = 1
  Basis Set: AUG-CC-PVTZ
    Blend: AUG-CC-PVTZ
  Basis Set: (AUG-CC-PVTZ AUX)
    Blend: AUG-CC-PVTZ-JKFIT

    Orbital Energies [Eh]
    ---------------------

    Doubly Occupied:

       1A    -11.238112     2A    -11.234512     3A    -11.233666
       4A    -11.229970     5A    -11.229521     6A    -11.228828
       7A    -11.227474     8A    -11.217091     9A    -11.216769
      10A    -11.216413    11A    -11.216030    12A     -1.155479
      13A     -1.119160    14A     -1.027199    15A     -1.008375
      16A     -0.961175    17A     -0.944023    18A     -0.831681
      19A     -0.816482    20A     -0.772923    21A     -0.761868
      22A     -0.695226    23A     -0.655015    24A     -0.644740
      25A     -0.619363    26A     -0.609410    27A     -0.581053
      28A     -0.573066    29A     -0.562170    30A     -0.524782
      31A     -0.512001    32A     -0.492644    33A     -0.479167
      34A     -0.471759    35A     -0.465568    36A     -0.460670
      37A     -0.453202    38A     -0.452563    39A     -0.332529
      40A     -0.319654

  @DF-RHF Final Energy:  -424.84319452726982

   => Energetics <=

    Nuclear Repulsion Energy =            580.6451224510610700
    One-Electron Energy =               -1725.3939677522016609
    Two-Electron Energy =                 719.9056507738707751
    Total Energy =                       -424.8431945272698158
  Basis Set: (AUG-CC-PVTZ AUX)
    Blend: AUG-CC-PVTZ-RI
    Molecular point group: c1

    Geometry (in Angstrom), charge = 0, multiplicity = 1:

       Center              X                  Y                   Z               Mass
    ------------   -----------------  -----------------  -----------------  -----------------
         C            0.950604859122    -0.456826367917     0.008208090715    12.000000000000
         C            1.716928859122     0.135474632083    -1.183046909285    12.000000000000
         C            1.716928859122     0.135450632083     1.199474090715    12.000000000000
         C            3.194072859122     0.022161632083    -0.768409909285    12.000000000000
         C            3.194070859122     0.022133632083     0.784838090715    12.000000000000
         C           -0.534241140878    -0.208958367917     0.008211090715    12.000000000000
         C           -1.436993140878    -1.280260367917     0.008203090715    12.000000000000
         C           -1.051838240878     1.095601432083    -0.091777909285    12.000000000000
         C           -2.816222140878    -1.061489367917     0.008205090715    12.000000000000
         C           -2.428637140878     1.319649632083     0.008223090715    12.000000000000
         C           -3.316939140878     0.241095632083     0.008215090715    12.000000000000
         H            1.117192859122    -1.544961367917     0.008197090715     1.007825032230
         H            1.430970859122     1.187436632083    -1.302839909285     1.007825032230
         H            1.490769859122    -0.372970367917    -2.126127909285     1.007825032230
         H            1.490763859122    -0.373007367917     2.142548090715     1.007825032230
         H            1.430977859122     1.187412632083     1.319282090715     1.007825032230
         H            3.796557859122     0.836031632083    -1.183356909285     1.007825032230
         H            3.621681859122    -0.911248367917    -1.148748909285     1.007825032230
         H            3.621665859122    -0.911297367917     1.165143090715     1.007825032230
         H            3.796567859122     0.835978632083     1.199817090715     1.007825032230
         H           -1.052139140878    -2.299099367917     0.008194090715     1.007825032230
         H           -0.374984140878     1.948133632083     0.008229090715     1.007825032230
         H           -3.498527140878    -1.908627367917     0.008200090715     1.007825032230
         H           -2.809868140878     2.338471632083     0.008231090715     1.007825032230
         H           -4.390134140878     0.416002632083     0.008216090715     1.007825032230

  Basis Set: AUG-CC-PVTZ
    Blend: AUG-CC-PVTZ
  Basis Set: (AUG-CC-PVTZ AUX)
    Blend: AUG-CC-PVTZ-JKFIT
	 Reference Energy          =    -424.8431945272698158 [Eh]
	 Singles Energy            =      -0.0000000000000000 [Eh]
	 Same-Spin Energy          =      -0.4754178388189422 [Eh]
	 Opposite-Spin Energy      =      -1.5703409127003052 [Eh]
	 Correlation Energy        =      -2.0457587515192475 [Eh]
	 Total Energy              =    -426.8889532787890744 [Eh]

	 ================> DF-SCS-MP2 Energies <==================
	-----------------------------------------------------------
	 SCS Same-Spin Scale       =       0.3333333333333333 [-]
	 SCS Opposite-Spin Scale   =       1.2000000000000000 [-]
	 SCS Same-Spin Energy      =      -0.1584726129396474 [Eh]
	 SCS Opposite-Spin Energy  =      -1.8844090952403660 [Eh]
	 SCS Correlation Energy    =      -2.0428817081800132 [Eh]
	 SCS Total Energy          =    -426.8860762354498206 [Eh]
	-----------------------------------------------------------

  Dipole Moment: [D]
     X:     0.4612      Y:    -0.0502      Z:     0.0537     Total:     0.4670

*** Psi4 exiting successfully. Buy a developer a beer!
