                               Psi4 1.3.2 release

  ==> Input File <==

--------------------------------------------------------------------------
#psi4
#
memory 32 gb

molecule  {
0 1
  C        0.8906310    -0.4594820    -0.0000050
  C        1.6569550     0.1328190    -1.1912600
  C        1.6569550     0.1327950     1.1912610
  C        3.1340990     0.0195060    -0.7766230
  C        3.1340970     0.0194780     0.7766250
  C       -0.5942150    -0.2116140    -0.0000020
  C       -1.4969670    -1.2829160    -0.0000100
  C       -1.1118121     1.0929462    -0.1499910
  C       -2.8761960    -1.0641450    -0.0000080
  C       -2.4886110     1.3169940     0.0000100
  C       -3.3769130     0.2384400     0.0000020
  H        1.0572190    -1.5476170    -0.0000160
  H        1.3709970     1.1847810    -1.3110530
  H        1.4307960    -0.3756260    -2.1343410
  H        1.4307900    -0.3756630     2.1343350
  H        1.3710040     1.1847570     1.3110690
  H        3.7365840     0.8333760    -1.1915700
  H        3.5617080    -0.9139040    -1.1569620
  H        3.5616920    -0.9139530     1.1569300
  H        3.7365940     0.8333230     1.1916040
  H       -1.1121130    -2.3017550    -0.0000190
  H       -0.4349580     1.9454780     0.0000160
  H       -3.5585010    -1.9112830    -0.0000130
  H       -2.8698420     2.3358160     0.0000180
  H       -4.4501080     0.4133470     0.0000030
units angstrom
no_reorient  #important for SAPT in psi4, default
symmetry c1  #important for SAPT in psi4, default
}

set PROPERTIES_ORIGIN ["COM"]
properties('MP2/aug-cc-pvtz', properties = ['dipole'])
--------------------------------------------------------------------------

    Molecular point group: c1
  Charge       = 0
  Multiplicity = 1
  Basis Set: AUG-CC-PVTZ
    Blend: AUG-CC-PVTZ
  Basis Set: (AUG-CC-PVTZ AUX)
    Blend: AUG-CC-PVTZ-JKFIT

    Orbital Energies [Eh]
    ---------------------

    Doubly Occupied:

       1A    -11.239208     2A    -11.235568     3A    -11.234317
       4A    -11.230955     5A    -11.229464     6A    -11.228764
       7A    -11.227532     8A    -11.217180     9A    -11.216746
      10A    -11.216409    11A    -11.215977    12A     -1.155169
      13A     -1.119109    14A     -1.027131    15A     -1.007893
      16A     -0.961174    17A     -0.943928    18A     -0.831563
      19A     -0.815935    20A     -0.772912    21A     -0.761568
      22A     -0.694634    23A     -0.654936    24A     -0.644517
      25A     -0.618656    26A     -0.609297    27A     -0.580435
      28A     -0.572997    29A     -0.562039    30A     -0.524353
      31A     -0.511674    32A     -0.492028    33A     -0.479169
      34A     -0.471766    35A     -0.465703    36A     -0.460186
      37A     -0.453226    38A     -0.452189    39A     -0.332468
      40A     -0.319467

  @DF-RHF Final Energy:  -424.83927132331218

   => Energetics <=

    Nuclear Repulsion Energy =            580.5028476303256184
    One-Electron Energy =               -1725.1077533821435281
    Two-Electron Energy =                 719.7656344285057912
    Total Energy =                       -424.8392713233122322
  Basis Set: (AUG-CC-PVTZ AUX)
    Blend: AUG-CC-PVTZ-RI
    Molecular point group: c1

    Geometry (in Angstrom), charge = 0, multiplicity = 1:

       Center              X                  Y                   Z               Mass
    ------------   -----------------  -----------------  -----------------  -----------------
         C            0.950604859122    -0.456826400769     0.012314598456    12.000000000000
         C            1.716928859122     0.135474599231    -1.178940401544    12.000000000000
         C            1.716928859122     0.135450599231     1.203580598456    12.000000000000
         C            3.194072859122     0.022161599231    -0.764303401544    12.000000000000
         C            3.194070859122     0.022133599231     0.788944598456    12.000000000000
         C           -0.534241140878    -0.208958400769     0.012317598456    12.000000000000
         C           -1.436993140878    -1.280260400769     0.012309598456    12.000000000000
         C           -1.051838240878     1.095601799231    -0.137671401544    12.000000000000
         C           -2.816222140878    -1.061489400769     0.012311598456    12.000000000000
         C           -2.428637140878     1.319649599231     0.012329598456    12.000000000000
         C           -3.316939140878     0.241095599231     0.012321598456    12.000000000000
         H            1.117192859122    -1.544961400769     0.012303598456     1.007825032230
         H            1.430970859122     1.187436599231    -1.298733401544     1.007825032230
         H            1.490769859122    -0.372970400769    -2.122021401544     1.007825032230
         H            1.490763859122    -0.373007400769     2.146654598456     1.007825032230
         H            1.430977859122     1.187412599231     1.323388598456     1.007825032230
         H            3.796557859122     0.836031599231    -1.179250401544     1.007825032230
         H            3.621681859122    -0.911248400769    -1.144642401544     1.007825032230
         H            3.621665859122    -0.911297400769     1.169249598456     1.007825032230
         H            3.796567859122     0.835978599231     1.203923598456     1.007825032230
         H           -1.052139140878    -2.299099400769     0.012300598456     1.007825032230
         H           -0.374984140878     1.948133599231     0.012335598456     1.007825032230
         H           -3.498527140878    -1.908627400769     0.012306598456     1.007825032230
         H           -2.809868140878     2.338471599231     0.012337598456     1.007825032230
         H           -4.390134140878     0.416002599231     0.012322598456     1.007825032230

  Basis Set: AUG-CC-PVTZ
    Blend: AUG-CC-PVTZ
  Basis Set: (AUG-CC-PVTZ AUX)
    Blend: AUG-CC-PVTZ-JKFIT
	 Reference Energy          =    -424.8392713233121754 [Eh]
	 Singles Energy            =      -0.0000000000000000 [Eh]
	 Same-Spin Energy          =      -0.4756115892052841 [Eh]
	 Opposite-Spin Energy      =      -1.5709001846059416 [Eh]
	 Correlation Energy        =      -2.0465117738112255 [Eh]
	 Total Energy              =    -426.8857830971234080 [Eh]

	 ================> DF-SCS-MP2 Energies <==================
	-----------------------------------------------------------
	 SCS Same-Spin Scale       =       0.3333333333333333 [-]
	 SCS Opposite-Spin Scale   =       1.2000000000000000 [-]
	 SCS Same-Spin Energy      =      -0.1585371964017613 [Eh]
	 SCS Opposite-Spin Energy  =      -1.8850802215271298 [Eh]
	 SCS Correlation Energy    =      -2.0436174179288913 [Eh]
	 SCS Total Energy          =    -426.8828887412410609 [Eh]
	-----------------------------------------------------------

  Dipole Moment: [D]
     X:     0.4462      Y:    -0.0698      Z:     0.0814     Total:     0.4589

*** Psi4 exiting successfully. Buy a developer a beer!
