                               Psi4 1.3.2 release

  ==> Input File <==

--------------------------------------------------------------------------
#psi4
#
memory 32 gb

molecule  {
0 1
  C        0.8906310    -0.4594820    -0.0000050
  C        1.6569550     0.1328190    -1.1912600
  C        1.6569550     0.1327950     1.1912610
  C        3.1340990     0.0195060    -0.7766230
  C        3.1340970     0.0194780     0.7766250
  C       -0.5942150    -0.2116140    -0.0000020
  C       -1.4969670    -1.2829160    -0.0000100
  C       -1.1118120     1.0929454    -0.0499910
  C       -2.8761960    -1.0641450    -0.0000080
  C       -2.4886110     1.3169940     0.0000100
  C       -3.3769130     0.2384400     0.0000020
  H        1.0572190    -1.5476170    -0.0000160
  H        1.3709970     1.1847810    -1.3110530
  H        1.4307960    -0.3756260    -2.1343410
  H        1.4307900    -0.3756630     2.1343350
  H        1.3710040     1.1847570     1.3110690
  H        3.7365840     0.8333760    -1.1915700
  H        3.5617080    -0.9139040    -1.1569620
  H        3.5616920    -0.9139530     1.1569300
  H        3.7365940     0.8333230     1.1916040
  H       -1.1121130    -2.3017550    -0.0000190
  H       -0.4349580     1.9454780     0.0000160
  H       -3.5585010    -1.9112830    -0.0000130
  H       -2.8698420     2.3358160     0.0000180
  H       -4.4501080     0.4133470     0.0000030
units angstrom
no_reorient  #important for SAPT in psi4, default
symmetry c1  #important for SAPT in psi4, default
}

set PROPERTIES_ORIGIN ["COM"]
properties('MP2/aug-cc-pvtz', properties = ['dipole'])
--------------------------------------------------------------------------

    Molecular point group: c1
  Charge       = 0
  Multiplicity = 1
  Basis Set: AUG-CC-PVTZ
    Blend: AUG-CC-PVTZ
  Basis Set: (AUG-CC-PVTZ AUX)
    Blend: AUG-CC-PVTZ-JKFIT

    Orbital Energies [Eh]
    ---------------------

    Doubly Occupied:

       1A    -11.237451     2A    -11.233880     3A    -11.233280
       4A    -11.229598     5A    -11.229330     6A    -11.228865
       7A    -11.227440     8A    -11.217028     9A    -11.216798
      10A    -11.216408    11A    -11.216063    12A     -1.155670
      13A     -1.119192    14A     -1.027243    15A     -1.008665
      16A     -0.961176    17A     -0.944079    18A     -0.831753
      19A     -0.816822    20A     -0.772930    21A     -0.762054
      22A     -0.695604    23A     -0.655065    24A     -0.644880
      25A     -0.619792    26A     -0.609486    27A     -0.581427
      28A     -0.573104    29A     -0.562250    30A     -0.525030
      31A     -0.512210    32A     -0.493010    33A     -0.479165
      34A     -0.471753    35A     -0.465465    36A     -0.460980
      37A     -0.453162    38A     -0.452804    39A     -0.332574
      40A     -0.319770

  @DF-RHF Final Energy:  -424.84553749971735

   => Energetics <=

    Nuclear Repulsion Energy =            580.7310404287979964
    One-Electron Energy =               -1725.5666447964306371
    Two-Electron Energy =                 719.9900668679152886
    Total Energy =                       -424.8455374997173521
  Basis Set: (AUG-CC-PVTZ AUX)
    Blend: AUG-CC-PVTZ-RI
    Molecular point group: c1

    Geometry (in Angstrom), charge = 0, multiplicity = 1:

       Center              X                  Y                   Z               Mass
    ------------   -----------------  -----------------  -----------------  -----------------
         C            0.950604850909    -0.456826335065     0.004101582974    12.000000000000
         C            1.716928850909     0.135474664935    -1.187153417026    12.000000000000
         C            1.716928850909     0.135450664935     1.195367582974    12.000000000000
         C            3.194072850909     0.022161664935    -0.772516417026    12.000000000000
         C            3.194070850909     0.022133664935     0.780731582974    12.000000000000
         C           -0.534241149091    -0.208958335065     0.004104582974    12.000000000000
         C           -1.436993149091    -1.280260335065     0.004096582974    12.000000000000
         C           -1.051838149091     1.095601064935    -0.045884417026    12.000000000000
         C           -2.816222149091    -1.061489335065     0.004098582974    12.000000000000
         C           -2.428637149091     1.319649664935     0.004116582974    12.000000000000
         C           -3.316939149091     0.241095664935     0.004108582974    12.000000000000
         H            1.117192850909    -1.544961335065     0.004090582974     1.007825032230
         H            1.430970850909     1.187436664935    -1.306946417026     1.007825032230
         H            1.490769850909    -0.372970335065    -2.130234417026     1.007825032230
         H            1.490763850909    -0.373007335065     2.138441582974     1.007825032230
         H            1.430977850909     1.187412664935     1.315175582974     1.007825032230
         H            3.796557850909     0.836031664935    -1.187463417026     1.007825032230
         H            3.621681850909    -0.911248335065    -1.152855417026     1.007825032230
         H            3.621665850909    -0.911297335065     1.161036582974     1.007825032230
         H            3.796567850909     0.835978664935     1.195710582974     1.007825032230
         H           -1.052139149091    -2.299099335065     0.004087582974     1.007825032230
         H           -0.374984149091     1.948133664935     0.004122582974     1.007825032230
         H           -3.498527149091    -1.908627335065     0.004093582974     1.007825032230
         H           -2.809868149091     2.338471664935     0.004124582974     1.007825032230
         H           -4.390134149091     0.416002664935     0.004109582974     1.007825032230

  Basis Set: AUG-CC-PVTZ
    Blend: AUG-CC-PVTZ
  Basis Set: (AUG-CC-PVTZ AUX)
    Blend: AUG-CC-PVTZ-JKFIT
	 Reference Energy          =    -424.8455374997173521 [Eh]
	 Singles Energy            =      -0.0000000000000000 [Eh]
	 Same-Spin Energy          =      -0.4753005021623023 [Eh]
	 Opposite-Spin Energy      =      -1.5700327326644219 [Eh]
	 Correlation Energy        =      -2.0453332348267241 [Eh]
	 Total Energy              =    -426.8908707345440803 [Eh]

	 ================> DF-SCS-MP2 Energies <==================
	-----------------------------------------------------------
	 SCS Same-Spin Scale       =       0.3333333333333333 [-]
	 SCS Opposite-Spin Scale   =       1.2000000000000000 [-]
	 SCS Same-Spin Energy      =      -0.1584335007207674 [Eh]
	 SCS Opposite-Spin Energy  =      -1.8840392791973062 [Eh]
	 SCS Correlation Energy    =      -2.0424727799180737 [Eh]
	 SCS Total Energy          =    -426.8880102796354095 [Eh]
	-----------------------------------------------------------

  Dipole Moment: [D]
     X:     0.4703      Y:    -0.0383      Z:     0.0267     Total:     0.4726

*** Psi4 exiting successfully. Buy a developer a beer!
