                               Psi4 1.3.2 release

  ==> Input File <==

--------------------------------------------------------------------------
#psi4
#
memory 32 gb

molecule  {
0 1
  C        0.8906310    -0.4594820    -0.0000050
  C        1.6569550     0.1328190    -1.1912600
  C        1.6569550     0.1327950     1.1912610
  C        3.1340990     0.0195060    -0.7766230
  C        3.1340970     0.0194780     0.7766250
  C       -0.5942150    -0.2116140    -0.0000020
  C       -1.4969670    -1.2829160    -0.0000100
  C       -1.1118122     1.0929474    -0.2999910
  C       -2.8761960    -1.0641450    -0.0000080
  C       -2.4886110     1.3169940     0.0000100
  C       -3.3769130     0.2384400     0.0000020
  H        1.0572190    -1.5476170    -0.0000160
  H        1.3709970     1.1847810    -1.3110530
  H        1.4307960    -0.3756260    -2.1343410
  H        1.4307900    -0.3756630     2.1343350
  H        1.3710040     1.1847570     1.3110690
  H        3.7365840     0.8333760    -1.1915700
  H        3.5617080    -0.9139040    -1.1569620
  H        3.5616920    -0.9139530     1.1569300
  H        3.7365940     0.8333230     1.1916040
  H       -1.1121130    -2.3017550    -0.0000190
  H       -0.4349580     1.9454780     0.0000160
  H       -3.5585010    -1.9112830    -0.0000130
  H       -2.8698420     2.3358160     0.0000180
  H       -4.4501080     0.4133470     0.0000030
units angstrom
no_reorient  #important for SAPT in psi4, default
symmetry c1  #important for SAPT in psi4, default
}

set PROPERTIES_ORIGIN ["COM"]
properties('MP2/aug-cc-pvtz', properties = ['dipole'])
--------------------------------------------------------------------------

    Molecular point group: c1
  Charge       = 0
  Multiplicity = 1
  Basis Set: AUG-CC-PVTZ
    Blend: AUG-CC-PVTZ
  Basis Set: (AUG-CC-PVTZ AUX)
    Blend: AUG-CC-PVTZ-JKFIT

    Orbital Energies [Eh]
    ---------------------

    Doubly Occupied:

       1A    -11.244914     2A    -11.241094     3A    -11.237968
       4A    -11.235984     5A    -11.229155     6A    -11.228492
       7A    -11.227852     8A    -11.217587     9A    -11.216800
      10A    -11.216247    11A    -11.215685    12A     -1.153640
      13A     -1.118873    14A     -1.026856    15A     -1.005295
      16A     -0.961152    17A     -0.943354    18A     -0.830948
      19A     -0.813360    20A     -0.772836    21A     -0.760136
      22A     -0.692160    23A     -0.654589    24A     -0.643518
      25A     -0.615065    26A     -0.608944    27A     -0.577320
      28A     -0.572451    29A     -0.561397    30A     -0.521735
      31A     -0.510239    32A     -0.488608    33A     -0.479170
      34A     -0.471733    35A     -0.466015    36A     -0.457895
      37A     -0.453207    38A     -0.449911    39A     -0.332440
      40A     -0.318526

  @DF-RHF Final Energy:  -424.81777664887102

   => Energetics <=

    Nuclear Repulsion Energy =            579.7537260677805762
    One-Electron Energy =               -1723.5966993490915229
    Two-Electron Energy =                 719.0251966324400428
    Total Energy =                       -424.8177766488710176
  Basis Set: (AUG-CC-PVTZ AUX)
    Blend: AUG-CC-PVTZ-RI
    Molecular point group: c1

    Geometry (in Angstrom), charge = 0, multiplicity = 1:

       Center              X                  Y                   Z               Mass
    ------------   -----------------  -----------------  -----------------  -----------------
         C            0.950604867335    -0.456826499325     0.024634121680    12.000000000000
         C            1.716928867335     0.135474500675    -1.166620878320    12.000000000000
         C            1.716928867335     0.135450500675     1.215900121680    12.000000000000
         C            3.194072867335     0.022161500675    -0.751983878320    12.000000000000
         C            3.194070867335     0.022133500675     0.801264121680    12.000000000000
         C           -0.534241132665    -0.208958499325     0.024637121680    12.000000000000
         C           -1.436993132665    -1.280260499325     0.024629121680    12.000000000000
         C           -1.051838332665     1.095602900675    -0.275351878320    12.000000000000
         C           -2.816222132665    -1.061489499325     0.024631121680    12.000000000000
         C           -2.428637132665     1.319649500675     0.024649121680    12.000000000000
         C           -3.316939132665     0.241095500675     0.024641121680    12.000000000000
         H            1.117192867335    -1.544961499325     0.024623121680     1.007825032230
         H            1.430970867335     1.187436500675    -1.286413878320     1.007825032230
         H            1.490769867335    -0.372970499325    -2.109701878320     1.007825032230
         H            1.490763867335    -0.373007499325     2.158974121680     1.007825032230
         H            1.430977867335     1.187412500675     1.335708121680     1.007825032230
         H            3.796557867335     0.836031500675    -1.166930878320     1.007825032230
         H            3.621681867335    -0.911248499325    -1.132322878320     1.007825032230
         H            3.621665867335    -0.911297499325     1.181569121680     1.007825032230
         H            3.796567867335     0.835978500675     1.216243121680     1.007825032230
         H           -1.052139132665    -2.299099499325     0.024620121680     1.007825032230
         H           -0.374984132665     1.948133500675     0.024655121680     1.007825032230
         H           -3.498527132665    -1.908627499325     0.024626121680     1.007825032230
         H           -2.809868132665     2.338471500675     0.024657121680     1.007825032230
         H           -4.390134132665     0.416002500675     0.024642121680     1.007825032230

  Basis Set: AUG-CC-PVTZ
    Blend: AUG-CC-PVTZ
  Basis Set: (AUG-CC-PVTZ AUX)
    Blend: AUG-CC-PVTZ-JKFIT
	 Reference Energy          =    -424.8177766488710176 [Eh]
	 Singles Energy            =      -0.0000000000000000 [Eh]
	 Same-Spin Energy          =      -0.4766043692762359 [Eh]
	 Opposite-Spin Energy      =      -1.5739728620254450 [Eh]
	 Correlation Energy        =      -2.0505772313016810 [Eh]
	 Total Energy              =    -426.8683538801727195 [Eh]

	 ================> DF-SCS-MP2 Energies <==================
	-----------------------------------------------------------
	 SCS Same-Spin Scale       =       0.3333333333333333 [-]
	 SCS Opposite-Spin Scale   =       1.2000000000000000 [-]
	 SCS Same-Spin Energy      =      -0.1588681230920786 [Eh]
	 SCS Opposite-Spin Energy  =      -1.8887674344305339 [Eh]
	 SCS Correlation Energy    =      -2.0476355575226126 [Eh]
	 SCS Total Energy          =    -426.8654122063936143 [Eh]
	-----------------------------------------------------------

  Dipole Moment: [D]
     X:     0.3670      Y:    -0.1736      Z:     0.1701     Total:     0.4402

*** Psi4 exiting successfully. Buy a developer a beer!
