                               Psi4 1.4a3.dev225

  ==> Input File <==

--------------------------------------------------------------------------
#psi4
#
memory 32 gb

molecule  {
-2 1
  P        0.9779190    -0.0071730     0.0036310
  O       -0.6414480     0.5895360    -0.0608370
  O        1.7920134     1.3539003    -0.0283810
  O        1.1203390    -0.8841130    -1.2536930
  O        1.0512740    -0.7793920     1.3338630
  C       -1.6443320    -0.4127400    -0.0031870
  C       -3.0079050     0.2540090    -0.0015060
  H       -1.5542930    -1.0922920    -0.8626040
  H       -1.5171060    -1.0208640     0.9023270
  H       -3.8086770    -0.4913540     0.0489290
  H       -3.1025260     0.9214830     0.8596320
  H       -3.1449030     0.8467680    -0.9102780
units angstrom
no_reorient  #important for SAPT in psi4, default
symmetry c1  #important for SAPT in psi4, default
}

set PROPERTIES_ORIGIN ["COM"]
properties('MP2/aug-cc-pvtz', properties = ['dipole'])
--------------------------------------------------------------------------

    Molecular point group: c1
  Charge       = -2
  Multiplicity = 1
  Basis Set: AUG-CC-PVTZ
    Blend: AUG-CC-PVTZ
  Basis Set: (AUG-CC-PVTZ AUX)
    Blend: AUG-CC-PVTZ-JKFIT

    Orbital Energies [Eh]
    ---------------------

    Doubly Occupied:

       1A    -79.666737     2A    -20.213937     3A    -20.107997
       4A    -20.107962     5A    -20.100307     6A    -10.984001
       7A    -10.974674     8A     -7.180293     9A     -5.079837
      10A     -5.077477    11A     -5.077204    12A     -1.021289
      13A     -0.911929    14A     -0.849144    15A     -0.831155
      16A     -0.744850    17A     -0.555660    18A     -0.392066
      19A     -0.365346    20A     -0.304702    21A     -0.282337
      22A     -0.262920    23A     -0.249885    24A     -0.185360
      25A     -0.180824    26A     -0.161066    27A     -0.118298
      28A     -0.082098    29A     -0.076336    30A     -0.076121
      31A     -0.041761    32A     -0.035918    33A     -0.010807

  @DF-RHF Final Energy:  -719.00525341119760

   => Energetics <=

    Nuclear Repulsion Energy =            407.2349119168493985
    One-Electron Energy =               -1827.8597315634262941
    Two-Electron Energy =                 701.6195662353793523
    Total Energy =                       -719.0052534111976001
  Basis Set: (AUG-CC-PVTZ AUX)
    Blend: AUG-CC-PVTZ-RI
    Molecular point group: c1

    Geometry (in Angstrom), charge = -2, multiplicity = 1:

       Center              X                  Y                   Z               Mass
    ------------   -----------------  -----------------  -----------------  -----------------
         P            0.862019144932    -0.019332825308     0.004036418400    30.973761998420
         O           -0.757347855068     0.577376174692    -0.060431581600    15.994914619570
         O            1.676113544932     1.341740474692    -0.027975581600    15.994914619570
         O            1.004439144932    -0.896272825308    -1.253287581600    15.994914619570
         O            0.935374144932    -0.791551825308     1.334268418400    15.994914619570
         C           -1.760231855068    -0.424899825308    -0.002781581600    12.000000000000
         C           -3.123804855068     0.241849174692    -0.001100581600    12.000000000000
         H           -1.670192855068    -1.104451825308    -0.862198581600     1.007825032230
         H           -1.633005855068    -1.033023825308     0.902732418400     1.007825032230
         H           -3.924576855068    -0.503513825308     0.049334418400     1.007825032230
         H           -3.218425855068     0.909323174692     0.860037418400     1.007825032230
         H           -3.260802855068     0.834608174692    -0.909872581600     1.007825032230

  Basis Set: AUG-CC-PVTZ
    Blend: AUG-CC-PVTZ
  Basis Set: (AUG-CC-PVTZ AUX)
    Blend: AUG-CC-PVTZ-JKFIT
	 Reference Energy          =    -719.0052534111976001 [Eh]
	 Singles Energy            =      -0.0000000000000000 [Eh]
	 Same-Spin Energy          =      -0.4241316114416206 [Eh]
	 Opposite-Spin Energy      =      -1.2455736722096162 [Eh]
	 Correlation Energy        =      -1.6697052836512367 [Eh]
	 Total Energy              =    -720.6749586948487831 [Eh]

	 ================> DF-SCS-MP2 Energies <==================
	-----------------------------------------------------------
	 SCS Same-Spin Scale       =       0.3333333333333333 [-]
	 SCS Opposite-Spin Scale   =       1.2000000000000000 [-]
	 SCS Same-Spin Energy      =      -0.1413772038138735 [Eh]
	 SCS Opposite-Spin Energy  =      -1.4946884066515393 [Eh]
	 SCS Correlation Energy    =      -1.6360656104654128 [Eh]
	 SCS Total Energy          =    -720.6413190216629800 [Eh]
	-----------------------------------------------------------

  Dipole Moment: [D]
     X:    -8.5200      Y:    -0.5009      Z:    -0.0261     Total:     8.5348

*** Psi4 exiting successfully. Buy a developer a beer!
