                               Psi4 1.3.2 release

  ==> Input File <==

--------------------------------------------------------------------------
#psi4
#
memory 32 gb

molecule  {
-2 1
  P        0.9768750    -0.0085140     0.0002390
  O       -0.6411800     0.5927210    -0.0041200
  O        1.7666250     1.3097720    -0.0037790
  O        1.0866210    -0.8364840    -1.2938730
  O        1.0830210    -0.8262340     1.3012490
  C       -1.5017278    -0.2707459    -0.0008083
  C       -3.0065950     0.2536250    -0.0000790
  H       -1.5335210    -1.0590140    -0.8819370
  H       -1.5311640    -1.0543110     0.8844880
  H       -3.8081830    -0.4926330     0.0030840
  H       -3.1205860     0.8863090     0.8845190
  H       -3.1233430     0.8818480    -0.8874810
units angstrom
no_reorient  #important for SAPT in psi4, default
symmetry c1  #important for SAPT in psi4, default
}

set PROPERTIES_ORIGIN ["COM"]
properties('MP2/aug-cc-pvtz', properties = ['dipole'])
--------------------------------------------------------------------------

    Molecular point group: c1
  Charge       = -2
  Multiplicity = 1
  Basis Set: AUG-CC-PVTZ
    Blend: AUG-CC-PVTZ
  Basis Set: (AUG-CC-PVTZ AUX)
    Blend: AUG-CC-PVTZ-JKFIT

    Orbital Energies [Eh]
    ---------------------

    Doubly Occupied:

       1A    -79.670989     2A    -20.230719     3A    -20.112589
       4A    -20.112554     5A    -20.106611     6A    -10.994962
       7A    -10.964486     8A     -7.186181     9A     -5.085906
      10A     -5.083056    11A     -5.082959    12A     -1.120703
      13A     -0.930778    14A     -0.853983    15A     -0.851113
      16A     -0.719458    17A     -0.538265    18A     -0.431913
      19A     -0.361894    20A     -0.327082    21A     -0.300718
      22A     -0.275783    23A     -0.263073    24A     -0.184743
      25A     -0.177961    26A     -0.145328    27A     -0.092229
      28A     -0.089720    29A     -0.086292    30A     -0.084775
      31A     -0.049904    32A     -0.049691    33A     -0.017793

  @DF-RHF Final Energy:  -718.97476224528077

   => Energetics <=

    Nuclear Repulsion Energy =            413.2051614273790392
    One-Electron Energy =               -1839.1914274915886836
    Two-Electron Energy =                 707.0115038189289862
    Total Energy =                       -718.9747622452807718
  Basis Set: (AUG-CC-PVTZ AUX)
    Blend: AUG-CC-PVTZ-RI
    Molecular point group: c1

    Geometry (in Angstrom), charge = -2, multiplicity = 1:

       Center              X                  Y                   Z               Mass
    ------------   -----------------  -----------------  -----------------  -----------------
         P            0.850715649520    -0.028851209874     0.000310909927    30.973761998420
         O           -0.767339350480     0.572383790126    -0.004048090073    15.994914619570
         O            1.640465649520     1.289434790126    -0.003707090073    15.994914619570
         O            0.960461649520    -0.856821209874    -1.293801090073    15.994914619570
         O            0.956861649520    -0.846571209874     1.301320909927    15.994914619570
         C           -1.627887150480    -0.291083109874    -0.000736390073    12.000000000000
         C           -3.132754350480     0.233287790126    -0.000007090073    12.000000000000
         H           -1.659680350480    -1.079351209874    -0.881865090073     1.007825032230
         H           -1.657323350480    -1.074648209874     0.884559909927     1.007825032230
         H           -3.934342350480    -0.512970209874     0.003155909927     1.007825032230
         H           -3.246745350480     0.865971790126     0.884590909927     1.007825032230
         H           -3.249502350480     0.861510790126    -0.887409090073     1.007825032230

  Basis Set: AUG-CC-PVTZ
    Blend: AUG-CC-PVTZ
  Basis Set: (AUG-CC-PVTZ AUX)
    Blend: AUG-CC-PVTZ-JKFIT
	 Reference Energy          =    -718.9747622452807718 [Eh]
	 Singles Energy            =      -0.0000000000000000 [Eh]
	 Same-Spin Energy          =      -0.4243724138691407 [Eh]
	 Opposite-Spin Energy      =      -1.2428923023810041 [Eh]
	 Correlation Energy        =      -1.6672647162501448 [Eh]
	 Total Energy              =    -720.6420269615309735 [Eh]

	 ================> DF-SCS-MP2 Energies <==================
	-----------------------------------------------------------
	 SCS Same-Spin Scale       =       0.3333333333333333 [-]
	 SCS Opposite-Spin Scale   =       1.2000000000000000 [-]
	 SCS Same-Spin Energy      =      -0.1414574712897135 [Eh]
	 SCS Opposite-Spin Energy  =      -1.4914707628572048 [Eh]
	 SCS Correlation Energy    =      -1.6329282341469185 [Eh]
	 SCS Total Energy          =    -720.6076904794276743 [Eh]
	-----------------------------------------------------------

  Dipole Moment: [D]
     X:    -6.9699      Y:     0.3826      Z:    -0.0041     Total:     6.9804

*** Psi4 exiting successfully. Buy a developer a beer!
