                               Psi4 1.3.2 release

  ==> Input File <==

--------------------------------------------------------------------------
#psi4
#
memory 32 gb

molecule  {
-2 1
  P        0.9768750    -0.0085140     0.0002390
  O       -0.6324468     0.5839411    -0.0041100
  O        1.7666250     1.3097720    -0.0037790
  O        1.0866210    -0.8364840    -1.2938730
  O        1.0830210    -0.8262340     1.3012490
  C       -1.6429090    -0.4124060    -0.0002650
  C       -3.0123552     0.2416994    -0.0000415
  H       -1.5335210    -1.0590140    -0.8819370
  H       -1.5311640    -1.0543110     0.8844880
  H       -3.8081830    -0.4926330     0.0030840
  H       -3.1205860     0.8863090     0.8845190
  H       -3.1233430     0.8818480    -0.8874810
units angstrom
no_reorient  #important for SAPT in psi4, default
symmetry c1  #important for SAPT in psi4, default
}

set PROPERTIES_ORIGIN ["COM"]
properties('MP2/aug-cc-pvtz', properties = ['dipole'])
--------------------------------------------------------------------------

    Molecular point group: c1
  Charge       = -2
  Multiplicity = 1
  Basis Set: AUG-CC-PVTZ
    Blend: AUG-CC-PVTZ
  Basis Set: (AUG-CC-PVTZ AUX)
    Blend: AUG-CC-PVTZ-JKFIT

    Orbital Energies [Eh]
    ---------------------

    Doubly Occupied:

       1A    -79.656876     2A    -20.211099     3A    -20.102672
       4A    -20.102647     5A    -20.096660     6A    -10.982397
       7A    -10.974038     8A     -7.171881     9A     -5.071370
      10A     -5.069041    11A     -5.068940    12A     -1.021429
      13A     -0.913213    14A     -0.844478    15A     -0.841177
      16A     -0.744628    17A     -0.554538    18A     -0.391517
      19A     -0.362539    20A     -0.305564    21A     -0.281952
      22A     -0.259961    23A     -0.249238    24A     -0.184989
      25A     -0.181134    26A     -0.160078    27A     -0.116350
      28A     -0.080357    29A     -0.078435    30A     -0.077004
      31A     -0.038677    32A     -0.037863    33A     -0.008797

  @DF-RHF Final Energy:  -719.01044808907170

   => Energetics <=

    Nuclear Repulsion Energy =            409.6185697087241238
    One-Electron Energy =               -1832.7749563640234101
    Two-Electron Energy =                 704.1459385662275281
    Total Energy =                       -719.0104480890717014
  Basis Set: (AUG-CC-PVTZ AUX)
    Blend: AUG-CC-PVTZ-RI
    Molecular point group: c1

    Geometry (in Angstrom), charge = -2, multiplicity = 1:

       Center              X                  Y                   Z               Mass
    ------------   -----------------  -----------------  -----------------  -----------------
         P            0.863810065828    -0.012854585717     0.000253410106    30.973761998420
         O           -0.745511734172     0.579600514283    -0.004095589894    15.994914619570
         O            1.653560065828     1.305431414283    -0.003764589894    15.994914619570
         O            0.973556065828    -0.840824585717    -1.293858589894    15.994914619570
         O            0.969956065828    -0.830574585717     1.301263410106    15.994914619570
         C           -1.755973934172    -0.416746585717    -0.000250589894    12.000000000000
         C           -3.125420134172     0.237358814283    -0.000027089894    12.000000000000
         H           -1.646585934172    -1.063354585717    -0.881922589894     1.007825032230
         H           -1.644228934172    -1.058651585717     0.884502410106     1.007825032230
         H           -3.921247934172    -0.496973585717     0.003098410106     1.007825032230
         H           -3.233650934172     0.881968414283     0.884533410106     1.007825032230
         H           -3.236407934172     0.877507414283    -0.887466589894     1.007825032230

  Basis Set: AUG-CC-PVTZ
    Blend: AUG-CC-PVTZ
  Basis Set: (AUG-CC-PVTZ AUX)
    Blend: AUG-CC-PVTZ-JKFIT
	 Reference Energy          =    -719.0104480890717014 [Eh]
	 Singles Energy            =      -0.0000000000000000 [Eh]
	 Same-Spin Energy          =      -0.4232370100756488 [Eh]
	 Opposite-Spin Energy      =      -1.2430600505318636 [Eh]
	 Correlation Energy        =      -1.6662970606075125 [Eh]
	 Total Energy              =    -720.6767451496791637 [Eh]

	 ================> DF-SCS-MP2 Energies <==================
	-----------------------------------------------------------
	 SCS Same-Spin Scale       =       0.3333333333333333 [-]
	 SCS Opposite-Spin Scale   =       1.2000000000000000 [-]
	 SCS Same-Spin Energy      =      -0.1410790033585496 [Eh]
	 SCS Opposite-Spin Energy  =      -1.4916720606382363 [Eh]
	 SCS Correlation Energy    =      -1.6327510639967859 [Eh]
	 SCS Total Energy          =    -720.6431991530685082 [Eh]
	-----------------------------------------------------------

  Dipole Moment: [D]
     X:    -8.3871      Y:    -0.1970      Z:    -0.0031     Total:     8.3894

*** Psi4 exiting successfully. Buy a developer a beer!
