                               Psi4 1.3.2 release

  ==> Input File <==

--------------------------------------------------------------------------
#psi4
#
memory 32 gb

molecule  {
-2 1
  P        0.9768750    -0.0085140     0.0002390
  O       -0.6461308     0.5788329     0.0221522
  O        1.7666250     1.3097720    -0.0037790
  O        1.0866210    -0.8364840    -1.2938730
  O        1.0574500    -0.8201454     1.3068844
  C       -1.6429090    -0.4124060    -0.0002650
  C       -3.0065950     0.2536250    -0.0000790
  H       -1.5335210    -1.0590140    -0.8819370
  H       -1.5311640    -1.0543110     0.8844880
  H       -3.8081830    -0.4926330     0.0030840
  H       -3.1205860     0.8863090     0.8845190
  H       -3.1233430     0.8818480    -0.8874810
units angstrom
no_reorient  #important for SAPT in psi4, default
symmetry c1  #important for SAPT in psi4, default
}

set PROPERTIES_ORIGIN ["COM"]
properties('MP2/aug-cc-pvtz', properties = ['dipole'])
--------------------------------------------------------------------------

    Molecular point group: c1
  Charge       = -2
  Multiplicity = 1
  Basis Set: AUG-CC-PVTZ
    Blend: AUG-CC-PVTZ
  Basis Set: (AUG-CC-PVTZ AUX)
    Blend: AUG-CC-PVTZ-JKFIT

    Orbital Energies [Eh]
    ---------------------

    Doubly Occupied:

       1A    -79.658617     2A    -20.208272     3A    -20.105584
       4A    -20.102570     5A    -20.098979     6A    -10.979493
       7A    -10.971905     8A     -7.173493     9A     -5.072985
      10A     -5.070651    11A     -5.070525    12A     -1.022302
      13A     -0.915023    14A     -0.846098    15A     -0.842832
      16A     -0.741561    17A     -0.552140    18A     -0.390471
      19A     -0.363063    20A     -0.301753    21A     -0.281346
      22A     -0.261001    23A     -0.249590    24A     -0.185219
      25A     -0.180255    26A     -0.160719    27A     -0.114251
      28A     -0.081081    29A     -0.079111    30A     -0.078246
      31A     -0.040959    32A     -0.038938    33A     -0.010559

  @DF-RHF Final Energy:  -719.01114251049785

   => Energetics <=

    Nuclear Repulsion Energy =            409.7230882573246618
    One-Electron Energy =               -1832.9692756355741494
    Two-Electron Energy =                 704.2350448677516397
    Total Energy =                       -719.0111425104978480
  Basis Set: (AUG-CC-PVTZ AUX)
    Blend: AUG-CC-PVTZ-RI
    Molecular point group: c1

    Geometry (in Angstrom), charge = -2, multiplicity = 1:

       Center              X                  Y                   Z               Mass
    ------------   -----------------  -----------------  -----------------  -----------------
         P            0.868316449422    -0.014135216044    -0.003857719203    30.973761998420
         O           -0.754689350578     0.573211683956     0.018055480797    15.994914619570
         O            1.658066449422     1.304150783956    -0.007875719203    15.994914619570
         O            0.978062449422    -0.842105216044    -1.297969719203    15.994914619570
         O            0.948891449422    -0.825766616044     1.302787680797    15.994914619570
         C           -1.751467550578    -0.418027216044    -0.004361719203    12.000000000000
         C           -3.115153550578     0.248003783956    -0.004175719203    12.000000000000
         H           -1.642079550578    -1.064635216044    -0.886033719203     1.007825032230
         H           -1.639722550578    -1.059932216044     0.880391280797     1.007825032230
         H           -3.916741550578    -0.498254216044    -0.001012719203     1.007825032230
         H           -3.229144550578     0.880687783956     0.880422280797     1.007825032230
         H           -3.231901550578     0.876226783956    -0.891577719203     1.007825032230

  Basis Set: AUG-CC-PVTZ
    Blend: AUG-CC-PVTZ
  Basis Set: (AUG-CC-PVTZ AUX)
    Blend: AUG-CC-PVTZ-JKFIT
	 Reference Energy          =    -719.0111425104978480 [Eh]
	 Singles Energy            =      -0.0000000000000000 [Eh]
	 Same-Spin Energy          =      -0.4233273786094930 [Eh]
	 Opposite-Spin Energy      =      -1.2430900747709750 [Eh]
	 Correlation Energy        =      -1.6664174533804681 [Eh]
	 Total Energy              =    -720.6775599638783660 [Eh]

	 ================> DF-SCS-MP2 Energies <==================
	-----------------------------------------------------------
	 SCS Same-Spin Scale       =       0.3333333333333333 [-]
	 SCS Opposite-Spin Scale   =       1.2000000000000000 [-]
	 SCS Same-Spin Energy      =      -0.1411091262031643 [Eh]
	 SCS Opposite-Spin Energy  =      -1.4917080897251700 [Eh]
	 SCS Correlation Energy    =      -1.6328172159283343 [Eh]
	 SCS Total Energy          =    -720.6439597264261465 [Eh]
	-----------------------------------------------------------

  Dipole Moment: [D]
     X:    -8.1792      Y:    -0.1721      Z:    -0.0549     Total:     8.1812

*** Psi4 exiting successfully. Buy a developer a beer!
