                               Psi4 1.3.2 release

  ==> Input File <==

--------------------------------------------------------------------------
#psi4
#
memory 32 gb

molecule  {
-2 1
  P        0.9768750    -0.0085140     0.0002390
  O       -0.6304404     0.6208683    -0.0042136
  O        1.7434974     1.3233541    -0.0038603
  O        1.0866210    -0.8364840    -1.2938730
  O        1.0830210    -0.8262340     1.3012490
  C       -1.6429090    -0.4124060    -0.0002650
  C       -3.0065950     0.2536250    -0.0000790
  H       -1.5335210    -1.0590140    -0.8819370
  H       -1.5311640    -1.0543110     0.8844880
  H       -3.8081830    -0.4926330     0.0030840
  H       -3.1205860     0.8863090     0.8845190
  H       -3.1233430     0.8818480    -0.8874810
units angstrom
no_reorient  #important for SAPT in psi4, default
symmetry c1  #important for SAPT in psi4, default
}

set PROPERTIES_ORIGIN ["COM"]
properties('MP2/aug-cc-pvtz', properties = ['dipole'])
--------------------------------------------------------------------------

    Molecular point group: c1
  Charge       = -2
  Multiplicity = 1
  Basis Set: AUG-CC-PVTZ
    Blend: AUG-CC-PVTZ
  Basis Set: (AUG-CC-PVTZ AUX)
    Blend: AUG-CC-PVTZ-JKFIT

    Orbital Energies [Eh]
    ---------------------

    Doubly Occupied:

       1A    -79.657113     2A    -20.211156     3A    -20.104625
       4A    -20.104596     5A    -20.094984     6A    -10.982911
       7A    -10.973651     8A     -7.172085     9A     -5.071561
      10A     -5.069203    11A     -5.069160    12A     -1.011049
      13A     -0.912067    14A     -0.845922    15A     -0.841155
      16A     -0.743920    17A     -0.553924    18A     -0.384494
      19A     -0.361942    20A     -0.303190    21A     -0.275878
      22A     -0.258586    23A     -0.245588    24A     -0.186002
      25A     -0.181348    26A     -0.161689    27A     -0.117248
      28A     -0.079931    29A     -0.078921    30A     -0.077131
      31A     -0.039318    32A     -0.038085    33A     -0.009616

  @DF-RHF Final Energy:  -719.00755808015924

   => Energetics <=

    Nuclear Repulsion Energy =            408.9825911112354220
    One-Electron Energy =               -1831.5442012863306900
    Two-Electron Energy =                 703.5540520949359689
    Total Energy =                       -719.0075580801592423
  Basis Set: (AUG-CC-PVTZ AUX)
    Blend: AUG-CC-PVTZ-RI
    Molecular point group: c1

    Geometry (in Angstrom), charge = -2, multiplicity = 1:

       Center              X                  Y                   Z               Mass
    ------------   -----------------  -----------------  -----------------  -----------------
         P            0.865977207323    -0.020524394705     0.000280891272    30.973761998420
         O           -0.741338192677     0.608857905295    -0.004171708728    15.994914619570
         O            1.632599607323     1.311343705295    -0.003818408728    15.994914619570
         O            0.975723207323    -0.848494394705    -1.293831108728    15.994914619570
         O            0.972123207323    -0.838244394705     1.301290891272    15.994914619570
         C           -1.753806792677    -0.424416394705    -0.000223108728    12.000000000000
         C           -3.117492792677     0.241614605295    -0.000037108728    12.000000000000
         H           -1.644418792677    -1.071024394705    -0.881895108728     1.007825032230
         H           -1.642061792677    -1.066321394705     0.884529891272     1.007825032230
         H           -3.919080792677    -0.504643394705     0.003125891272     1.007825032230
         H           -3.231483792677     0.874298605295     0.884560891272     1.007825032230
         H           -3.234240792677     0.869837605295    -0.887439108728     1.007825032230

  Basis Set: AUG-CC-PVTZ
    Blend: AUG-CC-PVTZ
  Basis Set: (AUG-CC-PVTZ AUX)
    Blend: AUG-CC-PVTZ-JKFIT
	 Reference Energy          =    -719.0075580801592423 [Eh]
	 Singles Energy            =      -0.0000000000000000 [Eh]
	 Same-Spin Energy          =      -0.4236292424550405 [Eh]
	 Opposite-Spin Energy      =      -1.2444211335582946 [Eh]
	 Correlation Energy        =      -1.6680503760133352 [Eh]
	 Total Energy              =    -720.6756084561725402 [Eh]

	 ================> DF-SCS-MP2 Energies <==================
	-----------------------------------------------------------
	 SCS Same-Spin Scale       =       0.3333333333333333 [-]
	 SCS Opposite-Spin Scale   =       1.2000000000000000 [-]
	 SCS Same-Spin Energy      =      -0.1412097474850135 [Eh]
	 SCS Opposite-Spin Energy  =      -1.4933053602699535 [Eh]
	 SCS Correlation Energy    =      -1.6345151077549671 [Eh]
	 SCS Total Energy          =    -720.6420731879142068 [Eh]
	-----------------------------------------------------------

  Dipole Moment: [D]
     X:    -8.3211      Y:    -0.2943      Z:    -0.0028     Total:     8.3263

*** Psi4 exiting successfully. Buy a developer a beer!
