                               Psi4 1.3.2 release

  ==> Input File <==

--------------------------------------------------------------------------
#psi4
#
memory 32 gb

molecule  {
-2 1
  P        0.9768750    -0.0085140     0.0002390
  O       -0.7349176     0.6275519    -0.0043725
  O        1.7666250     1.3097720    -0.0037790
  O        1.0866210    -0.8364840    -1.2938730
  O        1.0830210    -0.8262340     1.3012490
  C       -1.6429090    -0.4124060    -0.0002650
  C       -3.0065950     0.2536250    -0.0000790
  H       -1.5335210    -1.0590140    -0.8819370
  H       -1.5311640    -1.0543110     0.8844880
  H       -3.8081830    -0.4926330     0.0030840
  H       -3.1205860     0.8863090     0.8845190
  H       -3.1233430     0.8818480    -0.8874810
units angstrom
no_reorient  #important for SAPT in psi4, default
symmetry c1  #important for SAPT in psi4, default
}

set PROPERTIES_ORIGIN ["COM"]
properties('MP2/aug-cc-pvtz', properties = ['dipole'])
--------------------------------------------------------------------------

    Molecular point group: c1
  Charge       = -2
  Multiplicity = 1
  Basis Set: AUG-CC-PVTZ
    Blend: AUG-CC-PVTZ
  Basis Set: (AUG-CC-PVTZ AUX)
    Blend: AUG-CC-PVTZ-JKFIT

    Orbital Energies [Eh]
    ---------------------

    Doubly Occupied:

       1A    -79.668792     2A    -20.206109     3A    -20.113047
       4A    -20.113018     5A    -20.105464     6A    -10.972199
       7A    -10.963915     8A     -7.183084     9A     -5.082444
      10A     -5.080057    11A     -5.080008    12A     -1.016183
      13A     -0.924641    14A     -0.853012    15A     -0.848811
      16A     -0.730673    17A     -0.543348    18A     -0.383168
      19A     -0.359564    20A     -0.298144    21A     -0.274771
      22A     -0.254348    23A     -0.249668    24A     -0.187292
      25A     -0.177741    26A     -0.168441    27A     -0.109093
      28A     -0.086619    29A     -0.084360    30A     -0.079944
      31A     -0.047926    32A     -0.047563    33A     -0.017372

  @DF-RHF Final Energy:  -719.00508413717580

   => Energetics <=

    Nuclear Repulsion Energy =            407.1605663587306481
    One-Electron Energy =               -1827.7096679516589575
    Two-Electron Energy =                 701.5440174557525097
    Total Energy =                       -719.0050841371757997
  Basis Set: (AUG-CC-PVTZ AUX)
    Blend: AUG-CC-PVTZ-RI
    Molecular point group: c1

    Geometry (in Angstrom), charge = -2, multiplicity = 1:

       Center              X                  Y                   Z               Mass
    ------------   -----------------  -----------------  -----------------  -----------------
         P            0.876471224521    -0.019634495091     0.000290901595    30.973761998420
         O           -0.835321375479     0.616431404909    -0.004320598405    15.994914619570
         O            1.666221224521     1.298651504909    -0.003727098405    15.994914619570
         O            0.986217224521    -0.847604495091    -1.293821098405    15.994914619570
         O            0.982617224521    -0.837354495091     1.301300901595    15.994914619570
         C           -1.743312775479    -0.423526495091    -0.000213098405    12.000000000000
         C           -3.106998775479     0.242504504909    -0.000027098405    12.000000000000
         H           -1.633924775479    -1.070134495091    -0.881885098405     1.007825032230
         H           -1.631567775479    -1.065431495091     0.884539901595     1.007825032230
         H           -3.908586775479    -0.503753495091     0.003135901595     1.007825032230
         H           -3.220989775479     0.875188504909     0.884570901595     1.007825032230
         H           -3.223746775479     0.870727504909    -0.887429098405     1.007825032230

  Basis Set: AUG-CC-PVTZ
    Blend: AUG-CC-PVTZ
  Basis Set: (AUG-CC-PVTZ AUX)
    Blend: AUG-CC-PVTZ-JKFIT
	 Reference Energy          =    -719.0050841371757997 [Eh]
	 Singles Energy            =      -0.0000000000000000 [Eh]
	 Same-Spin Energy          =      -0.4244551502955844 [Eh]
	 Opposite-Spin Energy      =      -1.2457098909560176 [Eh]
	 Correlation Energy        =      -1.6701650412516020 [Eh]
	 Total Energy              =    -720.6752491784274071 [Eh]

	 ================> DF-SCS-MP2 Energies <==================
	-----------------------------------------------------------
	 SCS Same-Spin Scale       =       0.3333333333333333 [-]
	 SCS Opposite-Spin Scale   =       1.2000000000000000 [-]
	 SCS Same-Spin Energy      =      -0.1414850500985281 [Eh]
	 SCS Opposite-Spin Energy  =      -1.4948518691472210 [Eh]
	 SCS Correlation Energy    =      -1.6363369192457491 [Eh]
	 SCS Total Energy          =    -720.6414210564215637 [Eh]
	-----------------------------------------------------------

  Dipole Moment: [D]
     X:    -7.5134      Y:    -0.2849      Z:    -0.0022     Total:     7.5188

*** Psi4 exiting successfully. Buy a developer a beer!
