                               Psi4 1.3.2 release

  ==> Input File <==

--------------------------------------------------------------------------
#psi4
#
memory 32 gb

molecule  {
-2 1
  P        0.9768750    -0.0085140     0.0002390
  O       -0.6237906     0.5750853    -0.0040996
  O        1.7666250     1.3097720    -0.0037790
  O        1.0866210    -0.8364840    -1.2938730
  O        1.0830210    -0.8262340     1.3012490
  C       -1.6429090    -0.4124060    -0.0002650
  C       -3.0180111     0.2297240    -0.0000041
  H       -1.5335210    -1.0590140    -0.8819370
  H       -1.5311640    -1.0543110     0.8844880
  H       -3.8081830    -0.4926330     0.0030840
  H       -3.1205860     0.8863090     0.8845190
  H       -3.1233430     0.8818480    -0.8874810
units angstrom
no_reorient  #important for SAPT in psi4, default
symmetry c1  #important for SAPT in psi4, default
}

set PROPERTIES_ORIGIN ["COM"]
properties('MP2/aug-cc-pvtz', properties = ['dipole'])
--------------------------------------------------------------------------

    Molecular point group: c1
  Charge       = -2
  Multiplicity = 1
  Basis Set: AUG-CC-PVTZ
    Blend: AUG-CC-PVTZ
  Basis Set: (AUG-CC-PVTZ AUX)
    Blend: AUG-CC-PVTZ-JKFIT

    Orbital Energies [Eh]
    ---------------------

    Doubly Occupied:

       1A    -79.655812     2A    -20.211449     3A    -20.101602
       4A    -20.101578     5A    -20.096151     6A    -10.983237
       7A    -10.974999     8A     -7.170919     9A     -5.070435
      10A     -5.068088    11A     -5.067979    12A     -1.023492
      13A     -0.912323    14A     -0.843628    15A     -0.840616
      16A     -0.746170    17A     -0.555625    18A     -0.393691
      19A     -0.361678    20A     -0.308728    21A     -0.283864
      22A     -0.258874    23A     -0.249486    24A     -0.184792
      25A     -0.181405    26A     -0.158869    27A     -0.116594
      28A     -0.080418    29A     -0.077684    30A     -0.076385
      31A     -0.037982    32A     -0.036844    33A     -0.008039

  @DF-RHF Final Energy:  -719.00992518810142

   => Energetics <=

    Nuclear Repulsion Energy =            409.9057154602083983
    One-Electron Energy =               -1833.3524107060488859
    Two-Electron Energy =                 704.4367700577391815
    Total Energy =                       -719.0099251881014197
  Basis Set: (AUG-CC-PVTZ AUX)
    Blend: AUG-CC-PVTZ-RI
    Molecular point group: c1

    Geometry (in Angstrom), charge = -2, multiplicity = 1:

       Center              X                  Y                   Z               Mass
    ------------   -----------------  -----------------  -----------------  -----------------
         P            0.863240802736    -0.010553217006     0.000248448944    30.973761998420
         O           -0.737424797264     0.573046082994    -0.004090151056    15.994914619570
         O            1.652990802736     1.307732782994    -0.003769551056    15.994914619570
         O            0.972986802736    -0.838523217006    -1.293863551056    15.994914619570
         O            0.969386802736    -0.828273217006     1.301258448944    15.994914619570
         C           -1.756543197264    -0.414445217006    -0.000255551056    12.000000000000
         C           -3.131645297264     0.227684782994     0.000005348944    12.000000000000
         H           -1.647155197264    -1.061053217006    -0.881927551056     1.007825032230
         H           -1.644798197264    -1.056350217006     0.884497448944     1.007825032230
         H           -3.921817197264    -0.494672217006     0.003093448944     1.007825032230
         H           -3.234220197264     0.884269782994     0.884528448944     1.007825032230
         H           -3.236977197264     0.879808782994    -0.887471551056     1.007825032230

  Basis Set: AUG-CC-PVTZ
    Blend: AUG-CC-PVTZ
  Basis Set: (AUG-CC-PVTZ AUX)
    Blend: AUG-CC-PVTZ-JKFIT
	 Reference Energy          =    -719.0099251881014197 [Eh]
	 Singles Energy            =      -0.0000000000000000 [Eh]
	 Same-Spin Energy          =      -0.4231246184067445 [Eh]
	 Opposite-Spin Energy      =      -1.2427253235750317 [Eh]
	 Correlation Energy        =      -1.6658499419817763 [Eh]
	 Total Energy              =    -720.6757751300832524 [Eh]

	 ================> DF-SCS-MP2 Energies <==================
	-----------------------------------------------------------
	 SCS Same-Spin Scale       =       0.3333333333333333 [-]
	 SCS Opposite-Spin Scale   =       1.2000000000000000 [-]
	 SCS Same-Spin Energy      =      -0.1410415394689148 [Eh]
	 SCS Opposite-Spin Energy  =      -1.4912703882900380 [Eh]
	 SCS Correlation Energy    =      -1.6323119277589528 [Eh]
	 SCS Total Energy          =    -720.6422371158603255 [Eh]
	-----------------------------------------------------------

  Dipole Moment: [D]
     X:    -8.4691      Y:    -0.1977      Z:    -0.0031     Total:     8.4714

*** Psi4 exiting successfully. Buy a developer a beer!
