                               Psi4 1.4a3.dev225

  ==> Input File <==

--------------------------------------------------------------------------
#psi4
#
memory 32 gb

molecule  {
-2 1
  P        0.9779190    -0.0071730     0.0036310
  O       -0.6883315     0.6068118    -0.0627035
  O        1.7663530     1.3109990    -0.0273720
  O        1.1203390    -0.8841130    -1.2536930
  O        1.0512740    -0.7793920     1.3338630
  C       -1.6443320    -0.4127400    -0.0031870
  C       -3.0079050     0.2540090    -0.0015060
  H       -1.5542930    -1.0922920    -0.8626040
  H       -1.5171060    -1.0208640     0.9023270
  H       -3.8086770    -0.4913540     0.0489290
  H       -3.1025260     0.9214830     0.8596320
  H       -3.1449030     0.8467680    -0.9102780
units angstrom
no_reorient  #important for SAPT in psi4, default
symmetry c1  #important for SAPT in psi4, default
}

set PROPERTIES_ORIGIN ["COM"]
properties('MP2/aug-cc-pvtz', properties = ['dipole'])
--------------------------------------------------------------------------

    Molecular point group: c1
  Charge       = -2
  Multiplicity = 1
  Basis Set: AUG-CC-PVTZ
    Blend: AUG-CC-PVTZ
  Basis Set: (AUG-CC-PVTZ AUX)
    Blend: AUG-CC-PVTZ-JKFIT

    Orbital Energies [Eh]
    ---------------------

    Doubly Occupied:

       1A    -79.663389     2A    -20.208569     3A    -20.108116
       4A    -20.108081     5A    -20.101780     6A    -10.976749
       7A    -10.968500     8A     -7.177953     9A     -5.077347
      10A     -5.075020    11A     -5.074961    12A     -1.017047
      13A     -0.919707    14A     -0.848990    15A     -0.845747
      16A     -0.736872    17A     -0.548214    18A     -0.386141
      19A     -0.361368    20A     -0.300125    21A     -0.276975
      22A     -0.257638    23A     -0.249697    24A     -0.185757
      25A     -0.178590    26A     -0.165521    27A     -0.112780
      28A     -0.083348    29A     -0.081042    30A     -0.080299
      31A     -0.044029    32A     -0.043134    33A     -0.013496

  @DF-RHF Final Energy:  -719.00909800091733

   => Energetics <=

    Nuclear Repulsion Energy =            408.1804195888569780
    One-Electron Energy =               -1829.8250676665779793
    Two-Electron Energy =                 702.6355500768037246
    Total Energy =                       -719.0090980009173336
  Basis Set: (AUG-CC-PVTZ AUX)
    Blend: AUG-CC-PVTZ-RI
    Molecular point group: c1

    Geometry (in Angstrom), charge = -2, multiplicity = 1:

       Center              X                  Y                   Z               Mass
    ------------   -----------------  -----------------  -----------------  -----------------
         P            0.871377235619    -0.016027161387     0.004147035044    30.973761998420
         O           -0.794873264381     0.597957638613    -0.062187464956    15.994914619570
         O            1.659811235619     1.302144838613    -0.026855964956    15.994914619570
         O            1.013797235619    -0.892967161387    -1.253176964956    15.994914619570
         O            0.944732235619    -0.788246161387     1.334379035044    15.994914619570
         C           -1.750873764381    -0.421594161387    -0.002670964956    12.000000000000
         C           -3.114446764381     0.245154838613    -0.000989964956    12.000000000000
         H           -1.660834764381    -1.101146161387    -0.862087964956     1.007825032230
         H           -1.623647764381    -1.029718161387     0.902843035044     1.007825032230
         H           -3.915218764381    -0.500208161387     0.049445035044     1.007825032230
         H           -3.209067764381     0.912628838613     0.860148035044     1.007825032230
         H           -3.251444764381     0.837913838613    -0.909761964956     1.007825032230

  Basis Set: AUG-CC-PVTZ
    Blend: AUG-CC-PVTZ
  Basis Set: (AUG-CC-PVTZ AUX)
    Blend: AUG-CC-PVTZ-JKFIT
	 Reference Energy          =    -719.0090980009173336 [Eh]
	 Singles Energy            =      -0.0000000000000000 [Eh]
	 Same-Spin Energy          =      -0.4238290212411637 [Eh]
	 Opposite-Spin Energy      =      -1.2444241075141980 [Eh]
	 Correlation Energy        =      -1.6682531287553617 [Eh]
	 Total Energy              =    -720.6773511296727293 [Eh]

	 ================> DF-SCS-MP2 Energies <==================
	-----------------------------------------------------------
	 SCS Same-Spin Scale       =       0.3333333333333333 [-]
	 SCS Opposite-Spin Scale   =       1.2000000000000000 [-]
	 SCS Same-Spin Energy      =      -0.1412763404137212 [Eh]
	 SCS Opposite-Spin Energy  =      -1.4933089290170376 [Eh]
	 SCS Correlation Energy    =      -1.6345852694307588 [Eh]
	 SCS Total Energy          =    -720.6436832703481059 [Eh]
	-----------------------------------------------------------

  Dipole Moment: [D]
     X:    -7.8992      Y:    -0.2316      Z:    -0.0267     Total:     7.9026

*** Psi4 exiting successfully. Buy a developer a beer!
