                               Psi4 1.3.2 release

  ==> Input File <==

--------------------------------------------------------------------------
#psi4
#
memory 32 gb

molecule  {
-2 1
  P        0.9968726     0.0483210    -0.0000129
  O       -0.6411800     0.5927210    -0.0041200
  O        1.7666250     1.3097720    -0.0037790
  O        1.0866210    -0.8364840    -1.2938730
  O        1.0830210    -0.8262340     1.3012490
  C       -1.6773774    -0.3768344    -0.0004662
  C       -3.0065950     0.2536250    -0.0000790
  H       -1.5335210    -1.0590140    -0.8819370
  H       -1.5311640    -1.0543110     0.8844880
  H       -3.8081830    -0.4926330     0.0030840
  H       -3.1205860     0.8863090     0.8845190
  H       -3.1233430     0.8818480    -0.8874810
units angstrom
no_reorient  #important for SAPT in psi4, default
symmetry c1  #important for SAPT in psi4, default
}

set PROPERTIES_ORIGIN ["COM"]
properties('MP2/aug-cc-pvtz', properties = ['dipole'])
--------------------------------------------------------------------------

    Molecular point group: c1
  Charge       = -2
  Multiplicity = 1
  Basis Set: AUG-CC-PVTZ
    Blend: AUG-CC-PVTZ
  Basis Set: (AUG-CC-PVTZ AUX)
    Blend: AUG-CC-PVTZ-JKFIT

    Orbital Energies [Eh]
    ---------------------

    Doubly Occupied:

       1A    -79.657803     2A    -20.208119     3A    -20.109312
       4A    -20.097845     5A    -20.097801     6A    -10.981646
       7A    -10.972457     8A     -7.173037     9A     -5.072459
      10A     -5.070536    11A     -5.069746    12A     -1.017038
      13A     -0.922777    14A     -0.851873    15A     -0.827978
      16A     -0.753214    17A     -0.546704    18A     -0.390959
      19A     -0.362261    20A     -0.302635    21A     -0.292006
      22A     -0.253338    23A     -0.247018    24A     -0.188138
      25A     -0.181776    26A     -0.157331    27A     -0.109135
      28A     -0.091669    29A     -0.077349    30A     -0.071361
      31A     -0.046184    32A     -0.029926    33A     -0.007329

  @DF-RHF Final Energy:  -719.00335701238419

   => Energetics <=

    Nuclear Repulsion Energy =            409.0318490763521027
    One-Electron Energy =               -1831.5928857626017816
    Two-Electron Energy =                 703.5576796738655503
    Total Energy =                       -719.0033570123841855
  Basis Set: (AUG-CC-PVTZ AUX)
    Blend: AUG-CC-PVTZ-RI
    Molecular point group: c1

    Geometry (in Angstrom), charge = -2, multiplicity = 1:

       Center              X                  Y                   Z               Mass
    ------------   -----------------  -----------------  -----------------  -----------------
         P            0.882717150960     0.024053458987     0.000088826967    30.973761998420
         O           -0.755335449040     0.568453458987    -0.004018273033    15.994914619570
         O            1.652469550960     1.285504458987    -0.003677273033    15.994914619570
         O            0.972465550960    -0.860751541013    -1.293771273033    15.994914619570
         O            0.968865550960    -0.850501541013     1.301350726967    15.994914619570
         C           -1.791532849040    -0.401101941013    -0.000364473033    12.000000000000
         C           -3.120750449040     0.229357458987     0.000022726967    12.000000000000
         H           -1.647676449040    -1.083281541013    -0.881835273033     1.007825032230
         H           -1.645319449040    -1.078578541013     0.884589726967     1.007825032230
         H           -3.922338449040    -0.516900541013     0.003185726967     1.007825032230
         H           -3.234741449040     0.862041458987     0.884620726967     1.007825032230
         H           -3.237498449040     0.857580458987    -0.887379273033     1.007825032230

  Basis Set: AUG-CC-PVTZ
    Blend: AUG-CC-PVTZ
  Basis Set: (AUG-CC-PVTZ AUX)
    Blend: AUG-CC-PVTZ-JKFIT
	 Reference Energy          =    -719.0033570123841855 [Eh]
	 Singles Energy            =      -0.0000000000000000 [Eh]
	 Same-Spin Energy          =      -0.4236166175062319 [Eh]
	 Opposite-Spin Energy      =      -1.2435620476780722 [Eh]
	 Correlation Energy        =      -1.6671786651843041 [Eh]
	 Total Energy              =    -720.6705356775685232 [Eh]

	 ================> DF-SCS-MP2 Energies <==================
	-----------------------------------------------------------
	 SCS Same-Spin Scale       =       0.3333333333333333 [-]
	 SCS Opposite-Spin Scale   =       1.2000000000000000 [-]
	 SCS Same-Spin Energy      =      -0.1412055391687440 [Eh]
	 SCS Opposite-Spin Energy  =      -1.4922744572136866 [Eh]
	 SCS Correlation Energy    =      -1.6334799963824305 [Eh]
	 SCS Total Energy          =    -720.6368370087666335 [Eh]
	-----------------------------------------------------------

  Dipole Moment: [D]
     X:    -8.1057      Y:     0.6488      Z:    -0.0067     Total:     8.1316

*** Psi4 exiting successfully. Buy a developer a beer!
