                               Psi4 1.4a3.dev225

  ==> Input File <==

--------------------------------------------------------------------------
#psi4
#
memory 32 gb

molecule  {
-2 1
  P        0.9779190    -0.0071730     0.0036310
  O       -0.6414480     0.5895360    -0.0608370
  O        1.7663530     1.3109990    -0.0273720
  O        1.1203390    -0.8841130    -1.2536930
  O        1.0512740    -0.7793920     1.3338630
  C       -1.6584667    -0.4268662    -0.0023745
  C       -3.0079050     0.2540090    -0.0015060
  H       -1.5542930    -1.0922920    -0.8626040
  H       -1.5171060    -1.0208640     0.9023270
  H       -3.8086770    -0.4913540     0.0489290
  H       -3.1025260     0.9214830     0.8596320
  H       -3.1449030     0.8467680    -0.9102780
units angstrom
no_reorient  #important for SAPT in psi4, default
symmetry c1  #important for SAPT in psi4, default
}

set PROPERTIES_ORIGIN ["COM"]
properties('MP2/aug-cc-pvtz', properties = ['dipole'])
--------------------------------------------------------------------------

    Molecular point group: c1
  Charge       = -2
  Multiplicity = 1
  Basis Set: AUG-CC-PVTZ
    Blend: AUG-CC-PVTZ
  Basis Set: (AUG-CC-PVTZ AUX)
    Blend: AUG-CC-PVTZ-JKFIT

    Orbital Energies [Eh]
    ---------------------

    Doubly Occupied:

       1A    -79.656838     2A    -20.209295     3A    -20.102828
       4A    -20.102773     5A    -20.096977     6A    -10.981059
       7A    -10.973902     8A     -7.171765     9A     -5.071205
      10A     -5.068926    11A     -5.068846    12A     -1.012366
      13A     -0.912685    14A     -0.844523    15A     -0.841552
      16A     -0.745372    17A     -0.555425    18A     -0.385930
      19A     -0.364914    20A     -0.303073    21A     -0.279224
      22A     -0.260624    23A     -0.244923    24A     -0.185496
      25A     -0.182317    26A     -0.160221    27A     -0.117140
      28A     -0.079513    29A     -0.078520    30A     -0.077017
      31A     -0.038956    32A     -0.037740    33A     -0.008996

  @DF-RHF Final Energy:  -719.00919854202982

   => Energetics <=

    Nuclear Repulsion Energy =            408.9490450381025539
    One-Electron Energy =               -1831.4746030780027013
    Two-Electron Energy =                 703.5163594978704396
    Total Energy =                       -719.0091985420298215
  Basis Set: (AUG-CC-PVTZ AUX)
    Blend: AUG-CC-PVTZ-RI
    Molecular point group: c1

    Geometry (in Angstrom), charge = -2, multiplicity = 1:

       Center              X                  Y                   Z               Mass
    ------------   -----------------  -----------------  -----------------  -----------------
         P            0.866697267347    -0.012431466632     0.003827624648    30.973761998420
         O           -0.752669732653     0.584277533368    -0.060640375352    15.994914619570
         O            1.655131267347     1.305740533368    -0.027175375352    15.994914619570
         O            1.009117267347    -0.889371466632    -1.253496375352    15.994914619570
         O            0.940052267347    -0.784650466632     1.334059624648    15.994914619570
         C           -1.769688432653    -0.432124666632    -0.002177875352    12.000000000000
         C           -3.119126732653     0.248750533368    -0.001309375352    12.000000000000
         H           -1.665514732653    -1.097550466632    -0.862407375352     1.007825032230
         H           -1.628327732653    -1.026122466632     0.902523624648     1.007825032230
         H           -3.919898732653    -0.496612466632     0.049125624648     1.007825032230
         H           -3.213747732653     0.916224533368     0.859828624648     1.007825032230
         H           -3.256124732653     0.841509533368    -0.910081375352     1.007825032230

  Basis Set: AUG-CC-PVTZ
    Blend: AUG-CC-PVTZ
  Basis Set: (AUG-CC-PVTZ AUX)
    Blend: AUG-CC-PVTZ-JKFIT
	 Reference Energy          =    -719.0091985420298215 [Eh]
	 Singles Energy            =      -0.0000000000000000 [Eh]
	 Same-Spin Energy          =      -0.4233921316064330 [Eh]
	 Opposite-Spin Energy      =      -1.2437049801092959 [Eh]
	 Correlation Energy        =      -1.6670971117157289 [Eh]
	 Total Energy              =    -720.6762956537455693 [Eh]

	 ================> DF-SCS-MP2 Energies <==================
	-----------------------------------------------------------
	 SCS Same-Spin Scale       =       0.3333333333333333 [-]
	 SCS Opposite-Spin Scale   =       1.2000000000000000 [-]
	 SCS Same-Spin Energy      =      -0.1411307105354777 [Eh]
	 SCS Opposite-Spin Energy  =      -1.4924459761311550 [Eh]
	 SCS Correlation Energy    =      -1.6335766866666328 [Eh]
	 SCS Total Energy          =    -720.6427752286964505 [Eh]
	-----------------------------------------------------------

  Dipole Moment: [D]
     X:    -8.3861      Y:    -0.2249      Z:    -0.0325     Total:     8.3891

*** Psi4 exiting successfully. Buy a developer a beer!
