                               Psi4 1.4a3.dev225

  ==> Input File <==

--------------------------------------------------------------------------
#psi4
#
memory 32 gb

molecule  {
-2 1
  P        0.9779190    -0.0071730     0.0036310
  O       -0.6414480     0.5895360    -0.0608370
  O        1.7663530     1.3109990    -0.0273720
  O        1.1203390    -0.8841130    -1.2536930
  O        1.0512740    -0.7793920     1.3338630
  C       -1.6089951    -0.3774246    -0.0052183
  C       -3.0079050     0.2540090    -0.0015060
  H       -1.5542930    -1.0922920    -0.8626040
  H       -1.5171060    -1.0208640     0.9023270
  H       -3.8086770    -0.4913540     0.0489290
  H       -3.1025260     0.9214830     0.8596320
  H       -3.1449030     0.8467680    -0.9102780
units angstrom
no_reorient  #important for SAPT in psi4, default
symmetry c1  #important for SAPT in psi4, default
}

set PROPERTIES_ORIGIN ["COM"]
properties('MP2/aug-cc-pvtz', properties = ['dipole'])
--------------------------------------------------------------------------

    Molecular point group: c1
  Charge       = -2
  Multiplicity = 1
  Basis Set: AUG-CC-PVTZ
    Blend: AUG-CC-PVTZ
  Basis Set: (AUG-CC-PVTZ AUX)
    Blend: AUG-CC-PVTZ-JKFIT

    Orbital Energies [Eh]
    ---------------------

    Doubly Occupied:

       1A    -79.660372     2A    -20.214383     3A    -20.105178
       4A    -20.105155     5A    -20.099392     6A    -10.983741
       7A    -10.971282     8A     -7.175362     9A     -5.074872
      10A     -5.072455    11A     -5.072374    12A     -1.038518
      13A     -0.918419    14A     -0.846863    15A     -0.844017
      16A     -0.737369    17A     -0.548820    18A     -0.398195
      19A     -0.360375    20A     -0.302108    21A     -0.286078
      22A     -0.262831    23A     -0.255007    24A     -0.184240
      25A     -0.176804    26A     -0.163090    27A     -0.112199
      28A     -0.083266    29A     -0.080793    30A     -0.079296
      31A     -0.041965    32A     -0.040869    33A     -0.011192

  @DF-RHF Final Energy:  -719.01067964671290

   => Energetics <=

    Nuclear Repulsion Energy =            410.1938402917101598
    One-Electron Energy =               -1833.7952767417659743
    Two-Electron Energy =                 704.5907568033429698
    Total Energy =                       -719.0106796467129016
  Basis Set: (AUG-CC-PVTZ AUX)
    Blend: AUG-CC-PVTZ-RI
    Molecular point group: c1

    Geometry (in Angstrom), charge = -2, multiplicity = 1:

       Center              X                  Y                   Z               Mass
    ------------   -----------------  -----------------  -----------------  -----------------
         P            0.861909405327    -0.017216425251     0.004102847645    30.973761998420
         O           -0.757457594673     0.579492574749    -0.060365152355    15.994914619570
         O            1.650343405327     1.300955574749    -0.026900152355    15.994914619570
         O            1.004329405327    -0.894156425251    -1.253221152355    15.994914619570
         O            0.935264405327    -0.789435425251     1.334334847645    15.994914619570
         C           -1.725004694673    -0.387468025251    -0.004746452355    12.000000000000
         C           -3.123914594673     0.243965574749    -0.001034152355    12.000000000000
         H           -1.670302594673    -1.102335425251    -0.862132152355     1.007825032230
         H           -1.633115594673    -1.030907425251     0.902798847645     1.007825032230
         H           -3.924686594673    -0.501397425251     0.049400847645     1.007825032230
         H           -3.218535594673     0.911439574749     0.860103847645     1.007825032230
         H           -3.260912594673     0.836724574749    -0.909806152355     1.007825032230

  Basis Set: AUG-CC-PVTZ
    Blend: AUG-CC-PVTZ
  Basis Set: (AUG-CC-PVTZ AUX)
    Blend: AUG-CC-PVTZ-JKFIT
	 Reference Energy          =    -719.0106796467129016 [Eh]
	 Singles Energy            =      -0.0000000000000000 [Eh]
	 Same-Spin Energy          =      -0.4232798882669440 [Eh]
	 Opposite-Spin Energy      =      -1.2426744196801918 [Eh]
	 Correlation Energy        =      -1.6659543079471357 [Eh]
	 Total Energy              =    -720.6766339546600193 [Eh]

	 ================> DF-SCS-MP2 Energies <==================
	-----------------------------------------------------------
	 SCS Same-Spin Scale       =       0.3333333333333333 [-]
	 SCS Opposite-Spin Scale   =       1.2000000000000000 [-]
	 SCS Same-Spin Energy      =      -0.1410932960889813 [Eh]
	 SCS Opposite-Spin Energy  =      -1.4912093036162302 [Eh]
	 SCS Correlation Energy    =      -1.6323025997052114 [Eh]
	 SCS Total Energy          =    -720.6429822464181143 [Eh]
	-----------------------------------------------------------

  Dipole Moment: [D]
     X:    -8.0359      Y:    -0.0732      Z:    -0.0366     Total:     8.0363

*** Psi4 exiting successfully. Buy a developer a beer!
