                               Psi4 1.3.2 release

  ==> Input File <==

--------------------------------------------------------------------------
#psi4
#
memory 32 gb

molecule  {
-2 1
  P        1.0061244     0.0769916    -0.0001408
  O       -0.6411800     0.5927210    -0.0041200
  O        1.7666250     1.3097720    -0.0037790
  O        1.0866210    -0.8364840    -1.2938730
  O        1.0830210    -0.8262340     1.3012490
  C       -1.6941408    -0.3586029    -0.0005684
  C       -3.0065950     0.2536250    -0.0000790
  H       -1.5335210    -1.0590140    -0.8819370
  H       -1.5311640    -1.0543110     0.8844880
  H       -3.8081830    -0.4926330     0.0030840
  H       -3.1205860     0.8863090     0.8845190
  H       -3.1233430     0.8818480    -0.8874810
units angstrom
no_reorient  #important for SAPT in psi4, default
symmetry c1  #important for SAPT in psi4, default
}

set PROPERTIES_ORIGIN ["COM"]
properties('MP2/aug-cc-pvtz', properties = ['dipole'])
--------------------------------------------------------------------------

    Molecular point group: c1
  Charge       = -2
  Multiplicity = 1
  Basis Set: AUG-CC-PVTZ
    Blend: AUG-CC-PVTZ
  Basis Set: (AUG-CC-PVTZ AUX)
    Blend: AUG-CC-PVTZ-JKFIT

    Orbital Energies [Eh]
    ---------------------

    Doubly Occupied:

       1A    -79.657533     2A    -20.207093     3A    -20.115381
       4A    -20.095098     5A    -20.095044     6A    -10.982095
       7A    -10.972045     8A     -7.173324     9A     -5.072681
      10A     -5.071021    11A     -5.069808    12A     -1.016659
      13A     -0.934201    14A     -0.850294    15A     -0.819420
      16A     -0.758707    17A     -0.543514    18A     -0.391900
      19A     -0.362327    20A     -0.304437    21A     -0.296802
      22A     -0.249634    23A     -0.247966    24A     -0.191780
      25A     -0.182212    26A     -0.155211    27A     -0.107028
      28A     -0.099453    29A     -0.076210    30A     -0.067661
      31A     -0.045529    32A     -0.025522    33A     -0.004204

  @DF-RHF Final Energy:  -718.99311401138050

   => Energetics <=

    Nuclear Repulsion Energy =            408.9299194581452070
    One-Electron Energy =               -1831.3624746705586404
    Two-Electron Energy =                 703.4394412010329916
    Total Energy =                       -718.9931140113804986
  Basis Set: (AUG-CC-PVTZ AUX)
    Blend: AUG-CC-PVTZ-RI
    Molecular point group: c1

    Geometry (in Angstrom), charge = -2, multiplicity = 1:

       Center              X                  Y                   Z               Mass
    ------------   -----------------  -----------------  -----------------  -----------------
         P            0.891280181721     0.043797600262     0.000002767741    30.973761998420
         O           -0.756024218279     0.559527000262    -0.003976432259    15.994914619570
         O            1.651780781721     1.276578000262    -0.003635432259    15.994914619570
         O            0.971776781721    -0.869677999738    -1.293729432259    15.994914619570
         O            0.968176781721    -0.859427999738     1.301392567741    15.994914619570
         C           -1.808985018279    -0.391796899738    -0.000424832259    12.000000000000
         C           -3.121439218279     0.220431000262     0.000064567741    12.000000000000
         H           -1.648365218279    -1.092207999738    -0.881793432259     1.007825032230
         H           -1.646008218279    -1.087504999738     0.884631567741     1.007825032230
         H           -3.923027218279    -0.525826999738     0.003227567741     1.007825032230
         H           -3.235430218279     0.853115000262     0.884662567741     1.007825032230
         H           -3.238187218279     0.848654000262    -0.887337432259     1.007825032230

  Basis Set: AUG-CC-PVTZ
    Blend: AUG-CC-PVTZ
  Basis Set: (AUG-CC-PVTZ AUX)
    Blend: AUG-CC-PVTZ-JKFIT
	 Reference Energy          =    -718.9931140113804986 [Eh]
	 Singles Energy            =      -0.0000000000000000 [Eh]
	 Same-Spin Energy          =      -0.4238888747670311 [Eh]
	 Opposite-Spin Energy      =      -1.2439434988428868 [Eh]
	 Correlation Energy        =      -1.6678323736099179 [Eh]
	 Total Energy              =    -720.6609463849904387 [Eh]

	 ================> DF-SCS-MP2 Energies <==================
	-----------------------------------------------------------
	 SCS Same-Spin Scale       =       0.3333333333333333 [-]
	 SCS Opposite-Spin Scale   =       1.2000000000000000 [-]
	 SCS Same-Spin Energy      =      -0.1412962915890104 [Eh]
	 SCS Opposite-Spin Energy  =      -1.4927321986114641 [Eh]
	 SCS Correlation Energy    =      -1.6340284902004745 [Eh]
	 SCS Total Energy          =    -720.6271425015809200 [Eh]
	-----------------------------------------------------------

  Dipole Moment: [D]
     X:    -8.0152      Y:     1.0646      Z:    -0.0085     Total:     8.0856

*** Psi4 exiting successfully. Buy a developer a beer!
