                               Psi4 1.4a3.dev225

  ==> Input File <==

--------------------------------------------------------------------------
#psi4
#
memory 32 gb

molecule  {
-2 1
  P        0.9779190    -0.0071730     0.0036310
  O       -0.5945645     0.5722602    -0.0589705
  O        1.7663530     1.3109990    -0.0273720
  O        1.1203390    -0.8841130    -1.2536930
  O        1.0512740    -0.7793920     1.3338630
  C       -1.6443320    -0.4127400    -0.0031870
  C       -3.0079050     0.2540090    -0.0015060
  H       -1.5542930    -1.0922920    -0.8626040
  H       -1.5171060    -1.0208640     0.9023270
  H       -3.8086770    -0.4913540     0.0489290
  H       -3.1025260     0.9214830     0.8596320
  H       -3.1449030     0.8467680    -0.9102780
units angstrom
no_reorient  #important for SAPT in psi4, default
symmetry c1  #important for SAPT in psi4, default
}

set PROPERTIES_ORIGIN ["COM"]
properties('MP2/aug-cc-pvtz', properties = ['dipole'])
--------------------------------------------------------------------------

    Molecular point group: c1
  Charge       = -2
  Multiplicity = 1
  Basis Set: AUG-CC-PVTZ
    Blend: AUG-CC-PVTZ
  Basis Set: (AUG-CC-PVTZ AUX)
    Blend: AUG-CC-PVTZ-JKFIT

    Orbital Energies [Eh]
    ---------------------

    Doubly Occupied:

       1A    -79.651739     2A    -20.212150     3A    -20.098743
       4A    -20.098699     5A    -20.093386     6A    -10.986906
       7A    -10.977897     8A     -7.167244     9A     -5.066804
      10A     -5.064431    11A     -5.064327    12A     -1.022558
      13A     -0.908770    14A     -0.841296    15A     -0.838650
      16A     -0.749369    17A     -0.559170    18A     -0.392061
      19A     -0.365727    20A     -0.305666    21A     -0.283854
      22A     -0.264296    23A     -0.246639    24A     -0.185659
      25A     -0.184065    26A     -0.156546    27A     -0.118604
      28A     -0.079079    29A     -0.075826    30A     -0.074201
      31A     -0.035337    32A     -0.033902    33A     -0.005642

  @DF-RHF Final Energy:  -719.00916785386278

   => Energetics <=

    Nuclear Repulsion Energy =            410.4864909820998378
    One-Electron Energy =               -1834.5728247639601705
    Two-Electron Energy =                 705.0771659279974983
    Total Energy =                       -719.0091678538627775
  Basis Set: (AUG-CC-PVTZ AUX)
    Blend: AUG-CC-PVTZ-RI
    Molecular point group: c1

    Geometry (in Angstrom), charge = -2, multiplicity = 1:

       Center              X                  Y                   Z               Mass
    ------------   -----------------  -----------------  -----------------  -----------------
         P            0.859281386216    -0.011570039476     0.003665481770    30.973761998420
         O           -0.713202113784     0.567863160524    -0.058936018230    15.994914619570
         O            1.647715386216     1.306601960524    -0.027337518230    15.994914619570
         O            1.001701386216    -0.888510039476    -1.253658518230    15.994914619570
         O            0.932636386216    -0.783789039476     1.333897481770    15.994914619570
         C           -1.762969613784    -0.417137039476    -0.003152518230    12.000000000000
         C           -3.126542613784     0.249611960524    -0.001471518230    12.000000000000
         H           -1.672930613784    -1.096689039476    -0.862569518230     1.007825032230
         H           -1.635743613784    -1.025261039476     0.902361481770     1.007825032230
         H           -3.927314613784    -0.495751039476     0.048963481770     1.007825032230
         H           -3.221163613784     0.917085960524     0.859666481770     1.007825032230
         H           -3.263540613784     0.842370960524    -0.910243518230     1.007825032230

  Basis Set: AUG-CC-PVTZ
    Blend: AUG-CC-PVTZ
  Basis Set: (AUG-CC-PVTZ AUX)
    Blend: AUG-CC-PVTZ-JKFIT
	 Reference Energy          =    -719.0091678538627775 [Eh]
	 Singles Energy            =      -0.0000000000000000 [Eh]
	 Same-Spin Energy          =      -0.4228897674050971 [Eh]
	 Opposite-Spin Energy      =      -1.2423763782638768 [Eh]
	 Correlation Energy        =      -1.6652661456689739 [Eh]
	 Total Energy              =    -720.6744339995317432 [Eh]

	 ================> DF-SCS-MP2 Energies <==================
	-----------------------------------------------------------
	 SCS Same-Spin Scale       =       0.3333333333333333 [-]
	 SCS Opposite-Spin Scale   =       1.2000000000000000 [-]
	 SCS Same-Spin Energy      =      -0.1409632558016990 [Eh]
	 SCS Opposite-Spin Energy  =      -1.4908516539166521 [Eh]
	 SCS Correlation Energy    =      -1.6318149097183512 [Eh]
	 SCS Total Energy          =    -720.6409827635811780 [Eh]
	-----------------------------------------------------------

  Dipole Moment: [D]
     X:    -8.6897      Y:    -0.1348      Z:    -0.0409     Total:     8.6908

*** Psi4 exiting successfully. Buy a developer a beer!
