                               Psi4 1.3.2 release

  ==> Input File <==

--------------------------------------------------------------------------
#psi4
#
memory 32 gb

molecule  {
-2 1
  P        0.9768750    -0.0085140     0.0002390
  O       -0.6411800     0.5927210    -0.0041200
  O        1.7666250     1.3097720    -0.0037790
  O        1.0866210    -0.8364840    -1.2938730
  O        1.0830210    -0.8262340     1.3012490
  C       -1.7840902    -0.5540661     0.0002783
  C       -3.0065950     0.2536250    -0.0000790
  H       -1.5335210    -1.0590140    -0.8819370
  H       -1.5311640    -1.0543110     0.8844880
  H       -3.8081830    -0.4926330     0.0030840
  H       -3.1205860     0.8863090     0.8845190
  H       -3.1233430     0.8818480    -0.8874810
units angstrom
no_reorient  #important for SAPT in psi4, default
symmetry c1  #important for SAPT in psi4, default
}

set PROPERTIES_ORIGIN ["COM"]
properties('MP2/aug-cc-pvtz', properties = ['dipole'])
--------------------------------------------------------------------------

    Molecular point group: c1
  Charge       = -2
  Multiplicity = 1
  Basis Set: AUG-CC-PVTZ
    Blend: AUG-CC-PVTZ
  Basis Set: (AUG-CC-PVTZ AUX)
    Blend: AUG-CC-PVTZ-JKFIT

    Orbital Energies [Eh]
    ---------------------

    Doubly Occupied:

       1A    -79.650255     2A    -20.199464     3A    -20.098692
       4A    -20.098670     5A    -20.092249     6A    -10.982359
       7A    -10.980717     8A     -7.165053     9A     -5.064365
      10A     -5.062330    11A     -5.062247    12A     -0.971038
      13A     -0.897185    14A     -0.840275    15A     -0.836547
      16A     -0.764578    17A     -0.571041    18A     -0.381043
      19A     -0.364547    20A     -0.315930    21A     -0.283833
      22A     -0.265536    23A     -0.209066    24A     -0.186442
      25A     -0.184633    26A     -0.142739    27A     -0.119338
      28A     -0.074248    29A     -0.072699    30A     -0.070684
      31A     -0.031814    32A     -0.031459    33A     -0.004890

  @DF-RHF Final Energy:  -718.97343245340130

   => Energetics <=

    Nuclear Repulsion Energy =            406.0189214267860507
    One-Electron Energy =               -1825.8327826658533013
    Two-Electron Energy =                 700.8404287856658357
    Total Energy =                       -718.9734324534013012
  Basis Set: (AUG-CC-PVTZ AUX)
    Blend: AUG-CC-PVTZ-RI
    Molecular point group: c1

    Geometry (in Angstrom), charge = -2, multiplicity = 1:

       Center              X                  Y                   Z               Mass
    ------------   -----------------  -----------------  -----------------  -----------------
         P            0.878042685856    -0.001431477643     0.000205748767    30.973761998420
         O           -0.740012314144     0.599803522357    -0.004153251233    15.994914619570
         O            1.667792685856     1.316854522357    -0.003812251233    15.994914619570
         O            0.987788685856    -0.829401477643    -1.293906251233    15.994914619570
         O            0.984188685856    -0.819151477643     1.301215748767    15.994914619570
         C           -1.882922514144    -0.546983577643     0.000245048767    12.000000000000
         C           -3.105427314144     0.260707522357    -0.000112251233    12.000000000000
         H           -1.632353314144    -1.051931477643    -0.881970251233     1.007825032230
         H           -1.629996314144    -1.047228477643     0.884454748767     1.007825032230
         H           -3.907015314144    -0.485550477643     0.003050748767     1.007825032230
         H           -3.219418314144     0.893391522357     0.884485748767     1.007825032230
         H           -3.222175314144     0.888930522357    -0.887514251233     1.007825032230

  Basis Set: AUG-CC-PVTZ
    Blend: AUG-CC-PVTZ
  Basis Set: (AUG-CC-PVTZ AUX)
    Blend: AUG-CC-PVTZ-JKFIT
	 Reference Energy          =    -718.9734324534013012 [Eh]
	 Singles Energy            =      -0.0000000000000000 [Eh]
	 Same-Spin Energy          =      -0.4253778408745963 [Eh]
	 Opposite-Spin Energy      =      -1.2493979789106195 [Eh]
	 Correlation Energy        =      -1.6747758197852158 [Eh]
	 Total Energy              =    -720.6482082731864693 [Eh]

	 ================> DF-SCS-MP2 Energies <==================
	-----------------------------------------------------------
	 SCS Same-Spin Scale       =       0.3333333333333333 [-]
	 SCS Opposite-Spin Scale   =       1.2000000000000000 [-]
	 SCS Same-Spin Energy      =      -0.1417926136248654 [Eh]
	 SCS Opposite-Spin Energy  =      -1.4992775746927434 [Eh]
	 SCS Correlation Energy    =      -1.6410701883176089 [Eh]
	 SCS Total Energy          =    -720.6145026417189001 [Eh]
	-----------------------------------------------------------

  Dipole Moment: [D]
     X:    -8.9504      Y:    -0.4674      Z:    -0.0025     Total:     8.9626

*** Psi4 exiting successfully. Buy a developer a beer!
