                               Psi4 1.3.2 release

  ==> Input File <==

--------------------------------------------------------------------------
#psi4
#
memory 32 gb

molecule  {
-2 1
  P        0.9768750    -0.0085140     0.0002390
  O       -0.6298014     0.6199436    -0.0566523
  O        1.7666250     1.3097720    -0.0037790
  O        1.0866210    -0.8364840    -1.2938730
  O        1.1340583    -0.8376621     1.2887912
  C       -1.6429090    -0.4124060    -0.0002650
  C       -3.0065950     0.2536250    -0.0000790
  H       -1.5335210    -1.0590140    -0.8819370
  H       -1.5311640    -1.0543110     0.8844880
  H       -3.8081830    -0.4926330     0.0030840
  H       -3.1205860     0.8863090     0.8845190
  H       -3.1233430     0.8818480    -0.8874810
units angstrom
no_reorient  #important for SAPT in psi4, default
symmetry c1  #important for SAPT in psi4, default
}

set PROPERTIES_ORIGIN ["COM"]
properties('MP2/aug-cc-pvtz', properties = ['dipole'])
--------------------------------------------------------------------------

    Molecular point group: c1
  Charge       = -2
  Multiplicity = 1
  Basis Set: AUG-CC-PVTZ
    Blend: AUG-CC-PVTZ
  Basis Set: (AUG-CC-PVTZ AUX)
    Blend: AUG-CC-PVTZ-JKFIT

    Orbital Energies [Eh]
    ---------------------

    Doubly Occupied:

       1A    -79.656681     2A    -20.215455     3A    -20.105890
       4A    -20.100101     5A    -20.093618     6A    -10.985844
       7A    -10.975671     8A     -7.171672     9A     -5.071086
      10A     -5.068825    11A     -5.068728    12A     -1.013498
      13A     -0.912302    14A     -0.843996    15A     -0.839256
      16A     -0.746272    17A     -0.556470    18A     -0.386977
      19A     -0.364142    20A     -0.304700    21A     -0.277644
      22A     -0.260765    23A     -0.246452    24A     -0.185124
      25A     -0.182842    26A     -0.161629    27A     -0.119753
      28A     -0.080628    29A     -0.078360    30A     -0.075039
      31A     -0.038249    32A     -0.035862    33A     -0.007481

  @DF-RHF Final Energy:  -719.00627816078554

   => Energetics <=

    Nuclear Repulsion Energy =            408.5721504509400006
    One-Electron Energy =               -1830.6948363241397146
    Two-Electron Energy =                 703.1164077124142295
    Total Energy =                       -719.0062781607855413
  Basis Set: (AUG-CC-PVTZ AUX)
    Blend: AUG-CC-PVTZ-RI
    Molecular point group: c1

    Geometry (in Angstrom), charge = -2, multiplicity = 1:

       Center              X                  Y                   Z               Mass
    ------------   -----------------  -----------------  -----------------  -----------------
         P            0.856327578891    -0.017178818493     0.008641987375    30.973761998420
         O           -0.750348821109     0.611278781507    -0.048249312625    15.994914619570
         O            1.646077578891     1.301107181507     0.004623987375    15.994914619570
         O            0.966073578891    -0.845148818493    -1.285470012625    15.994914619570
         O            1.013510878891    -0.846326918493     1.297194187375    15.994914619570
         C           -1.763456421109    -0.421070818493     0.008137987375    12.000000000000
         C           -3.127142421109     0.244960181507     0.008323987375    12.000000000000
         H           -1.654068421109    -1.067678818493    -0.873534012625     1.007825032230
         H           -1.651711421109    -1.062975818493     0.892890987375     1.007825032230
         H           -3.928730421109    -0.501297818493     0.011486987375     1.007825032230
         H           -3.241133421109     0.877644181507     0.892921987375     1.007825032230
         H           -3.243890421109     0.873183181507    -0.879078012625     1.007825032230

  Basis Set: AUG-CC-PVTZ
    Blend: AUG-CC-PVTZ
  Basis Set: (AUG-CC-PVTZ AUX)
    Blend: AUG-CC-PVTZ-JKFIT
	 Reference Energy          =    -719.0062781607855413 [Eh]
	 Singles Energy            =      -0.0000000000000000 [Eh]
	 Same-Spin Energy          =      -0.4235625386065938 [Eh]
	 Opposite-Spin Energy      =      -1.2443704590291147 [Eh]
	 Correlation Energy        =      -1.6679329976357085 [Eh]
	 Total Energy              =    -720.6742111584212580 [Eh]

	 ================> DF-SCS-MP2 Energies <==================
	-----------------------------------------------------------
	 SCS Same-Spin Scale       =       0.3333333333333333 [-]
	 SCS Opposite-Spin Scale   =       1.2000000000000000 [-]
	 SCS Same-Spin Energy      =      -0.1411875128688646 [Eh]
	 SCS Opposite-Spin Energy  =      -1.4932445508349377 [Eh]
	 SCS Correlation Energy    =      -1.6344320637038023 [Eh]
	 SCS Total Energy          =    -720.6407102244893395 [Eh]
	-----------------------------------------------------------

  Dipole Moment: [D]
     X:    -8.5410      Y:    -0.2405      Z:     0.0992     Total:     8.5449

*** Psi4 exiting successfully. Buy a developer a beer!
