                               Psi4 1.3.2 release

  ==> Input File <==

--------------------------------------------------------------------------
#psi4
#
memory 32 gb

molecule  {
-2 1
  P        0.9820602     0.0056288     0.0001765
  O       -0.6411800     0.5927210    -0.0041200
  O        1.7666250     1.3097720    -0.0037790
  O        1.0866210    -0.8364840    -1.2938730
  O        1.0830210    -0.8262340     1.3012490
  C       -1.6516422    -0.4036262    -0.0003149
  C       -3.0065950     0.2536250    -0.0000790
  H       -1.5335210    -1.0590140    -0.8819370
  H       -1.5311640    -1.0543110     0.8844880
  H       -3.8081830    -0.4926330     0.0030840
  H       -3.1205860     0.8863090     0.8845190
  H       -3.1233430     0.8818480    -0.8874810
units angstrom
no_reorient  #important for SAPT in psi4, default
symmetry c1  #important for SAPT in psi4, default
}

set PROPERTIES_ORIGIN ["COM"]
properties('MP2/aug-cc-pvtz', properties = ['dipole'])
--------------------------------------------------------------------------

    Molecular point group: c1
  Charge       = -2
  Multiplicity = 1
  Basis Set: AUG-CC-PVTZ
    Blend: AUG-CC-PVTZ
  Basis Set: (AUG-CC-PVTZ AUX)
    Blend: AUG-CC-PVTZ-JKFIT

    Orbital Energies [Eh]
    ---------------------

    Doubly Occupied:

       1A    -79.657947     2A    -20.210018     3A    -20.102227
       4A    -20.102195     5A    -20.100207     6A    -10.981507
       7A    -10.973000     8A     -7.172850     9A     -5.072315
      10A     -5.070079    11A     -5.069829    12A     -1.018673
      13A     -0.914376    14A     -0.846033    15A     -0.840981
      16A     -0.745535    17A     -0.551806    18A     -0.389724
      19A     -0.363008    20A     -0.302576    21A     -0.282960
      22A     -0.259101    23A     -0.247891    24A     -0.183937
      25A     -0.182497    26A     -0.160430    27A     -0.114076
      28A     -0.082582    29A     -0.077525    30A     -0.077181
      31A     -0.042125    32A     -0.036601    33A     -0.009642

  @DF-RHF Final Energy:  -719.01020759283324

   => Energetics <=

    Nuclear Repulsion Energy =            409.2482432787847415
    One-Electron Energy =               -1832.0340267987764946
    Two-Electron Energy =                 703.7755759271585703
    Total Energy =                       -719.0102075928332397
  Basis Set: (AUG-CC-PVTZ AUX)
    Blend: AUG-CC-PVTZ-RI
    Molecular point group: c1

    Geometry (in Angstrom), charge = -2, multiplicity = 1:

       Center              X                  Y                   Z               Mass
    ------------   -----------------  -----------------  -----------------  -----------------
         P            0.869114286190    -0.005381172717     0.000216271383    30.973761998420
         O           -0.754125913810     0.581711027283    -0.004080228617    15.994914619570
         O            1.653679086190     1.298762027283    -0.003739228617    15.994914619570
         O            0.973675086190    -0.847493972717    -1.293833228617    15.994914619570
         O            0.970075086190    -0.837243972717     1.301288771383    15.994914619570
         C           -1.764588113810    -0.414636172717    -0.000275128617    12.000000000000
         C           -3.119540913810     0.242615027283    -0.000039228617    12.000000000000
         H           -1.646466913810    -1.070023972717    -0.881897228617     1.007825032230
         H           -1.644109913810    -1.065320972717     0.884527771383     1.007825032230
         H           -3.921128913810    -0.503642972717     0.003123771383     1.007825032230
         H           -3.233531913810     0.875299027283     0.884558771383     1.007825032230
         H           -3.236288913810     0.870838027283    -0.887441228617     1.007825032230

  Basis Set: AUG-CC-PVTZ
    Blend: AUG-CC-PVTZ
  Basis Set: (AUG-CC-PVTZ AUX)
    Blend: AUG-CC-PVTZ-JKFIT
	 Reference Energy          =    -719.0102075928332397 [Eh]
	 Singles Energy            =      -0.0000000000000000 [Eh]
	 Same-Spin Energy          =      -0.4233886223659499 [Eh]
	 Opposite-Spin Energy      =      -1.2433786967860394 [Eh]
	 Correlation Energy        =      -1.6667673191519894 [Eh]
	 Total Energy              =    -720.6769749119852122 [Eh]

	 ================> DF-SCS-MP2 Energies <==================
	-----------------------------------------------------------
	 SCS Same-Spin Scale       =       0.3333333333333333 [-]
	 SCS Opposite-Spin Scale   =       1.2000000000000000 [-]
	 SCS Same-Spin Energy      =      -0.1411295407886499 [Eh]
	 SCS Opposite-Spin Energy  =      -1.4920544361432473 [Eh]
	 SCS Correlation Energy    =      -1.6331839769318972 [Eh]
	 SCS Total Energy          =    -720.6433915697651855 [Eh]
	-----------------------------------------------------------

  Dipole Moment: [D]
     X:    -8.2512      Y:     0.0168      Z:    -0.0040     Total:     8.2512

*** Psi4 exiting successfully. Buy a developer a beer!
