                               Psi4 1.4a3.dev225

  ==> Input File <==

--------------------------------------------------------------------------
#psi4
#
memory 32 gb

molecule  {
-2 1
  P        0.9779190    -0.0071730     0.0036310
  O       -0.6414480     0.5895360    -0.0608370
  O        1.7560888     1.2938385    -0.0269684
  O        1.1203390    -0.8841130    -1.2536930
  O        1.0512740    -0.7793920     1.3338630
  C       -1.6443320    -0.4127400    -0.0031870
  C       -3.0079050     0.2540090    -0.0015060
  H       -1.5542930    -1.0922920    -0.8626040
  H       -1.5171060    -1.0208640     0.9023270
  H       -3.8086770    -0.4913540     0.0489290
  H       -3.1025260     0.9214830     0.8596320
  H       -3.1449030     0.8467680    -0.9102780
units angstrom
no_reorient  #important for SAPT in psi4, default
symmetry c1  #important for SAPT in psi4, default
}

set PROPERTIES_ORIGIN ["COM"]
properties('MP2/aug-cc-pvtz', properties = ['dipole'])
--------------------------------------------------------------------------

    Molecular point group: c1
  Charge       = -2
  Multiplicity = 1
  Basis Set: AUG-CC-PVTZ
    Blend: AUG-CC-PVTZ
  Basis Set: (AUG-CC-PVTZ AUX)
    Blend: AUG-CC-PVTZ-JKFIT

    Orbital Energies [Eh]
    ---------------------

    Doubly Occupied:

       1A    -79.653899     2A    -20.209302     3A    -20.101598
       4A    -20.101558     5A    -20.096476     6A    -10.980689
       7A    -10.972553     8A     -7.169531     9A     -5.068934
      10A     -5.066787    11A     -5.066519    12A     -1.018394
      13A     -0.916259    14A     -0.845994    15A     -0.843523
      16A     -0.742404    17A     -0.552676    18A     -0.388019
      19A     -0.362664    20A     -0.301865    21A     -0.279110
      22A     -0.260155    23A     -0.248222    24A     -0.185299
      25A     -0.181145    26A     -0.161357    27A     -0.115232
      28A     -0.082103    29A     -0.078306    30A     -0.078167
      31A     -0.041055    32A     -0.037387    33A     -0.008936

  @DF-RHF Final Energy:  -719.01158099568022

   => Energetics <=

    Nuclear Repulsion Energy =            410.1513858959622212
    One-Electron Energy =               -1833.8936991966777441
    Two-Electron Energy =                 704.7307323050353034
    Total Energy =                       -719.0115809956802195
  Basis Set: (AUG-CC-PVTZ AUX)
    Blend: AUG-CC-PVTZ-RI
    Molecular point group: c1

    Geometry (in Angstrom), charge = -2, multiplicity = 1:

       Center              X                  Y                   Z               Mass
    ------------   -----------------  -----------------  -----------------  -----------------
         P            0.866653382472    -0.011584913061     0.003854194410    30.973761998420
         O           -0.752713617528     0.585124086939    -0.060613805590    15.994914619570
         O            1.644823182472     1.289426586939    -0.026745205590    15.994914619570
         O            1.009073382472    -0.888524913061    -1.253469805590    15.994914619570
         O            0.940008382472    -0.783803913061     1.334086194410    15.994914619570
         C           -1.755597617528    -0.417151913061    -0.002963805590    12.000000000000
         C           -3.119170617528     0.249597086939    -0.001282805590    12.000000000000
         H           -1.665558617528    -1.096703913061    -0.862380805590     1.007825032230
         H           -1.628371617528    -1.025275913061     0.902550194410     1.007825032230
         H           -3.919942617528    -0.495765913061     0.049152194410     1.007825032230
         H           -3.213791617528     0.917071086939     0.859855194410     1.007825032230
         H           -3.256168617528     0.842356086939    -0.910054805590     1.007825032230

  Basis Set: AUG-CC-PVTZ
    Blend: AUG-CC-PVTZ
  Basis Set: (AUG-CC-PVTZ AUX)
    Blend: AUG-CC-PVTZ-JKFIT
	 Reference Energy          =    -719.0115809956802195 [Eh]
	 Singles Energy            =      -0.0000000000000000 [Eh]
	 Same-Spin Energy          =      -0.4229937169202334 [Eh]
	 Opposite-Spin Energy      =      -1.2424531897076894 [Eh]
	 Correlation Energy        =      -1.6654469066279227 [Eh]
	 Total Energy              =    -720.6770279023081684 [Eh]

	 ================> DF-SCS-MP2 Energies <==================
	-----------------------------------------------------------
	 SCS Same-Spin Scale       =       0.3333333333333333 [-]
	 SCS Opposite-Spin Scale   =       1.2000000000000000 [-]
	 SCS Same-Spin Energy      =      -0.1409979056400778 [Eh]
	 SCS Opposite-Spin Energy  =      -1.4909438276492273 [Eh]
	 SCS Correlation Energy    =      -1.6319417332893051 [Eh]
	 SCS Total Energy          =    -720.6435227289695149 [Eh]
	-----------------------------------------------------------

  Dipole Moment: [D]
     X:    -8.2041      Y:    -0.0593      Z:    -0.0367     Total:     8.2044

*** Psi4 exiting successfully. Buy a developer a beer!
