                               Psi4 1.3.2 release

  ==> Input File <==

--------------------------------------------------------------------------
#psi4
#
memory 32 gb

molecule  {
-2 1
  P        0.9768750    -0.0085140     0.0002390
  O       -0.6411800     0.5927210    -0.0041200
  O        1.7666250     1.3097720    -0.0037790
  O        1.0866210    -0.8364840    -1.2938730
  O        1.0899122    -0.8793220     1.3857131
  C       -1.6429090    -0.4124060    -0.0002650
  C       -3.0065950     0.2536250    -0.0000790
  H       -1.5335210    -1.0590140    -0.8819370
  H       -1.5311640    -1.0543110     0.8844880
  H       -3.8081830    -0.4926330     0.0030840
  H       -3.1205860     0.8863090     0.8845190
  H       -3.1233430     0.8818480    -0.8874810
units angstrom
no_reorient  #important for SAPT in psi4, default
symmetry c1  #important for SAPT in psi4, default
}

set PROPERTIES_ORIGIN ["COM"]
properties('MP2/aug-cc-pvtz', properties = ['dipole'])
--------------------------------------------------------------------------

    Molecular point group: c1
  Charge       = -2
  Multiplicity = 1
  Basis Set: AUG-CC-PVTZ
    Blend: AUG-CC-PVTZ
  Basis Set: (AUG-CC-PVTZ AUX)
    Blend: AUG-CC-PVTZ-JKFIT

    Orbital Energies [Eh]
    ---------------------

    Doubly Occupied:

       1A    -79.674399     2A    -20.217577     3A    -20.112843
       4A    -20.108666     5A    -20.106253     6A    -10.984112
       7A    -10.975042     8A     -7.187008     9A     -5.086567
      10A     -5.084286    11A     -5.083687    12A     -1.023562
      13A     -0.910484    14A     -0.850577    15A     -0.822745
      16A     -0.745512    17A     -0.556307    18A     -0.394484
      19A     -0.365916    20A     -0.306072    21A     -0.283211
      22A     -0.263846    23A     -0.251070    24A     -0.183899
      25A     -0.182491    26A     -0.160429    27A     -0.117477
      28A     -0.085033    29A     -0.076320    30A     -0.070281
      31A     -0.045656    32A     -0.034194    33A     -0.012751

  @DF-RHF Final Energy:  -718.99736079795878

   => Energetics <=

    Nuclear Repulsion Energy =            405.3699467104142968
    One-Electron Energy =               -1824.0090984013602338
    Two-Electron Energy =                 699.6417908929871601
    Total Energy =                       -718.9973607979587769
  Basis Set: (AUG-CC-PVTZ AUX)
    Blend: AUG-CC-PVTZ-RI
    Molecular point group: c1

    Geometry (in Angstrom), charge = -2, multiplicity = 1:

       Center              X                  Y                   Z               Mass
    ------------   -----------------  -----------------  -----------------  -----------------
         P            0.863490209767    -0.008293044750    -0.010637455242    30.973761998420
         O           -0.754564790233     0.592941955250    -0.014996455242    15.994914619570
         O            1.653240209767     1.309992955250    -0.014655455242    15.994914619570
         O            0.973236209767    -0.836263044750    -1.304749455242    15.994914619570
         O            0.976527409767    -0.879101044750     1.374836644758    15.994914619570
         C           -1.756293790233    -0.412185044750    -0.011141455242    12.000000000000
         C           -3.119979790233     0.253845955250    -0.010955455242    12.000000000000
         H           -1.646905790233    -1.058793044750    -0.892813455242     1.007825032230
         H           -1.644548790233    -1.054090044750     0.873611544758     1.007825032230
         H           -3.921567790233    -0.492412044750    -0.007792455242     1.007825032230
         H           -3.233970790233     0.886529955250     0.873642544758     1.007825032230
         H           -3.236727790233     0.882068955250    -0.898357455242     1.007825032230

  Basis Set: AUG-CC-PVTZ
    Blend: AUG-CC-PVTZ
  Basis Set: (AUG-CC-PVTZ AUX)
    Blend: AUG-CC-PVTZ-JKFIT
	 Reference Energy          =    -718.9973607979587769 [Eh]
	 Singles Energy            =      -0.0000000000000000 [Eh]
	 Same-Spin Energy          =      -0.4250906587681695 [Eh]
	 Opposite-Spin Energy      =      -1.2481153648177441 [Eh]
	 Correlation Energy        =      -1.6732060235859136 [Eh]
	 Total Energy              =    -720.6705668215446394 [Eh]

	 ================> DF-SCS-MP2 Energies <==================
	-----------------------------------------------------------
	 SCS Same-Spin Scale       =       0.3333333333333333 [-]
	 SCS Opposite-Spin Scale   =       1.2000000000000000 [-]
	 SCS Same-Spin Energy      =      -0.1416968862560565 [Eh]
	 SCS Opposite-Spin Energy  =      -1.4977384377812928 [Eh]
	 SCS Correlation Energy    =      -1.6394353240373494 [Eh]
	 SCS Total Energy          =    -720.6367961219960989 [Eh]
	-----------------------------------------------------------

  Dipole Moment: [D]
     X:    -8.4077      Y:     0.1670      Z:    -0.6078     Total:     8.4313

*** Psi4 exiting successfully. Buy a developer a beer!
