                               Psi4 1.3.2 release

  ==> Input File <==

--------------------------------------------------------------------------
#psi4
#
memory 32 gb

molecule  {
-2 1
  P        0.9768750    -0.0085140     0.0002390
  O       -0.4537047     0.5230592    -0.0036149
  O        1.7666250     1.3097720    -0.0037790
  O        1.0866210    -0.8364840    -1.2938730
  O        1.0830210    -0.8262340     1.3012490
  C       -1.6429090    -0.4124060    -0.0002650
  C       -3.0065950     0.2536250    -0.0000790
  H       -1.5335210    -1.0590140    -0.8819370
  H       -1.5311640    -1.0543110     0.8844880
  H       -3.8081830    -0.4926330     0.0030840
  H       -3.1205860     0.8863090     0.8845190
  H       -3.1233430     0.8818480    -0.8874810
units angstrom
no_reorient  #important for SAPT in psi4, default
symmetry c1  #important for SAPT in psi4, default
}

set PROPERTIES_ORIGIN ["COM"]
properties('MP2/aug-cc-pvtz', properties = ['dipole'])
--------------------------------------------------------------------------

    Molecular point group: c1
  Charge       = -2
  Multiplicity = 1
  Basis Set: AUG-CC-PVTZ
    Blend: AUG-CC-PVTZ
  Basis Set: (AUG-CC-PVTZ AUX)
    Blend: AUG-CC-PVTZ-JKFIT

    Orbital Energies [Eh]
    ---------------------

    Doubly Occupied:

       1A    -79.630418     2A    -20.212535     3A    -20.084619
       4A    -20.084593     5A    -20.079844     6A    -11.004872
       7A    -10.992420     8A     -7.149194     9A     -5.049447
      10A     -5.046175    11A     -5.045981    12A     -1.042989
      13A     -0.890907    14A     -0.829863    15A     -0.827450
      16A     -0.768067    17A     -0.577136    18A     -0.399528
      19A     -0.374100    20A     -0.316901    21A     -0.297736
      22A     -0.275251    23A     -0.238271    24A     -0.196692
      25A     -0.195856    26A     -0.140253    27A     -0.119653
      28A     -0.072334    29A     -0.064312    30A     -0.063604
      31A     -0.020326    32A     -0.019359    33A      0.006340

  @DF-RHF Final Energy:  -718.98241031177190

   => Energetics <=

    Nuclear Repulsion Energy =            414.6104080515602277
    One-Electron Energy =               -1842.9769461169198621
    Two-Electron Energy =                 709.3841277535877907
    Total Energy =                       -718.9824103117719005
  Basis Set: (AUG-CC-PVTZ AUX)
    Blend: AUG-CC-PVTZ-RI
    Molecular point group: c1

    Geometry (in Angstrom), charge = -2, multiplicity = 1:

       Center              X                  Y                   Z               Mass
    ------------   -----------------  -----------------  -----------------  -----------------
         P            0.840195041124    -0.006155041094     0.000193171951    30.973761998420
         O           -0.590384658876     0.525418158906    -0.003660728049    15.994914619570
         O            1.629945041124     1.312130958906    -0.003824828049    15.994914619570
         O            0.949941041124    -0.834125041094    -1.293918828049    15.994914619570
         O            0.946341041124    -0.823875041094     1.301203171951    15.994914619570
         C           -1.779588958876    -0.410047041094    -0.000310828049    12.000000000000
         C           -3.143274958876     0.255983958906    -0.000124828049    12.000000000000
         H           -1.670200958876    -1.056655041094    -0.881982828049     1.007825032230
         H           -1.667843958876    -1.051952041094     0.884442171951     1.007825032230
         H           -3.944862958876    -0.490274041094     0.003038171951     1.007825032230
         H           -3.257265958876     0.888667958906     0.884473171951     1.007825032230
         H           -3.260022958876     0.884206958906    -0.887526828049     1.007825032230

  Basis Set: AUG-CC-PVTZ
    Blend: AUG-CC-PVTZ
  Basis Set: (AUG-CC-PVTZ AUX)
    Blend: AUG-CC-PVTZ-JKFIT
	 Reference Energy          =    -718.9824103117719005 [Eh]
	 Singles Energy            =      -0.0000000000000000 [Eh]
	 Same-Spin Energy          =      -0.4221491754448831 [Eh]
	 Opposite-Spin Energy      =      -1.2403866513239525 [Eh]
	 Correlation Energy        =      -1.6625358267688357 [Eh]
	 Total Energy              =    -720.6449461385407176 [Eh]

	 ================> DF-SCS-MP2 Energies <==================
	-----------------------------------------------------------
	 SCS Same-Spin Scale       =       0.3333333333333333 [-]
	 SCS Opposite-Spin Scale   =       1.2000000000000000 [-]
	 SCS Same-Spin Energy      =      -0.1407163918149610 [Eh]
	 SCS Opposite-Spin Energy  =      -1.4884639815887430 [Eh]
	 SCS Correlation Energy    =      -1.6291803734037040 [Eh]
	 SCS Total Energy          =    -720.6115906851756563 [Eh]
	-----------------------------------------------------------

  Dipole Moment: [D]
     X:    -9.8757      Y:     0.0350      Z:    -0.0053     Total:     9.8757

*** Psi4 exiting successfully. Buy a developer a beer!
