                               Psi4 1.3.2 release

  ==> Input File <==

--------------------------------------------------------------------------
#psi4
#
memory 32 gb

molecule  {
-2 1
  P        0.9768750    -0.0085140     0.0002390
  O       -0.6322942     0.5834788    -0.0253104
  O        1.7666250     1.3097720    -0.0037790
  O        1.0866210    -0.8364840    -1.2938730
  O        1.0830210    -0.8262340     1.3012490
  C       -1.6429090    -0.4124060    -0.0002650
  C       -3.0065950     0.2536250    -0.0000790
  H       -1.5184184    -1.0485866    -0.8875020
  H       -1.5311640    -1.0543110     0.8844880
  H       -3.8081830    -0.4926330     0.0030840
  H       -3.1205860     0.8863090     0.8845190
  H       -3.1233430     0.8818480    -0.8874810
units angstrom
no_reorient  #important for SAPT in psi4, default
symmetry c1  #important for SAPT in psi4, default
}

set PROPERTIES_ORIGIN ["COM"]
properties('MP2/aug-cc-pvtz', properties = ['dipole'])
--------------------------------------------------------------------------

    Molecular point group: c1
  Charge       = -2
  Multiplicity = 1
  Basis Set: AUG-CC-PVTZ
    Blend: AUG-CC-PVTZ
  Basis Set: (AUG-CC-PVTZ AUX)
    Blend: AUG-CC-PVTZ-JKFIT

    Orbital Energies [Eh]
    ---------------------

    Doubly Occupied:

       1A    -79.656745     2A    -20.210282     3A    -20.103498
       4A    -20.101852     5A    -20.096563     6A    -10.982080
       7A    -10.974156     8A     -7.171755     9A     -5.071238
      10A     -5.068919    11A     -5.068817    12A     -1.021309
      13A     -0.913202    14A     -0.844535    15A     -0.841090
      16A     -0.744100    17A     -0.554410    18A     -0.390280
      19A     -0.364458    20A     -0.303290    21A     -0.281828
      22A     -0.262457    23A     -0.248328    24A     -0.185093
      25A     -0.181101    26A     -0.159911    27A     -0.116073
      28A     -0.080186    29A     -0.078413    30A     -0.076928
      31A     -0.038833    32A     -0.037623    33A     -0.008781

  @DF-RHF Final Energy:  -719.01053521633401

   => Energetics <=

    Nuclear Repulsion Energy =            409.7189018216901673
    One-Electron Energy =               -1832.9826073418612395
    Two-Electron Energy =                 704.2531703038370097
    Total Energy =                       -719.0105352163340058
  Basis Set: (AUG-CC-PVTZ AUX)
    Blend: AUG-CC-PVTZ-RI
    Molecular point group: c1

    Geometry (in Angstrom), charge = -2, multiplicity = 1:

       Center              X                  Y                   Z               Mass
    ------------   -----------------  -----------------  -----------------  -----------------
         P            0.863110152766    -0.014033864237     0.003037102726    30.973761998420
         O           -0.746059047234     0.577958935763    -0.022512297274    15.994914619570
         O            1.652860152766     1.304252135763    -0.000980897274    15.994914619570
         O            0.972856152766    -0.842003864237    -1.291074897274    15.994914619570
         O            0.969256152766    -0.831753864237     1.304047102726    15.994914619570
         C           -1.756673847234    -0.417925864237     0.002533102726    12.000000000000
         C           -3.120359847234     0.248105135763     0.002719102726    12.000000000000
         H           -1.632183247234    -1.054106464237    -0.884703897274     1.007825032230
         H           -1.644928847234    -1.059830864237     0.887286102726     1.007825032230
         H           -3.921947847234    -0.498152864237     0.005882102726     1.007825032230
         H           -3.234350847234     0.880789135763     0.887317102726     1.007825032230
         H           -3.237107847234     0.876328135763    -0.884682897274     1.007825032230

  Basis Set: AUG-CC-PVTZ
    Blend: AUG-CC-PVTZ
  Basis Set: (AUG-CC-PVTZ AUX)
    Blend: AUG-CC-PVTZ-JKFIT
	 Reference Energy          =    -719.0105352163340058 [Eh]
	 Singles Energy            =      -0.0000000000000000 [Eh]
	 Same-Spin Energy          =      -0.4232453051501942 [Eh]
	 Opposite-Spin Energy      =      -1.2430735825870212 [Eh]
	 Correlation Energy        =      -1.6663188877372153 [Eh]
	 Total Energy              =    -720.6768541040712535 [Eh]

	 ================> DF-SCS-MP2 Energies <==================
	-----------------------------------------------------------
	 SCS Same-Spin Scale       =       0.3333333333333333 [-]
	 SCS Opposite-Spin Scale   =       1.2000000000000000 [-]
	 SCS Same-Spin Energy      =      -0.1410817683833981 [Eh]
	 SCS Opposite-Spin Energy  =      -1.4916882991044254 [Eh]
	 SCS Correlation Energy    =      -1.6327700674878234 [Eh]
	 SCS Total Energy          =    -720.6433052838218600 [Eh]
	-----------------------------------------------------------

  Dipole Moment: [D]
     X:    -8.3764      Y:    -0.1711      Z:     0.0245     Total:     8.3782

*** Psi4 exiting successfully. Buy a developer a beer!
