                               Psi4 1.4a3.dev225

  ==> Input File <==

--------------------------------------------------------------------------
#psi4
#
memory 32 gb

molecule  {
-2 1
  P        0.9779190    -0.0071730     0.0036310
  O       -0.6414480     0.5895360    -0.0608370
  O        1.7663530     1.3109990    -0.0273720
  O        1.1203390    -0.8841130    -1.2536930
  O        1.0512740    -0.7793920     1.3338630
  C       -1.6796689    -0.4480554    -0.0011557
  C       -3.0079050     0.2540090    -0.0015060
  H       -1.5542930    -1.0922920    -0.8626040
  H       -1.5171060    -1.0208640     0.9023270
  H       -3.8086770    -0.4913540     0.0489290
  H       -3.1025260     0.9214830     0.8596320
  H       -3.1449030     0.8467680    -0.9102780
units angstrom
no_reorient  #important for SAPT in psi4, default
symmetry c1  #important for SAPT in psi4, default
}

set PROPERTIES_ORIGIN ["COM"]
properties('MP2/aug-cc-pvtz', properties = ['dipole'])
--------------------------------------------------------------------------

    Molecular point group: c1
  Charge       = -2
  Multiplicity = 1
  Basis Set: AUG-CC-PVTZ
    Blend: AUG-CC-PVTZ
  Basis Set: (AUG-CC-PVTZ AUX)
    Blend: AUG-CC-PVTZ-JKFIT

    Orbital Energies [Eh]
    ---------------------

    Doubly Occupied:

       1A    -79.655509     2A    -20.207390     3A    -20.101957
       4A    -20.101877     5A    -20.096095     6A    -10.980453
       7A    -10.974999     8A     -7.170415     9A     -5.069828
      10A     -5.067599    11A     -5.067520    12A     -1.003123
      13A     -0.910182    14A     -0.843644    15A     -0.840638
      16A     -0.748720    17A     -0.558228    18A     -0.381432
      19A     -0.367326    20A     -0.303933    21A     -0.279232
      22A     -0.260563    23A     -0.238613    24A     -0.185968
      25A     -0.184023    26A     -0.158246    27A     -0.118328
      28A     -0.078230    29A     -0.077417    30A     -0.076158
      31A     -0.037751    32A     -0.036535    33A     -0.008177

  @DF-RHF Final Energy:  -719.00600321973843

   => Energetics <=

    Nuclear Repulsion Energy =            408.4352541975003987
    One-Electron Energy =               -1830.5022964233244238
    Two-Electron Energy =                 703.0610390060855934
    Total Energy =                       -719.0060032197384317
  Basis Set: (AUG-CC-PVTZ AUX)
    Blend: AUG-CC-PVTZ-RI
    Molecular point group: c1

    Geometry (in Angstrom), charge = -2, multiplicity = 1:

       Center              X                  Y                   Z               Mass
    ------------   -----------------  -----------------  -----------------  -----------------
         P            0.868749216508    -0.010380775611     0.003709669170    30.973761998420
         O           -0.750617783492     0.586328224389    -0.060758330830    15.994914619570
         O            1.657183216508     1.307791224389    -0.027293330830    15.994914619570
         O            1.011169216508    -0.887320775611    -1.253614330830    15.994914619570
         O            0.942104216508    -0.782599775611     1.333941669170    15.994914619570
         C           -1.788838683492    -0.451263175611    -0.001077030830    12.000000000000
         C           -3.117074783492     0.250801224389    -0.001427330830    12.000000000000
         H           -1.663462783492    -1.095499775611    -0.862525330830     1.007825032230
         H           -1.626275783492    -1.024071775611     0.902405669170     1.007825032230
         H           -3.917846783492    -0.494561775611     0.049007669170     1.007825032230
         H           -3.211695783492     0.918275224389     0.859710669170     1.007825032230
         H           -3.254072783492     0.843560224389    -0.910199330830     1.007825032230

  Basis Set: AUG-CC-PVTZ
    Blend: AUG-CC-PVTZ
  Basis Set: (AUG-CC-PVTZ AUX)
    Blend: AUG-CC-PVTZ-JKFIT
	 Reference Energy          =    -719.0060032197384317 [Eh]
	 Singles Energy            =      -0.0000000000000000 [Eh]
	 Same-Spin Energy          =      -0.4235567902813586 [Eh]
	 Opposite-Spin Energy      =      -1.2443522485241429 [Eh]
	 Correlation Energy        =      -1.6679090388055016 [Eh]
	 Total Energy              =    -720.6739122585439645 [Eh]

	 ================> DF-SCS-MP2 Energies <==================
	-----------------------------------------------------------
	 SCS Same-Spin Scale       =       0.3333333333333333 [-]
	 SCS Opposite-Spin Scale   =       1.2000000000000000 [-]
	 SCS Same-Spin Energy      =      -0.1411855967604529 [Eh]
	 SCS Opposite-Spin Energy  =      -1.4932226982289716 [Eh]
	 SCS Correlation Energy    =      -1.6344082949894245 [Eh]
	 SCS Total Energy          =    -720.6404115147278162 [Eh]
	-----------------------------------------------------------

  Dipole Moment: [D]
     X:    -8.5119      Y:    -0.2789      Z:    -0.0310     Total:     8.5165

*** Psi4 exiting successfully. Buy a developer a beer!
