                               Psi4 1.3.2 release

  ==> Input File <==

--------------------------------------------------------------------------
#psi4
#
memory 32 gb

molecule  {
-2 1
  P        0.9768750    -0.0085140     0.0002390
  O       -0.6385197     0.5995966    -0.0172561
  O        1.7666250     1.3097720    -0.0037790
  O        1.0866210    -0.8364840    -1.2938730
  O        1.0957949    -0.8291850     1.2982826
  C       -1.6429090    -0.4124060    -0.0002650
  C       -3.0065950     0.2536250    -0.0000790
  H       -1.5335210    -1.0590140    -0.8819370
  H       -1.5311640    -1.0543110     0.8844880
  H       -3.8081830    -0.4926330     0.0030840
  H       -3.1205860     0.8863090     0.8845190
  H       -3.1233430     0.8818480    -0.8874810
units angstrom
no_reorient  #important for SAPT in psi4, default
symmetry c1  #important for SAPT in psi4, default
}

set PROPERTIES_ORIGIN ["COM"]
properties('MP2/aug-cc-pvtz', properties = ['dipole'])
--------------------------------------------------------------------------

    Molecular point group: c1
  Charge       = -2
  Multiplicity = 1
  Basis Set: AUG-CC-PVTZ
    Blend: AUG-CC-PVTZ
  Basis Set: (AUG-CC-PVTZ AUX)
    Blend: AUG-CC-PVTZ-JKFIT

    Orbital Energies [Eh]
    ---------------------

    Doubly Occupied:

       1A    -79.657620     2A    -20.211955     3A    -20.104290
       4A    -20.102837     5A    -20.096293     6A    -10.982669
       7A    -10.973788     8A     -7.172550     9A     -5.072000
      10A     -5.069695    11A     -5.069612    12A     -1.017980
      13A     -0.913668    14A     -0.844998    15A     -0.841160
      16A     -0.743912    17A     -0.554305    18A     -0.388782
      19A     -0.363688    20A     -0.303224    21A     -0.279410
      22A     -0.260998    23A     -0.248131    24A     -0.185198
      25A     -0.181269    26A     -0.161473    27A     -0.117020
      28A     -0.080210    29A     -0.079070    30A     -0.077097
      31A     -0.038975    32A     -0.038354    33A     -0.009059

  @DF-RHF Final Energy:  -719.00968343886962

   => Energetics <=

    Nuclear Repulsion Energy =            409.1434044103206134
    One-Electron Energy =               -1831.8235985807316411
    Two-Electron Energy =                 703.6705107315415262
    Total Energy =                       -719.0096834388696152
  Basis Set: (AUG-CC-PVTZ AUX)
    Blend: AUG-CC-PVTZ-RI
    Molecular point group: c1

    Geometry (in Angstrom), charge = -2, multiplicity = 1:

       Center              X                  Y                   Z               Mass
    ------------   -----------------  -----------------  -----------------  -----------------
         P            0.862388171294    -0.015647613241     0.002335535774    30.973761998420
         O           -0.753006528706     0.592462986759    -0.015159564226    15.994914619570
         O            1.652138171294     1.302638386759    -0.001682464226    15.994914619570
         O            0.972134171294    -0.843617613241    -1.291776464226    15.994914619570
         O            0.981308071294    -0.836318613241     1.300379135774    15.994914619570
         C           -1.757395828706    -0.419539613241     0.001831535774    12.000000000000
         C           -3.121081828706     0.246491386759     0.002017535774    12.000000000000
         H           -1.648007828706    -1.066147613241    -0.879840464226     1.007825032230
         H           -1.645650828706    -1.061444613241     0.886584535774     1.007825032230
         H           -3.922669828706    -0.499766613241     0.005180535774     1.007825032230
         H           -3.235072828706     0.879175386759     0.886615535774     1.007825032230
         H           -3.237829828706     0.874714386759    -0.885384464226     1.007825032230

  Basis Set: AUG-CC-PVTZ
    Blend: AUG-CC-PVTZ
  Basis Set: (AUG-CC-PVTZ AUX)
    Blend: AUG-CC-PVTZ-JKFIT
	 Reference Energy          =    -719.0096834388696152 [Eh]
	 Singles Energy            =      -0.0000000000000000 [Eh]
	 Same-Spin Energy          =      -0.4233959514193567 [Eh]
	 Opposite-Spin Energy      =      -1.2436255995681378 [Eh]
	 Correlation Energy        =      -1.6670215509874944 [Eh]
	 Total Energy              =    -720.6767049898570576 [Eh]

	 ================> DF-SCS-MP2 Energies <==================
	-----------------------------------------------------------
	 SCS Same-Spin Scale       =       0.3333333333333333 [-]
	 SCS Opposite-Spin Scale   =       1.2000000000000000 [-]
	 SCS Same-Spin Energy      =      -0.1411319838064522 [Eh]
	 SCS Opposite-Spin Energy  =      -1.4923507194817653 [Eh]
	 SCS Correlation Energy    =      -1.6334827032882175 [Eh]
	 SCS Total Energy          =    -720.6431661421578383 [Eh]
	-----------------------------------------------------------

  Dipole Moment: [D]
     X:    -8.3629      Y:    -0.2073      Z:     0.0226     Total:     8.3655

*** Psi4 exiting successfully. Buy a developer a beer!
