                               Psi4 1.4a3.dev225

  ==> Input File <==

--------------------------------------------------------------------------
#psi4
#
memory 32 gb

molecule  {
-2 1
  P        0.9779190    -0.0071730     0.0036310
  O       -0.6414480     0.5895360    -0.0608370
  O        1.7663530     1.3109990    -0.0273720
  O        1.1203390    -0.8841130    -1.2536930
  O        1.0503213    -0.7693624     1.3165859
  C       -1.6443320    -0.4127400    -0.0031870
  C       -3.0079050     0.2540090    -0.0015060
  H       -1.5542930    -1.0922920    -0.8626040
  H       -1.5171060    -1.0208640     0.9023270
  H       -3.8086770    -0.4913540     0.0489290
  H       -3.1025260     0.9214830     0.8596320
  H       -3.1449030     0.8467680    -0.9102780
units angstrom
no_reorient  #important for SAPT in psi4, default
symmetry c1  #important for SAPT in psi4, default
}

set PROPERTIES_ORIGIN ["COM"]
properties('MP2/aug-cc-pvtz', properties = ['dipole'])
--------------------------------------------------------------------------

    Molecular point group: c1
  Charge       = -2
  Multiplicity = 1
  Basis Set: AUG-CC-PVTZ
    Blend: AUG-CC-PVTZ
  Basis Set: (AUG-CC-PVTZ AUX)
    Blend: AUG-CC-PVTZ-JKFIT

    Orbital Energies [Eh]
    ---------------------

    Doubly Occupied:

       1A    -79.653993     2A    -20.209237     3A    -20.102366
       4A    -20.101528     5A    -20.095741     6A    -10.981173
       7A    -10.972806     8A     -7.169608     9A     -5.069011
      10A     -5.066824    11A     -5.066640    12A     -1.018497
      13A     -0.916616    14A     -0.848065    15A     -0.841004
      16A     -0.742648    17A     -0.553008    18A     -0.388167
      19A     -0.362979    20A     -0.302025    21A     -0.279454
      22A     -0.260428    23A     -0.248282    24A     -0.185599
      25A     -0.180844    26A     -0.161879    27A     -0.115820
      28A     -0.080939    29A     -0.080066    30A     -0.077513
      31A     -0.040019    32A     -0.037656    33A     -0.008726

  @DF-RHF Final Energy:  -719.01150324338721

   => Energetics <=

    Nuclear Repulsion Energy =            410.1363541771257246
    One-Electron Energy =               -1833.8573968751627490
    Two-Electron Energy =                 704.7095394546498710
    Total Energy =                       -719.0115032433872102
  Basis Set: (AUG-CC-PVTZ AUX)
    Blend: AUG-CC-PVTZ-RI
    Molecular point group: c1

    Geometry (in Angstrom), charge = -2, multiplicity = 1:

       Center              X                  Y                   Z               Mass
    ------------   -----------------  -----------------  -----------------  -----------------
         P            0.865452208267    -0.015092408820     0.006134987062    30.973761998420
         O           -0.753914791733     0.581616591180    -0.058333012938    15.994914619570
         O            1.653886208267     1.303079591180    -0.024868012938    15.994914619570
         O            1.007872208267    -0.892032408820    -1.251189012938    15.994914619570
         O            0.937854508267    -0.777281808820     1.319089887062    15.994914619570
         C           -1.756798791733    -0.420659408820    -0.000683012938    12.000000000000
         C           -3.120371791733     0.246089591180     0.000997987062    12.000000000000
         H           -1.666759791733    -1.100211408820    -0.860100012938     1.007825032230
         H           -1.629572791733    -1.028783408820     0.904830987062     1.007825032230
         H           -3.921143791733    -0.499273408820     0.051432987062     1.007825032230
         H           -3.214992791733     0.913563591180     0.862135987062     1.007825032230
         H           -3.257369791733     0.838848591180    -0.907774012938     1.007825032230

  Basis Set: AUG-CC-PVTZ
    Blend: AUG-CC-PVTZ
  Basis Set: (AUG-CC-PVTZ AUX)
    Blend: AUG-CC-PVTZ-JKFIT
	 Reference Energy          =    -719.0115032433872102 [Eh]
	 Singles Energy            =      -0.0000000000000000 [Eh]
	 Same-Spin Energy          =      -0.4229684802308254 [Eh]
	 Opposite-Spin Energy      =      -1.2424097014144191 [Eh]
	 Correlation Energy        =      -1.6653781816452446 [Eh]
	 Total Energy              =    -720.6768814250324340 [Eh]

	 ================> DF-SCS-MP2 Energies <==================
	-----------------------------------------------------------
	 SCS Same-Spin Scale       =       0.3333333333333333 [-]
	 SCS Opposite-Spin Scale   =       1.2000000000000000 [-]
	 SCS Same-Spin Energy      =      -0.1409894934102751 [Eh]
	 SCS Opposite-Spin Energy  =      -1.4908916416973028 [Eh]
	 SCS Correlation Energy    =      -1.6318811351075779 [Eh]
	 SCS Total Energy          =    -720.6433843784948294 [Eh]
	-----------------------------------------------------------

  Dipole Moment: [D]
     X:    -8.2767      Y:    -0.2528      Z:     0.0895     Total:     8.2810

*** Psi4 exiting successfully. Buy a developer a beer!
