                               Psi4 1.3.2 release

  ==> Input File <==

--------------------------------------------------------------------------
#psi4
#
memory 32 gb

molecule  {
-2 1
  P        0.9768750    -0.0085140     0.0002390
  O       -0.6545480     0.5505242     0.0746684
  O        1.7666250     1.3097720    -0.0037790
  O        1.0866210    -0.8364840    -1.2938730
  O        1.0062421    -0.8072286     1.3169594
  C       -1.6429090    -0.4124060    -0.0002650
  C       -3.0065950     0.2536250    -0.0000790
  H       -1.5335210    -1.0590140    -0.8819370
  H       -1.5311640    -1.0543110     0.8844880
  H       -3.8081830    -0.4926330     0.0030840
  H       -3.1205860     0.8863090     0.8845190
  H       -3.1233430     0.8818480    -0.8874810
units angstrom
no_reorient  #important for SAPT in psi4, default
symmetry c1  #important for SAPT in psi4, default
}

set PROPERTIES_ORIGIN ["COM"]
properties('MP2/aug-cc-pvtz', properties = ['dipole'])
--------------------------------------------------------------------------

    Molecular point group: c1
  Charge       = -2
  Multiplicity = 1
  Basis Set: AUG-CC-PVTZ
    Blend: AUG-CC-PVTZ
  Basis Set: (AUG-CC-PVTZ AUX)
    Blend: AUG-CC-PVTZ-JKFIT

    Orbital Energies [Eh]
    ---------------------

    Doubly Occupied:

       1A    -79.660018     2A    -20.203087     3A    -20.109251
       4A    -20.102548     5A    -20.100081     6A    -10.975300
       7A    -10.969413     8A     -7.174836     9A     -5.074392
      10A     -5.072020    11A     -5.071798    12A     -1.027676
      13A     -0.916803    14A     -0.848069    15A     -0.844345
      16A     -0.738458    17A     -0.549265    18A     -0.392432
      19A     -0.361952    20A     -0.299832    21A     -0.283945
      22A     -0.260664    23A     -0.251320    24A     -0.185123
      25A     -0.179816    26A     -0.158901    27A     -0.110761
      28A     -0.083448    29A     -0.079653    30A     -0.077525
      31A     -0.044221    32A     -0.037815    33A     -0.012403

  @DF-RHF Final Energy:  -719.00992506987347

   => Energetics <=

    Nuclear Repulsion Energy =            410.5067719689782280
    One-Electron Energy =               -1834.5190533390066321
    Two-Electron Energy =                 705.0023563001549292
    Total Energy =                       -719.0099250698734750
  Basis Set: (AUG-CC-PVTZ AUX)
    Blend: AUG-CC-PVTZ-RI
    Molecular point group: c1

    Geometry (in Angstrom), charge = -2, multiplicity = 1:

       Center              X                  Y                   Z               Mass
    ------------   -----------------  -----------------  -----------------  -----------------
         P            0.876008027805    -0.012149676308    -0.011931921526    30.973761998420
         O           -0.755414972195     0.546888523692     0.062497478474    15.994914619570
         O            1.665758027805     1.306136323692    -0.015949921526    15.994914619570
         O            0.985754027805    -0.840119676308    -1.306043921526    15.994914619570
         O            0.905375127805    -0.810864276308     1.304788478474    15.994914619570
         C           -1.743775972195    -0.416041676308    -0.012435921526    12.000000000000
         C           -3.107461972195     0.249989323692    -0.012249921526    12.000000000000
         H           -1.634387972195    -1.062649676308    -0.894107921526     1.007825032230
         H           -1.632030972195    -1.057946676308     0.872317078474     1.007825032230
         H           -3.909049972195    -0.496268676308    -0.009086921526     1.007825032230
         H           -3.221452972195     0.882673323692     0.872348078474     1.007825032230
         H           -3.224209972195     0.878212323692    -0.899651921526     1.007825032230

  Basis Set: AUG-CC-PVTZ
    Blend: AUG-CC-PVTZ
  Basis Set: (AUG-CC-PVTZ AUX)
    Blend: AUG-CC-PVTZ-JKFIT
	 Reference Energy          =    -719.0099250698734750 [Eh]
	 Singles Energy            =      -0.0000000000000000 [Eh]
	 Same-Spin Energy          =      -0.4233963813097247 [Eh]
	 Opposite-Spin Energy      =      -1.2427131927554793 [Eh]
	 Correlation Energy        =      -1.6661095740652039 [Eh]
	 Total Energy              =    -720.6760346439386922 [Eh]

	 ================> DF-SCS-MP2 Energies <==================
	-----------------------------------------------------------
	 SCS Same-Spin Scale       =       0.3333333333333333 [-]
	 SCS Opposite-Spin Scale   =       1.2000000000000000 [-]
	 SCS Same-Spin Energy      =      -0.1411321271032416 [Eh]
	 SCS Opposite-Spin Energy  =      -1.4912558313065751 [Eh]
	 SCS Correlation Energy    =      -1.6323879584098167 [Eh]
	 SCS Total Energy          =    -720.6423130282832972 [Eh]
	-----------------------------------------------------------

  Dipole Moment: [D]
     X:    -7.9271      Y:    -0.1225      Z:    -0.1591     Total:     7.9297

*** Psi4 exiting successfully. Buy a developer a beer!
