                               Psi4 1.3.2 release

  ==> Input File <==

--------------------------------------------------------------------------
#psi4
#
memory 32 gb

molecule  {
-2 1
  P        0.9768750    -0.0085140     0.0002390
  O       -0.6437171     0.5857996     0.0090164
  O        1.7666250     1.3097720    -0.0037790
  O        1.0866210    -0.8364840    -1.2938730
  O        1.0702390    -0.8232207     1.3041163
  C       -1.6429090    -0.4124060    -0.0002650
  C       -3.0065950     0.2536250    -0.0000790
  H       -1.5335210    -1.0590140    -0.8819370
  H       -1.5311640    -1.0543110     0.8844880
  H       -3.8081830    -0.4926330     0.0030840
  H       -3.1205860     0.8863090     0.8845190
  H       -3.1233430     0.8818480    -0.8874810
units angstrom
no_reorient  #important for SAPT in psi4, default
symmetry c1  #important for SAPT in psi4, default
}

set PROPERTIES_ORIGIN ["COM"]
properties('MP2/aug-cc-pvtz', properties = ['dipole'])
--------------------------------------------------------------------------

    Molecular point group: c1
  Charge       = -2
  Multiplicity = 1
  Basis Set: AUG-CC-PVTZ
    Blend: AUG-CC-PVTZ
  Basis Set: (AUG-CC-PVTZ AUX)
    Blend: AUG-CC-PVTZ-JKFIT

    Orbital Energies [Eh]
    ---------------------

    Doubly Occupied:

       1A    -79.658279     2A    -20.209519     3A    -20.104667
       4A    -20.103157     5A    -20.098084     6A    -10.980550
       7A    -10.972532     8A     -7.173172     9A     -5.072649
      10A     -5.070325    11A     -5.070217    12A     -1.020884
      13A     -0.914573    14A     -0.845707    15A     -0.842314
      16A     -0.742343    17A     -0.552861    18A     -0.389925
      19A     -0.363291    20A     -0.302241    21A     -0.280691
      22A     -0.261026    23A     -0.249123    24A     -0.185220
      25A     -0.180525    26A     -0.161036    27A     -0.115170
      28A     -0.080615    29A     -0.079133    30A     -0.078038
      31A     -0.040142    32A     -0.038980    33A     -0.010069

  @DF-RHF Final Energy:  -719.01087738497813

   => Energetics <=

    Nuclear Repulsion Energy =            409.5290145130797441
    One-Electron Energy =               -1832.5856647734344733
    Two-Electron Energy =                 704.0457728753765423
    Total Energy =                       -719.0108773849781301
  Basis Set: (AUG-CC-PVTZ AUX)
    Blend: AUG-CC-PVTZ-RI
    Molecular point group: c1

    Geometry (in Angstrom), charge = -2, multiplicity = 1:

       Center              X                  Y                   Z               Mass
    ------------   -----------------  -----------------  -----------------  -----------------
         P            0.866355316297    -0.014637202759    -0.001806131979    30.973761998420
         O           -0.754236783703     0.579676397241     0.006971268021    15.994914619570
         O            1.656105316297     1.303648797241    -0.005824131979    15.994914619570
         O            0.976101316297    -0.842607202759    -1.295918131979    15.994914619570
         O            0.959719316297    -0.829343902759     1.302071168021    15.994914619570
         C           -1.753428683703    -0.418529202759    -0.002310131979    12.000000000000
         C           -3.117114683703     0.247501797241    -0.002124131979    12.000000000000
         H           -1.644040683703    -1.065137202759    -0.883982131979     1.007825032230
         H           -1.641683683703    -1.060434202759     0.882442868021     1.007825032230
         H           -3.918702683703    -0.498756202759     0.001038868021     1.007825032230
         H           -3.231105683703     0.880185797241     0.882473868021     1.007825032230
         H           -3.233862683703     0.875724797241    -0.889526131979     1.007825032230

  Basis Set: AUG-CC-PVTZ
    Blend: AUG-CC-PVTZ
  Basis Set: (AUG-CC-PVTZ AUX)
    Blend: AUG-CC-PVTZ-JKFIT
	 Reference Energy          =    -719.0108773849781301 [Eh]
	 Singles Energy            =      -0.0000000000000000 [Eh]
	 Same-Spin Energy          =      -0.4233390709492777 [Eh]
	 Opposite-Spin Energy      =      -1.2432449271116572 [Eh]
	 Correlation Energy        =      -1.6665839980609349 [Eh]
	 Total Energy              =    -720.6774613830390308 [Eh]

	 ================> DF-SCS-MP2 Energies <==================
	-----------------------------------------------------------
	 SCS Same-Spin Scale       =       0.3333333333333333 [-]
	 SCS Opposite-Spin Scale   =       1.2000000000000000 [-]
	 SCS Same-Spin Energy      =      -0.1411130236497592 [Eh]
	 SCS Opposite-Spin Energy  =      -1.4918939125339887 [Eh]
	 SCS Correlation Energy    =      -1.6330069361837480 [Eh]
	 SCS Total Energy          =    -720.6438843211618632 [Eh]
	-----------------------------------------------------------

  Dipole Moment: [D]
     X:    -8.2410      Y:    -0.1841      Z:    -0.0290     Total:     8.2431

*** Psi4 exiting successfully. Buy a developer a beer!
