                               Psi4 1.3.2 release

  ==> Input File <==

--------------------------------------------------------------------------
#psi4
#
memory 32 gb

molecule  {
-2 1
  P        0.9768750    -0.0085140     0.0002390
  O       -0.5474424     0.5578901    -0.0038675
  O        1.7666250     1.3097720    -0.0037790
  O        1.0866210    -0.8364840    -1.2938730
  O        1.0830210    -0.8262340     1.3012490
  C       -1.6429090    -0.4124060    -0.0002650
  C       -3.0065950     0.2536250    -0.0000790
  H       -1.5335210    -1.0590140    -0.8819370
  H       -1.5311640    -1.0543110     0.8844880
  H       -3.8081830    -0.4926330     0.0030840
  H       -3.1205860     0.8863090     0.8845190
  H       -3.1233430     0.8818480    -0.8874810
units angstrom
no_reorient  #important for SAPT in psi4, default
symmetry c1  #important for SAPT in psi4, default
}

set PROPERTIES_ORIGIN ["COM"]
properties('MP2/aug-cc-pvtz', properties = ['dipole'])
--------------------------------------------------------------------------

    Molecular point group: c1
  Charge       = -2
  Multiplicity = 1
  Basis Set: AUG-CC-PVTZ
    Blend: AUG-CC-PVTZ
  Basis Set: (AUG-CC-PVTZ AUX)
    Blend: AUG-CC-PVTZ-JKFIT

    Orbital Energies [Eh]
    ---------------------

    Doubly Occupied:

       1A    -79.645354     2A    -20.213093     3A    -20.094298
       4A    -20.094271     5A    -20.088682     6A    -10.992470
       7A    -10.982669     8A     -7.161624     9A     -5.061341
      10A     -5.058813    11A     -5.058672    12A     -1.027850
      13A     -0.902834    14A     -0.837636    15A     -0.834645
      16A     -0.755636    17A     -0.565074    18A     -0.394947
      19A     -0.368303    20A     -0.309083    21A     -0.288273
      22A     -0.267836    23A     -0.244117    24A     -0.187936
      25A     -0.187551    26A     -0.151282    27A     -0.120154
      28A     -0.077225    29A     -0.072005    30A     -0.070738
      31A     -0.030309    32A     -0.029376    33A     -0.001684

  @DF-RHF Final Energy:  -719.00438798365121

   => Energetics <=

    Nuclear Repulsion Energy =            411.7976657949129731
    One-Electron Energy =               -1837.2525501207308025
    Two-Electron Energy =                 706.4504963421666162
    Total Energy =                       -719.0043879836512133
  Basis Set: (AUG-CC-PVTZ AUX)
    Blend: AUG-CC-PVTZ-RI
    Molecular point group: c1

    Geometry (in Angstrom), charge = -2, multiplicity = 1:

       Center              X                  Y                   Z               Mass
    ------------   -----------------  -----------------  -----------------  -----------------
         P            0.852287110856    -0.010648192426     0.000225757099    30.973761998420
         O           -0.672030289144     0.555755907574    -0.003880742901    15.994914619570
         O            1.642037110856     1.307637807574    -0.003792242901    15.994914619570
         O            0.962033110856    -0.838618192426    -1.293886242901    15.994914619570
         O            0.958433110856    -0.828368192426     1.301235757099    15.994914619570
         C           -1.767496889144    -0.414540192426    -0.000278242901    12.000000000000
         C           -3.131182889144     0.251490807574    -0.000092242901    12.000000000000
         H           -1.658108889144    -1.061148192426    -0.881950242901     1.007825032230
         H           -1.655751889144    -1.056445192426     0.884474757099     1.007825032230
         H           -3.932770889144    -0.494767192426     0.003070757099     1.007825032230
         H           -3.245173889144     0.884174807574     0.884505757099     1.007825032230
         H           -3.247930889144     0.879713807574    -0.887494242901     1.007825032230

  Basis Set: AUG-CC-PVTZ
    Blend: AUG-CC-PVTZ
  Basis Set: (AUG-CC-PVTZ AUX)
    Blend: AUG-CC-PVTZ-JKFIT
	 Reference Energy          =    -719.0043879836512133 [Eh]
	 Singles Energy            =      -0.0000000000000000 [Eh]
	 Same-Spin Energy          =      -0.4225799274330522 [Eh]
	 Opposite-Spin Energy      =      -1.2416143866976572 [Eh]
	 Correlation Energy        =      -1.6641943141307094 [Eh]
	 Total Energy              =    -720.6685822977818816 [Eh]

	 ================> DF-SCS-MP2 Energies <==================
	-----------------------------------------------------------
	 SCS Same-Spin Scale       =       0.3333333333333333 [-]
	 SCS Opposite-Spin Scale   =       1.2000000000000000 [-]
	 SCS Same-Spin Energy      =      -0.1408599758110174 [Eh]
	 SCS Opposite-Spin Energy  =      -1.4899372640371886 [Eh]
	 SCS Correlation Energy    =      -1.6307972398482060 [Eh]
	 SCS Total Energy          =    -720.6351852234994340 [Eh]
	-----------------------------------------------------------

  Dipole Moment: [D]
     X:    -9.0910      Y:    -0.0893      Z:    -0.0042     Total:     9.0915

*** Psi4 exiting successfully. Buy a developer a beer!
