                               Psi4 1.3.2 release

  ==> Input File <==

--------------------------------------------------------------------------
#psi4
#
memory 32 gb

molecule  {
-2 1
  P        0.9768750    -0.0085140     0.0002390
  O       -0.6588746     0.6100505    -0.0041392
  O        1.7666250     1.3097720    -0.0037790
  O        1.0866210    -0.8364840    -1.2938730
  O        1.0830210    -0.8262340     1.3012490
  C       -1.6429090    -0.4124060    -0.0002650
  C       -2.9947635     0.2773231    -0.0001540
  H       -1.5335210    -1.0590140    -0.8819370
  H       -1.5311640    -1.0543110     0.8844880
  H       -3.8081830    -0.4926330     0.0030840
  H       -3.1205860     0.8863090     0.8845190
  H       -3.1233430     0.8818480    -0.8874810
units angstrom
no_reorient  #important for SAPT in psi4, default
symmetry c1  #important for SAPT in psi4, default
}

set PROPERTIES_ORIGIN ["COM"]
properties('MP2/aug-cc-pvtz', properties = ['dipole'])
--------------------------------------------------------------------------

    Molecular point group: c1
  Charge       = -2
  Multiplicity = 1
  Basis Set: AUG-CC-PVTZ
    Blend: AUG-CC-PVTZ
  Basis Set: (AUG-CC-PVTZ AUX)
    Blend: AUG-CC-PVTZ-JKFIT

    Orbital Energies [Eh]
    ---------------------

    Doubly Occupied:

       1A    -79.660114     2A    -20.210042     3A    -20.105957
       4A    -20.105925     5A    -20.098308     6A    -10.980190
       7A    -10.971661     8A     -7.174858     9A     -5.074277
      10A     -5.071975    11A     -5.071901    12A     -1.015708
      13A     -0.915990    14A     -0.847117    15A     -0.842956
      16A     -0.740239    17A     -0.552033    18A     -0.385166
      19A     -0.365700    20A     -0.297865    21A     -0.276783
      22A     -0.263066    23A     -0.246051    24A     -0.185751
      25A     -0.180309    26A     -0.163716    27A     -0.115563
      28A     -0.081011    29A     -0.079742    30A     -0.078936
      31A     -0.040977    32A     -0.040779    33A     -0.011155

  @DF-RHF Final Energy:  -719.00860654796247

   => Energetics <=

    Nuclear Repulsion Energy =            408.7834097076487296
    One-Electron Energy =               -1831.0803887259662588
    Two-Electron Energy =                 703.2883724703549433
    Total Energy =                       -719.0086065479624722
  Basis Set: (AUG-CC-PVTZ AUX)
    Blend: AUG-CC-PVTZ-RI
    Molecular point group: c1

    Geometry (in Angstrom), charge = -2, multiplicity = 1:

       Center              X                  Y                   Z               Mass
    ------------   -----------------  -----------------  -----------------  -----------------
         P            0.865516700719    -0.019670334352     0.000268064629    30.973761998420
         O           -0.770232899281     0.598894165648    -0.004110135371    15.994914619570
         O            1.655266700719     1.298615665648    -0.003749935371    15.994914619570
         O            0.975262700719    -0.847640334352    -1.293843935371    15.994914619570
         O            0.971662700719    -0.837390334352     1.301278064629    15.994914619570
         C           -1.754267299281    -0.423562334352    -0.000235935371    12.000000000000
         C           -3.106121799281     0.266166765648    -0.000124935371    12.000000000000
         H           -1.644879299281    -1.070170334352    -0.881907935371     1.007825032230
         H           -1.642522299281    -1.065467334352     0.884517064629     1.007825032230
         H           -3.919541299281    -0.503789334352     0.003113064629     1.007825032230
         H           -3.231944299281     0.875152665648     0.884548064629     1.007825032230
         H           -3.234701299281     0.870691665648    -0.887451935371     1.007825032230

  Basis Set: AUG-CC-PVTZ
    Blend: AUG-CC-PVTZ
  Basis Set: (AUG-CC-PVTZ AUX)
    Blend: AUG-CC-PVTZ-JKFIT
	 Reference Energy          =    -719.0086065479624722 [Eh]
	 Singles Energy            =      -0.0000000000000000 [Eh]
	 Same-Spin Energy          =      -0.4236496126147464 [Eh]
	 Opposite-Spin Energy      =      -1.2442346917214888 [Eh]
	 Correlation Energy        =      -1.6678843043362352 [Eh]
	 Total Energy              =    -720.6764908522986843 [Eh]

	 ================> DF-SCS-MP2 Energies <==================
	-----------------------------------------------------------
	 SCS Same-Spin Scale       =       0.3333333333333333 [-]
	 SCS Opposite-Spin Scale   =       1.2000000000000000 [-]
	 SCS Same-Spin Energy      =      -0.1412165375382488 [Eh]
	 SCS Opposite-Spin Energy  =      -1.4930816300657865 [Eh]
	 SCS Correlation Energy    =      -1.6342981676040353 [Eh]
	 SCS Total Energy          =    -720.6429047155664875 [Eh]
	-----------------------------------------------------------

  Dipole Moment: [D]
     X:    -8.1238      Y:    -0.1913      Z:    -0.0031     Total:     8.1260

*** Psi4 exiting successfully. Buy a developer a beer!
