                               Psi4 1.4a3.dev225

  ==> Input File <==

--------------------------------------------------------------------------
#psi4
#
memory 32 gb

molecule  {
-2 1
  P        0.9779190    -0.0071730     0.0036310
  O       -0.6602014     0.5964463    -0.0615836
  O        1.7663530     1.3109990    -0.0273720
  O        1.1203390    -0.8841130    -1.2536930
  O        1.0512740    -0.7793920     1.3338630
  C       -1.6443320    -0.4127400    -0.0031870
  C       -3.0079050     0.2540090    -0.0015060
  H       -1.5542930    -1.0922920    -0.8626040
  H       -1.5171060    -1.0208640     0.9023270
  H       -3.8086770    -0.4913540     0.0489290
  H       -3.1025260     0.9214830     0.8596320
  H       -3.1449030     0.8467680    -0.9102780
units angstrom
no_reorient  #important for SAPT in psi4, default
symmetry c1  #important for SAPT in psi4, default
}

set PROPERTIES_ORIGIN ["COM"]
properties('MP2/aug-cc-pvtz', properties = ['dipole'])
--------------------------------------------------------------------------

    Molecular point group: c1
  Charge       = -2
  Multiplicity = 1
  Basis Set: AUG-CC-PVTZ
    Blend: AUG-CC-PVTZ
  Basis Set: (AUG-CC-PVTZ AUX)
    Blend: AUG-CC-PVTZ-JKFIT

    Orbital Energies [Eh]
    ---------------------

    Doubly Occupied:

       1A    -79.660073     2A    -20.209879     3A    -20.105320
       4A    -20.105284     5A    -20.099286     6A    -10.979645
       7A    -10.971292     8A     -7.174845     9A     -5.074274
      10A     -5.071961    11A     -5.071889    12A     -1.018170
      13A     -0.916508    14A     -0.846686    15A     -0.843624
      16A     -0.740613    17A     -0.551365    18A     -0.387977
      19A     -0.362585    20A     -0.301602    21A     -0.278707
      22A     -0.259623    23A     -0.249170    24A     -0.185267
      25A     -0.179835    26A     -0.163116    27A     -0.114824
      28A     -0.081421    29A     -0.079970    30A     -0.078978
      31A     -0.041505    32A     -0.040422    33A     -0.011148

  @DF-RHF Final Energy:  -719.01026847547280

   => Energetics <=

    Nuclear Repulsion Energy =            408.8425912062033376
    One-Electron Energy =               -1831.1919964531257392
    Two-Electron Energy =                 703.3391367714494891
    Total Energy =                       -719.0102684754727989
  Basis Set: (AUG-CC-PVTZ AUX)
    Blend: AUG-CC-PVTZ-RI
    Molecular point group: c1

    Geometry (in Angstrom), charge = -2, multiplicity = 1:

       Center              X                  Y                   Z               Mass
    ------------   -----------------  -----------------  -----------------  -----------------
         P            0.867748480798    -0.014690022233     0.004002569062    30.973761998420
         O           -0.770371919202     0.588929277767    -0.061212030938    15.994914619570
         O            1.656182480798     1.303481977767    -0.027000430938    15.994914619570
         O            1.010168480798    -0.891630022233    -1.253321430938    15.994914619570
         O            0.941103480798    -0.786909022233     1.334234569062    15.994914619570
         C           -1.754502519202    -0.420257022233    -0.002815430938    12.000000000000
         C           -3.118075519202     0.246491977767    -0.001134430938    12.000000000000
         H           -1.664463519202    -1.099809022233    -0.862232430938     1.007825032230
         H           -1.627276519202    -1.028381022233     0.902698569062     1.007825032230
         H           -3.918847519202    -0.498871022233     0.049300569062     1.007825032230
         H           -3.212696519202     0.913965977767     0.860003569062     1.007825032230
         H           -3.255073519202     0.839250977767    -0.909906430938     1.007825032230

  Basis Set: AUG-CC-PVTZ
    Blend: AUG-CC-PVTZ
  Basis Set: (AUG-CC-PVTZ AUX)
    Blend: AUG-CC-PVTZ-JKFIT
	 Reference Energy          =    -719.0102684754727989 [Eh]
	 Singles Energy            =      -0.0000000000000000 [Eh]
	 Same-Spin Energy          =      -0.4235150324047588 [Eh]
	 Opposite-Spin Energy      =      -1.2437608141493950 [Eh]
	 Correlation Energy        =      -1.6672758465541537 [Eh]
	 Total Energy              =    -720.6775443220269608 [Eh]

	 ================> DF-SCS-MP2 Energies <==================
	-----------------------------------------------------------
	 SCS Same-Spin Scale       =       0.3333333333333333 [-]
	 SCS Opposite-Spin Scale   =       1.2000000000000000 [-]
	 SCS Same-Spin Energy      =      -0.1411716774682529 [Eh]
	 SCS Opposite-Spin Energy  =      -1.4925129769792740 [Eh]
	 SCS Correlation Energy    =      -1.6336846544475270 [Eh]
	 SCS Total Energy          =    -720.6439531299203054 [Eh]
	-----------------------------------------------------------

  Dipole Moment: [D]
     X:    -8.1363      Y:    -0.2044      Z:    -0.0308     Total:     8.1389

*** Psi4 exiting successfully. Buy a developer a beer!
