                               Psi4 1.4a3.dev225

  ==> Input File <==

--------------------------------------------------------------------------
#psi4
#
memory 32 gb

molecule  {
-2 1
  P        0.9779190    -0.0071730     0.0036310
  O       -0.6414480     0.5895360    -0.0608370
  O        1.7663530     1.3109990    -0.0273720
  O        1.1203390    -0.8841130    -1.2536930
  O        1.0522267    -0.7894216     1.3511401
  C       -1.6443320    -0.4127400    -0.0031870
  C       -3.0079050     0.2540090    -0.0015060
  H       -1.5542930    -1.0922920    -0.8626040
  H       -1.5171060    -1.0208640     0.9023270
  H       -3.8086770    -0.4913540     0.0489290
  H       -3.1025260     0.9214830     0.8596320
  H       -3.1449030     0.8467680    -0.9102780
units angstrom
no_reorient  #important for SAPT in psi4, default
symmetry c1  #important for SAPT in psi4, default
}

set PROPERTIES_ORIGIN ["COM"]
properties('MP2/aug-cc-pvtz', properties = ['dipole'])
--------------------------------------------------------------------------

    Molecular point group: c1
  Charge       = -2
  Multiplicity = 1
  Basis Set: AUG-CC-PVTZ
    Blend: AUG-CC-PVTZ
  Basis Set: (AUG-CC-PVTZ AUX)
    Blend: AUG-CC-PVTZ-JKFIT

    Orbital Energies [Eh]
    ---------------------

    Doubly Occupied:

       1A    -79.661401     2A    -20.212041     3A    -20.105282
       4A    -20.104492     5A    -20.099467     6A    -10.982125
       7A    -10.973528     8A     -7.175751     9A     -5.075252
      10A     -5.072929    11A     -5.072734    12A     -1.019885
      13A     -0.912685    14A     -0.844820    15A     -0.840348
      16A     -0.743577    17A     -0.554064    18A     -0.390190
      19A     -0.363901    20A     -0.303339    21A     -0.280631
      22A     -0.261483    23A     -0.249001    24A     -0.184745
      25A     -0.181061    26A     -0.160937    27A     -0.116320
      28A     -0.081083    29A     -0.078356    30A     -0.076707
      31A     -0.040657    32A     -0.038255    33A     -0.010360

  @DF-RHF Final Energy:  -719.00892409040307

   => Energetics <=

    Nuclear Repulsion Energy =            408.4749543581230569
    One-Electron Energy =               -1830.4329461338488727
    Two-Electron Energy =                 702.9490676853226887
    Total Energy =                       -719.0089240904030703
  Basis Set: (AUG-CC-PVTZ AUX)
    Blend: AUG-CC-PVTZ-RI
    Molecular point group: c1

    Geometry (in Angstrom), charge = -2, multiplicity = 1:

       Center              X                  Y                   Z               Mass
    ------------   -----------------  -----------------  -----------------  -----------------
         P            0.865206413569    -0.012504792043     0.001677529753    30.973761998420
         O           -0.754160586431     0.584204207957    -0.062790470247    15.994914619570
         O            1.653640413569     1.305667207957    -0.029325470247    15.994914619570
         O            1.007626413569    -0.889444792043    -1.255646470247    15.994914619570
         O            0.939514113569    -0.794753392043     1.349186629753    15.994914619570
         C           -1.757044586431    -0.418071792043    -0.005140470247    12.000000000000
         C           -3.120617586431     0.248677207957    -0.003459470247    12.000000000000
         H           -1.667005586431    -1.097623792043    -0.864557470247     1.007825032230
         H           -1.629818586431    -1.026195792043     0.900373529753     1.007825032230
         H           -3.921389586431    -0.496685792043     0.046975529753     1.007825032230
         H           -3.215238586431     0.916151207957     0.857678529753     1.007825032230
         H           -3.257615586431     0.841436207957    -0.912231470247     1.007825032230

  Basis Set: AUG-CC-PVTZ
    Blend: AUG-CC-PVTZ
  Basis Set: (AUG-CC-PVTZ AUX)
    Blend: AUG-CC-PVTZ-JKFIT
	 Reference Energy          =    -719.0089240904030703 [Eh]
	 Singles Energy            =      -0.0000000000000000 [Eh]
	 Same-Spin Energy          =      -0.4236720538892583 [Eh]
	 Opposite-Spin Energy      =      -1.2442769360756767 [Eh]
	 Correlation Energy        =      -1.6679489899649349 [Eh]
	 Total Energy              =    -720.6768730803679546 [Eh]

	 ================> DF-SCS-MP2 Energies <==================
	-----------------------------------------------------------
	 SCS Same-Spin Scale       =       0.3333333333333333 [-]
	 SCS Opposite-Spin Scale   =       1.2000000000000000 [-]
	 SCS Same-Spin Energy      =      -0.1412240179630861 [Eh]
	 SCS Opposite-Spin Energy  =      -1.4931323232908120 [Eh]
	 SCS Correlation Energy    =      -1.6343563412538982 [Eh]
	 SCS Total Energy          =    -720.6432804316569900 [Eh]
	-----------------------------------------------------------

  Dipole Moment: [D]
     X:    -8.3122      Y:    -0.1177      Z:    -0.1570     Total:     8.3145

*** Psi4 exiting successfully. Buy a developer a beer!
