                               Psi4 1.3.2 release

  ==> Input File <==

--------------------------------------------------------------------------
#psi4
#
memory 32 gb

molecule  {
-2 1
  P        0.9768750    -0.0085140     0.0002390
  O       -0.6067116     0.5571488    -0.0040781
  O        1.7666250     1.3097720    -0.0037790
  O        1.0866210    -0.8364840    -1.2938730
  O        1.0830210    -0.8262340     1.3012490
  C       -1.6429090    -0.4124060    -0.0002650
  C       -3.0290083     0.2056275     0.0000707
  H       -1.5335210    -1.0590140    -0.8819370
  H       -1.5311640    -1.0543110     0.8844880
  H       -3.8081830    -0.4926330     0.0030840
  H       -3.1205860     0.8863090     0.8845190
  H       -3.1233430     0.8818480    -0.8874810
units angstrom
no_reorient  #important for SAPT in psi4, default
symmetry c1  #important for SAPT in psi4, default
}

set PROPERTIES_ORIGIN ["COM"]
properties('MP2/aug-cc-pvtz', properties = ['dipole'])
--------------------------------------------------------------------------

    Molecular point group: c1
  Charge       = -2
  Multiplicity = 1
  Basis Set: AUG-CC-PVTZ
    Blend: AUG-CC-PVTZ
  Basis Set: (AUG-CC-PVTZ AUX)
    Blend: AUG-CC-PVTZ-JKFIT

    Orbital Energies [Eh]
    ---------------------

    Doubly Occupied:

       1A    -79.653704     2A    -20.212138     3A    -20.099492
       4A    -20.099472     5A    -20.095189     6A    -10.985079
       7A    -10.977164     8A     -7.169035     9A     -5.068616
      10A     -5.066216    11A     -5.066091    12A     -1.027836
      13A     -0.910589    14A     -0.841968    15A     -0.839533
      16A     -0.749376    17A     -0.558223    18A     -0.398023
      19A     -0.360255    20A     -0.316107    21A     -0.287310
      22A     -0.256646    23A     -0.249238    24A     -0.184468
      25A     -0.181954    26A     -0.156457    27A     -0.117043
      28A     -0.080482    29A     -0.076190    30A     -0.075181
      31A     -0.036602    32A     -0.034833    33A     -0.006559

  @DF-RHF Final Energy:  -719.00706246821801

   => Energetics <=

    Nuclear Repulsion Energy =            410.4928012416044112
    One-Electron Energy =               -1834.5255935351651715
    Two-Electron Energy =                 705.0257298253427507
    Total Energy =                       -719.0070624682180096
  Basis Set: (AUG-CC-PVTZ AUX)
    Blend: AUG-CC-PVTZ-RI
    Molecular point group: c1

    Geometry (in Angstrom), charge = -2, multiplicity = 1:

       Center              X                  Y                   Z               Mass
    ------------   -----------------  -----------------  -----------------  -----------------
         P            0.862101937927    -0.005907366861     0.000238436321    30.973761998420
         O           -0.721484662073     0.559755433139    -0.004078663679    15.994914619570
         O            1.651851937927     1.312378633139    -0.003779563679    15.994914619570
         O            0.971847937927    -0.833877366861    -1.293873563679    15.994914619570
         O            0.968247937927    -0.823627366861     1.301248436321    15.994914619570
         C           -1.757682062073    -0.409799366861    -0.000265563679    12.000000000000
         C           -3.143781362073     0.208234133139     0.000070136321    12.000000000000
         H           -1.648294062073    -1.056407366861    -0.881937563679     1.007825032230
         H           -1.645937062073    -1.051704366861     0.884487436321     1.007825032230
         H           -3.922956062073    -0.490026366861     0.003083436321     1.007825032230
         H           -3.235359062073     0.888915633139     0.884518436321     1.007825032230
         H           -3.238116062073     0.884454633139    -0.887481563679     1.007825032230

  Basis Set: AUG-CC-PVTZ
    Blend: AUG-CC-PVTZ
  Basis Set: (AUG-CC-PVTZ AUX)
    Blend: AUG-CC-PVTZ-JKFIT
	 Reference Energy          =    -719.0070624682180096 [Eh]
	 Singles Energy            =      -0.0000000000000000 [Eh]
	 Same-Spin Energy          =      -0.4229377152839104 [Eh]
	 Opposite-Spin Energy      =      -1.2421442700729042 [Eh]
	 Correlation Energy        =      -1.6650819853568146 [Eh]
	 Total Energy              =    -720.6721444535747878 [Eh]

	 ================> DF-SCS-MP2 Energies <==================
	-----------------------------------------------------------
	 SCS Same-Spin Scale       =       0.3333333333333333 [-]
	 SCS Opposite-Spin Scale   =       1.2000000000000000 [-]
	 SCS Same-Spin Energy      =      -0.1409792384279701 [Eh]
	 SCS Opposite-Spin Energy  =      -1.4905731240874849 [Eh]
	 SCS Correlation Energy    =      -1.6315523625154551 [Eh]
	 SCS Total Energy          =    -720.6386148307334452 [Eh]
	-----------------------------------------------------------

  Dipole Moment: [D]
     X:    -8.6254      Y:    -0.1974      Z:    -0.0032     Total:     8.6277

*** Psi4 exiting successfully. Buy a developer a beer!
