                               Psi4 1.3.2 release

  ==> Input File <==

--------------------------------------------------------------------------
#psi4
#
memory 32 gb

molecule  {
-2 1
  P        0.9768750    -0.0085140     0.0002390
  O       -0.6357363     0.6064260    -0.0303908
  O        1.7666250     1.3097720    -0.0037790
  O        1.0866210    -0.8364840    -1.2938730
  O        1.1085597    -0.8320735     1.2952173
  C       -1.6429090    -0.4124060    -0.0002650
  C       -3.0065950     0.2536250    -0.0000790
  H       -1.5335210    -1.0590140    -0.8819370
  H       -1.5311640    -1.0543110     0.8844880
  H       -3.8081830    -0.4926330     0.0030840
  H       -3.1205860     0.8863090     0.8845190
  H       -3.1233430     0.8818480    -0.8874810
units angstrom
no_reorient  #important for SAPT in psi4, default
symmetry c1  #important for SAPT in psi4, default
}

set PROPERTIES_ORIGIN ["COM"]
properties('MP2/aug-cc-pvtz', properties = ['dipole'])
--------------------------------------------------------------------------

    Molecular point group: c1
  Charge       = -2
  Multiplicity = 1
  Basis Set: AUG-CC-PVTZ
    Blend: AUG-CC-PVTZ
  Basis Set: (AUG-CC-PVTZ AUX)
    Blend: AUG-CC-PVTZ-JKFIT

    Orbital Energies [Eh]
    ---------------------

    Doubly Occupied:

       1A    -79.657300     2A    -20.213142     3A    -20.104837
       4A    -20.101923     5A    -20.095399     6A    -10.983729
       7A    -10.974416     8A     -7.172250     9A     -5.071687
      10A     -5.069395    11A     -5.069314    12A     -1.016499
      13A     -0.913213    14A     -0.844662    15A     -0.840542
      16A     -0.744698    17A     -0.555027    18A     -0.388190
      19A     -0.363858    20A     -0.303716    21A     -0.278795
      22A     -0.260945    23A     -0.247600    24A     -0.185177
      25A     -0.181737    26A     -0.161591    27A     -0.117941
      28A     -0.080289    29A     -0.078867    30A     -0.076466
      31A     -0.038774    32A     -0.037548    33A     -0.008541

  @DF-RHF Final Energy:  -719.00876051110117

   => Energetics <=

    Nuclear Repulsion Energy =            408.9519778511523214
    One-Electron Energy =               -1831.4453383112697793
    Two-Electron Energy =                 703.4845999490162285
    Total Energy =                       -719.0087605111011726
  Basis Set: (AUG-CC-PVTZ AUX)
    Blend: AUG-CC-PVTZ-RI
    Molecular point group: c1

    Geometry (in Angstrom), charge = -2, multiplicity = 1:

       Center              X                  Y                   Z               Mass
    ------------   -----------------  -----------------  -----------------  -----------------
         P            0.860382469014    -0.016155985407     0.004425319603    30.973761998420
         O           -0.752228830986     0.598784014593    -0.026204480397    15.994914619570
         O            1.650132469014     1.302130014593     0.000407319603    15.994914619570
         O            0.970128469014    -0.844125985407    -1.289686680397    15.994914619570
         O            0.992067169014    -0.839715485407     1.299403619603    15.994914619570
         C           -1.759401530986    -0.420047985407     0.003921319603    12.000000000000
         C           -3.123087530986     0.245983014593     0.004107319603    12.000000000000
         H           -1.650013530986    -1.066655985407    -0.877750680397     1.007825032230
         H           -1.647656530986    -1.061952985407     0.888674319603     1.007825032230
         H           -3.924675530986    -0.500274985407     0.007270319603     1.007825032230
         H           -3.237078530986     0.878667014593     0.888705319603     1.007825032230
         H           -3.239835530986     0.874206014593    -0.883294680397     1.007825032230

  Basis Set: AUG-CC-PVTZ
    Blend: AUG-CC-PVTZ
  Basis Set: (AUG-CC-PVTZ AUX)
    Blend: AUG-CC-PVTZ-JKFIT
	 Reference Energy          =    -719.0087605111011726 [Eh]
	 Singles Energy            =      -0.0000000000000000 [Eh]
	 Same-Spin Energy          =      -0.4234408056638566 [Eh]
	 Opposite-Spin Energy      =      -1.2438509376977178 [Eh]
	 Correlation Energy        =      -1.6672917433615744 [Eh]
	 Total Energy              =    -720.6760522544627747 [Eh]

	 ================> DF-SCS-MP2 Energies <==================
	-----------------------------------------------------------
	 SCS Same-Spin Scale       =       0.3333333333333333 [-]
	 SCS Opposite-Spin Scale   =       1.2000000000000000 [-]
	 SCS Same-Spin Energy      =      -0.1411469352212855 [Eh]
	 SCS Opposite-Spin Energy  =      -1.4926211252372614 [Eh]
	 SCS Correlation Energy    =      -1.6337680604585469 [Eh]
	 SCS Total Energy          =    -720.6425285715597511 [Eh]
	-----------------------------------------------------------

  Dipole Moment: [D]
     X:    -8.4230      Y:    -0.2186      Z:     0.0483     Total:     8.4259

*** Psi4 exiting successfully. Buy a developer a beer!
