                               Psi4 1.3.2 release

  ==> Input File <==

--------------------------------------------------------------------------
#psi4
#
memory 32 gb

molecule  {
-2 1
  P        0.9431906    -0.0923717     0.0006068
  O       -0.6411800     0.5927210    -0.0041200
  O        1.7666250     1.3097720    -0.0037790
  O        1.0866210    -0.8364840    -1.2938730
  O        1.0830210    -0.8262340     1.3012490
  C       -1.5889315    -0.4634542     0.0000279
  C       -3.0065950     0.2536250    -0.0000790
  H       -1.5335210    -1.0590140    -0.8819370
  H       -1.5311640    -1.0543110     0.8844880
  H       -3.8081830    -0.4926330     0.0030840
  H       -3.1205860     0.8863090     0.8845190
  H       -3.1233430     0.8818480    -0.8874810
units angstrom
no_reorient  #important for SAPT in psi4, default
symmetry c1  #important for SAPT in psi4, default
}

set PROPERTIES_ORIGIN ["COM"]
properties('MP2/aug-cc-pvtz', properties = ['dipole'])
--------------------------------------------------------------------------

    Molecular point group: c1
  Charge       = -2
  Multiplicity = 1
  Basis Set: AUG-CC-PVTZ
    Blend: AUG-CC-PVTZ
  Basis Set: (AUG-CC-PVTZ AUX)
    Blend: AUG-CC-PVTZ-JKFIT

    Orbital Energies [Eh]
    ---------------------

    Doubly Occupied:

       1A    -79.657883     2A    -20.216130     3A    -20.113612
       4A    -20.113593     5A    -20.079470     6A    -10.983868
       7A    -10.973886     8A     -7.173834     9A     -5.073128
      10A     -5.071247    11A     -5.070560    12A     -1.025985
      13A     -0.926851    14A     -0.871507    15A     -0.804606
      16A     -0.730246    17A     -0.564892    18A     -0.387760
      19A     -0.369226    20A     -0.304154    21A     -0.271825
      22A     -0.266521    23A     -0.255522    24A     -0.196210
      25A     -0.176491    26A     -0.163751    27A     -0.129854
      28A     -0.093160    29A     -0.083269    30A     -0.064808
      31A     -0.053799    32A     -0.015291    33A      0.000154

  @DF-RHF Final Energy:  -718.99206481692772

   => Energetics <=

    Nuclear Repulsion Energy =            409.9943886636401658
    One-Electron Energy =               -1833.4073336334633950
    Two-Electron Energy =                 704.4208801528955064
    Total Energy =                       -718.9920648169277229
  Basis Set: (AUG-CC-PVTZ AUX)
    Blend: AUG-CC-PVTZ-RI
    Molecular point group: c1

    Geometry (in Angstrom), charge = -2, multiplicity = 1:

       Center              X                  Y                   Z               Mass
    ------------   -----------------  -----------------  -----------------  -----------------
         P            0.833885302947    -0.073110658090     0.000505904783    30.973761998420
         O           -0.750485297053     0.611982041910    -0.004220895217    15.994914619570
         O            1.657319702947     1.329033041910    -0.003879895217    15.994914619570
         O            0.977315702947    -0.817222958090    -1.293973895217    15.994914619570
         O            0.973715702947    -0.806972958090     1.301148104783    15.994914619570
         C           -1.698236797053    -0.444193158090    -0.000072995217    12.000000000000
         C           -3.115900297053     0.272886041910    -0.000179895217    12.000000000000
         H           -1.642826297053    -1.039752958090    -0.882037895217     1.007825032230
         H           -1.640469297053    -1.035049958090     0.884387104783     1.007825032230
         H           -3.917488297053    -0.473371958090     0.002983104783     1.007825032230
         H           -3.229891297053     0.905570041910     0.884418104783     1.007825032230
         H           -3.232648297053     0.901109041910    -0.887581895217     1.007825032230

  Basis Set: AUG-CC-PVTZ
    Blend: AUG-CC-PVTZ
  Basis Set: (AUG-CC-PVTZ AUX)
    Blend: AUG-CC-PVTZ-JKFIT
	 Reference Energy          =    -718.9920648169277229 [Eh]
	 Singles Energy            =      -0.0000000000000000 [Eh]
	 Same-Spin Energy          =      -0.4237567191813378 [Eh]
	 Opposite-Spin Energy      =      -1.2448606483572129 [Eh]
	 Correlation Energy        =      -1.6686173675385507 [Eh]
	 Total Energy              =    -720.6606821844662818 [Eh]

	 ================> DF-SCS-MP2 Energies <==================
	-----------------------------------------------------------
	 SCS Same-Spin Scale       =       0.3333333333333333 [-]
	 SCS Opposite-Spin Scale   =       1.2000000000000000 [-]
	 SCS Same-Spin Energy      =      -0.1412522397271126 [Eh]
	 SCS Opposite-Spin Energy  =      -1.4938327780286553 [Eh]
	 SCS Correlation Energy    =      -1.6350850177557679 [Eh]
	 SCS Total Energy          =    -720.6271498346834505 [Eh]
	-----------------------------------------------------------

  Dipole Moment: [D]
     X:    -8.6367      Y:    -1.4843      Z:     0.0022     Total:     8.7633

*** Psi4 exiting successfully. Buy a developer a beer!
