                               Psi4 1.3.2 release

  ==> Input File <==

--------------------------------------------------------------------------
#psi4
#
memory 32 gb

molecule  {
-2 1
  P        0.9768750    -0.0085140     0.0002390
  O       -0.6411800     0.5927210    -0.0041200
  O        1.7666250     1.3097720    -0.0037790
  O        1.0866210    -0.8364840    -1.2938730
  O        1.0830210    -0.8262340     1.3012490
  C       -1.5723184    -0.3415760    -0.0005367
  C       -3.0065950     0.2536250    -0.0000790
  H       -1.5335210    -1.0590140    -0.8819370
  H       -1.5311640    -1.0543110     0.8844880
  H       -3.8081830    -0.4926330     0.0030840
  H       -3.1205860     0.8863090     0.8845190
  H       -3.1233430     0.8818480    -0.8874810
units angstrom
no_reorient  #important for SAPT in psi4, default
symmetry c1  #important for SAPT in psi4, default
}

set PROPERTIES_ORIGIN ["COM"]
properties('MP2/aug-cc-pvtz', properties = ['dipole'])
--------------------------------------------------------------------------

    Molecular point group: c1
  Charge       = -2
  Multiplicity = 1
  Basis Set: AUG-CC-PVTZ
    Blend: AUG-CC-PVTZ
  Basis Set: (AUG-CC-PVTZ AUX)
    Blend: AUG-CC-PVTZ-JKFIT

    Orbital Energies [Eh]
    ---------------------

    Doubly Occupied:

       1A    -79.663510     2A    -20.218881     3A    -20.107490
       4A    -20.107458     5A    -20.101066     6A    -10.986641
       7A    -10.969263     8A     -7.178527     9A     -5.078102
      10A     -5.075565    11A     -5.075470    12A     -1.061898
      13A     -0.922250    14A     -0.849020    15A     -0.845670
      16A     -0.731546    17A     -0.544384    18A     -0.408688
      19A     -0.358673    20A     -0.301986    21A     -0.297158
      22A     -0.266293    23A     -0.258114    24A     -0.183705
      25A     -0.174047    26A     -0.161409    27A     -0.106403
      28A     -0.086059    29A     -0.082475    30A     -0.081202
      31A     -0.043948    32A     -0.043727    33A     -0.013043

  @DF-RHF Final Energy:  -719.00541533456385

   => Energetics <=

    Nuclear Repulsion Energy =            411.1713758620331305
    One-Electron Energy =               -1835.5862405602842955
    Two-Electron Energy =                 705.4094493636873722
    Total Energy =                       -719.0054153345638497
  Basis Set: (AUG-CC-PVTZ AUX)
    Blend: AUG-CC-PVTZ-RI
    Molecular point group: c1

    Geometry (in Angstrom), charge = -2, multiplicity = 1:

       Center              X                  Y                   Z               Mass
    ------------   -----------------  -----------------  -----------------  -----------------
         P            0.857547408604    -0.021996271977     0.000284624476    30.973761998420
         O           -0.760507591396     0.579238728023    -0.004074375524    15.994914619570
         O            1.647297408604     1.296289728023    -0.003733375524    15.994914619570
         O            0.967293408604    -0.849966271977    -1.293827375524    15.994914619570
         O            0.963693408604    -0.839716271977     1.301294624476    15.994914619570
         C           -1.691645991396    -0.355058271977    -0.000491075524    12.000000000000
         C           -3.125922591396     0.240142728023    -0.000033375524    12.000000000000
         H           -1.652848591396    -1.072496271977    -0.881891375524     1.007825032230
         H           -1.650491591396    -1.067793271977     0.884533624476     1.007825032230
         H           -3.927510591396    -0.506115271977     0.003129624476     1.007825032230
         H           -3.239913591396     0.872826728023     0.884564624476     1.007825032230
         H           -3.242670591396     0.868365728023    -0.887435375524     1.007825032230

  Basis Set: AUG-CC-PVTZ
    Blend: AUG-CC-PVTZ
  Basis Set: (AUG-CC-PVTZ AUX)
    Blend: AUG-CC-PVTZ-JKFIT
	 Reference Energy          =    -719.0054153345638497 [Eh]
	 Singles Energy            =      -0.0000000000000000 [Eh]
	 Same-Spin Energy          =      -0.4234769916494818 [Eh]
	 Opposite-Spin Energy      =      -1.2424392388455185 [Eh]
	 Correlation Energy        =      -1.6659162304950004 [Eh]
	 Total Energy              =    -720.6713315650588356 [Eh]

	 ================> DF-SCS-MP2 Energies <==================
	-----------------------------------------------------------
	 SCS Same-Spin Scale       =       0.3333333333333333 [-]
	 SCS Opposite-Spin Scale   =       1.2000000000000000 [-]
	 SCS Same-Spin Energy      =      -0.1411589972164939 [Eh]
	 SCS Opposite-Spin Energy  =      -1.4909270866146223 [Eh]
	 SCS Correlation Energy    =      -1.6320860838311162 [Eh]
	 SCS Total Energy          =    -720.6375014183950043 [Eh]
	-----------------------------------------------------------

  Dipole Moment: [D]
     X:    -7.7414      Y:     0.0486      Z:    -0.0036     Total:     7.7416

*** Psi4 exiting successfully. Buy a developer a beer!
