                               Psi4 1.3.2 release

  ==> Input File <==

--------------------------------------------------------------------------
#psi4
#
memory 32 gb

molecule  {
-2 1
  P        0.9768750    -0.0085140     0.0002390
  O       -0.6233770     0.6332698    -0.0828965
  O        1.7666250     1.3097720    -0.0037790
  O        1.0866210    -0.8364840    -1.2938730
  O        1.1595090    -0.8429981     1.2819726
  C       -1.6429090    -0.4124060    -0.0002650
  C       -3.0065950     0.2536250    -0.0000790
  H       -1.5335210    -1.0590140    -0.8819370
  H       -1.5311640    -1.0543110     0.8844880
  H       -3.8081830    -0.4926330     0.0030840
  H       -3.1205860     0.8863090     0.8845190
  H       -3.1233430     0.8818480    -0.8874810
units angstrom
no_reorient  #important for SAPT in psi4, default
symmetry c1  #important for SAPT in psi4, default
}

set PROPERTIES_ORIGIN ["COM"]
properties('MP2/aug-cc-pvtz', properties = ['dipole'])
--------------------------------------------------------------------------

    Molecular point group: c1
  Charge       = -2
  Multiplicity = 1
  Basis Set: AUG-CC-PVTZ
    Blend: AUG-CC-PVTZ
  Basis Set: (AUG-CC-PVTZ AUX)
    Blend: AUG-CC-PVTZ-JKFIT

    Orbital Energies [Eh]
    ---------------------

    Doubly Occupied:

       1A    -79.656091     2A    -20.217685     3A    -20.106892
       4A    -20.098288     5A    -20.091850     6A    -10.987947
       7A    -10.976921     8A     -7.171127     9A     -5.070521
      10A     -5.068290    11A     -5.068163    12A     -1.010462
      13A     -0.911388    14A     -0.843308    15A     -0.837938
      16A     -0.747846    17A     -0.557909    18A     -0.385743
      19A     -0.364349    20A     -0.305679    21A     -0.276626
      22A     -0.260496    23A     -0.245164    24A     -0.185105
      25A     -0.184082    26A     -0.161423    27A     -0.121507
      28A     -0.080998    29A     -0.077828    30A     -0.073496
      31A     -0.037516    32A     -0.034152    33A     -0.006396

  @DF-RHF Final Energy:  -719.00296883236354

   => Energetics <=

    Nuclear Repulsion Energy =            408.1967385853509995
    One-Electron Energy =               -1829.9530396103180010
    Two-Electron Energy =                 702.7533321926033523
    Total Energy =                       -719.0029688323635355
  Basis Set: (AUG-CC-PVTZ AUX)
    Blend: AUG-CC-PVTZ-RI
    Molecular point group: c1

    Geometry (in Angstrom), charge = -2, multiplicity = 1:

       Center              X                  Y                   Z               Mass
    ------------   -----------------  -----------------  -----------------  -----------------
         P            0.852215722808    -0.018209546317     0.012907055572    30.973761998420
         O           -0.748036277192     0.623574253683    -0.070228444428    15.994914619570
         O            1.641965722808     1.300076453683     0.008889055572    15.994914619570
         O            0.961961722808    -0.846179546317    -1.281204944428    15.994914619570
         O            1.034849722808    -0.852693646317     1.294640655572    15.994914619570
         C           -1.767568277192    -0.422101546317     0.012403055572    12.000000000000
         C           -3.131254277192     0.243929453683     0.012589055572    12.000000000000
         H           -1.658180277192    -1.068709546317    -0.869268944428     1.007825032230
         H           -1.655823277192    -1.064006546317     0.897156055572     1.007825032230
         H           -3.932842277192    -0.502328546317     0.015752055572     1.007825032230
         H           -3.245245277192     0.876613453683     0.897187055572     1.007825032230
         H           -3.248002277192     0.872152453683    -0.874812944428     1.007825032230

  Basis Set: AUG-CC-PVTZ
    Blend: AUG-CC-PVTZ
  Basis Set: (AUG-CC-PVTZ AUX)
    Blend: AUG-CC-PVTZ-JKFIT
	 Reference Energy          =    -719.0029688323635355 [Eh]
	 Singles Energy            =      -0.0000000000000000 [Eh]
	 Same-Spin Energy          =      -0.4237259225015063 [Eh]
	 Opposite-Spin Energy      =      -1.2449802707544775 [Eh]
	 Correlation Energy        =      -1.6687061932559839 [Eh]
	 Total Energy              =    -720.6716750256194928 [Eh]

	 ================> DF-SCS-MP2 Energies <==================
	-----------------------------------------------------------
	 SCS Same-Spin Scale       =       0.3333333333333333 [-]
	 SCS Opposite-Spin Scale   =       1.2000000000000000 [-]
	 SCS Same-Spin Energy      =      -0.1412419741671688 [Eh]
	 SCS Opposite-Spin Energy  =      -1.4939763249053730 [Eh]
	 SCS Correlation Energy    =      -1.6352182990725419 [Eh]
	 SCS Total Energy          =    -720.6381871314360978 [Eh]
	-----------------------------------------------------------

  Dipole Moment: [D]
     X:    -8.6560      Y:    -0.2612      Z:     0.1496     Total:     8.6612

*** Psi4 exiting successfully. Buy a developer a beer!
