                               Psi4 1.3.2 release

  ==> Input File <==

--------------------------------------------------------------------------
#psi4
#
memory 32 gb

molecule  {
-2 1
  P        0.9768750    -0.0085140     0.0002390
  O       -0.6696570     0.6185997     0.0594325
  O        1.7666250     1.3097720    -0.0037790
  O        1.0866210    -0.8364840    -1.2938730
  O        1.0830210    -0.8262340     1.3012490
  C       -1.6429090    -0.4124060    -0.0002650
  C       -3.0065950     0.2536250    -0.0000790
  H       -1.5790104    -1.0891020    -0.8636378
  H       -1.5311640    -1.0543110     0.8844880
  H       -3.8081830    -0.4926330     0.0030840
  H       -3.1205860     0.8863090     0.8845190
  H       -3.1233430     0.8818480    -0.8874810
units angstrom
no_reorient  #important for SAPT in psi4, default
symmetry c1  #important for SAPT in psi4, default
}

set PROPERTIES_ORIGIN ["COM"]
properties('MP2/aug-cc-pvtz', properties = ['dipole'])
--------------------------------------------------------------------------

    Molecular point group: c1
  Charge       = -2
  Multiplicity = 1
  Basis Set: AUG-CC-PVTZ
    Blend: AUG-CC-PVTZ
  Basis Set: (AUG-CC-PVTZ AUX)
    Blend: AUG-CC-PVTZ-JKFIT

    Orbital Energies [Eh]
    ---------------------

    Doubly Occupied:

       1A    -79.661813     2A    -20.211785     3A    -20.109525
       4A    -20.104731     5A    -20.099404     6A    -10.980044
       7A    -10.969974     8A     -7.176455     9A     -5.075871
      10A     -5.073549    11A     -5.073462    12A     -1.013820
      13A     -0.917157    14A     -0.848235    15A     -0.843664
      16A     -0.739966    17A     -0.551132    18A     -0.386476
      19A     -0.360125    20A     -0.301123    21A     -0.275635
      22A     -0.256126    23A     -0.248779    24A     -0.185436
      25A     -0.180162    26A     -0.165644    27A     -0.115627
      28A     -0.081988    29A     -0.081075    30A     -0.078844
      31A     -0.043083    32A     -0.040654    33A     -0.012106

  @DF-RHF Final Energy:  -719.00689652513756

   => Energetics <=

    Nuclear Repulsion Energy =            408.1490486647937814
    One-Electron Energy =               -1829.7849540724364488
    Two-Electron Energy =                 702.6290088825051043
    Total Energy =                       -719.0068965251375630
  Basis Set: (AUG-CC-PVTZ AUX)
    Blend: AUG-CC-PVTZ-RI
    Molecular point group: c1

    Geometry (in Angstrom), charge = -2, multiplicity = 1:

       Center              X                  Y                   Z               Mass
    ------------   -----------------  -----------------  -----------------  -----------------
         P            0.868422415103    -0.018235111657    -0.008088617624    30.973761998420
         O           -0.778109584897     0.608878588343     0.051104882376    15.994914619570
         O            1.658172415103     1.300050888343    -0.012106617624    15.994914619570
         O            0.978168415103    -0.846205111657    -1.302200617624    15.994914619570
         O            0.974568415103    -0.835955111657     1.292921382376    15.994914619570
         C           -1.751361584897    -0.422127111657    -0.008592617624    12.000000000000
         C           -3.115047584897     0.243903888343    -0.008406617624    12.000000000000
         H           -1.687462984897    -1.098823111657    -0.871965417624     1.007825032230
         H           -1.639616584897    -1.064032111657     0.876160382376     1.007825032230
         H           -3.916635584897    -0.502354111657    -0.005243617624     1.007825032230
         H           -3.229038584897     0.876587888343     0.876191382376     1.007825032230
         H           -3.231795584897     0.872126888343    -0.895808617624     1.007825032230

  Basis Set: AUG-CC-PVTZ
    Blend: AUG-CC-PVTZ
  Basis Set: (AUG-CC-PVTZ AUX)
    Blend: AUG-CC-PVTZ-JKFIT
	 Reference Energy          =    -719.0068965251375630 [Eh]
	 Singles Energy            =      -0.0000000000000000 [Eh]
	 Same-Spin Energy          =      -0.4238650257388866 [Eh]
	 Opposite-Spin Energy      =      -1.2447535539231649 [Eh]
	 Correlation Energy        =      -1.6686185796620516 [Eh]
	 Total Energy              =    -720.6755151047996151 [Eh]

	 ================> DF-SCS-MP2 Energies <==================
	-----------------------------------------------------------
	 SCS Same-Spin Scale       =       0.3333333333333333 [-]
	 SCS Opposite-Spin Scale   =       1.2000000000000000 [-]
	 SCS Same-Spin Energy      =      -0.1412883419129622 [Eh]
	 SCS Opposite-Spin Energy  =      -1.4937042647077978 [Eh]
	 SCS Correlation Energy    =      -1.6349926066207601 [Eh]
	 SCS Total Energy          =    -720.6418891317583757 [Eh]
	-----------------------------------------------------------

  Dipole Moment: [D]
     X:    -8.0560      Y:    -0.2654      Z:    -0.0822     Total:     8.0608

*** Psi4 exiting successfully. Buy a developer a beer!
