                               Psi4 1.3.2 release

  ==> Input File <==

--------------------------------------------------------------------------
#psi4
#
memory 32 gb

molecule  {
-2 1
  P        0.9768750    -0.0085140     0.0002390
  O       -0.6411800     0.5927210    -0.0041200
  O        1.7666250     1.3097720    -0.0037790
  O        1.0866210    -0.8364840    -1.2938730
  O        1.0830210    -0.8262340     1.3012490
  C       -1.6429090    -0.4124060    -0.0002650
  C       -3.0065950     0.2536250    -0.0000790
  H       -1.5335210    -1.0590140    -0.8819370
  H       -1.5311640    -1.0543110     0.8844880
  H       -3.8081830    -0.4926330     0.0030840
  H       -3.1205860     0.8863090     0.8845190
  H       -3.1233430     0.8818480    -0.8874810
units angstrom
no_reorient  #important for SAPT in psi4, default
symmetry c1  #important for SAPT in psi4, default
}

set PROPERTIES_ORIGIN ["COM"]
properties('MP2/aug-cc-pvtz', properties = ['dipole'])
--------------------------------------------------------------------------

    Molecular point group: c1
  Charge       = -2
  Multiplicity = 1
  Basis Set: AUG-CC-PVTZ
    Blend: AUG-CC-PVTZ
  Basis Set: (AUG-CC-PVTZ AUX)
    Blend: AUG-CC-PVTZ-JKFIT

    Orbital Energies [Eh]
    ---------------------

    Doubly Occupied:

       1A    -79.657947     2A    -20.210747     3A    -20.103755
       4A    -20.103727     5A    -20.097188     6A    -10.981609
       7A    -10.973160     8A     -7.172858     9A     -5.072321
      10A     -5.070006    11A     -5.069913    12A     -1.019442
      13A     -0.914121    14A     -0.845343    15A     -0.841754
      16A     -0.743126    17A     -0.553583    18A     -0.389361
      19A     -0.363499    20A     -0.302732    21A     -0.280043
      22A     -0.261025    23A     -0.248638    24A     -0.185213
      25A     -0.180863    26A     -0.161288    27A     -0.116095
      28A     -0.080303    29A     -0.079161    30A     -0.077634
      31A     -0.039375    32A     -0.038890    33A     -0.009569

  @DF-RHF Final Energy:  -719.01039005569578

   => Energetics <=

    Nuclear Repulsion Energy =            409.3357675032524412
    One-Electron Energy =               -1832.2037384161651516
    Two-Electron Energy =                 703.8575808572170445
    Total Energy =                       -719.0103900556957797
  Basis Set: (AUG-CC-PVTZ AUX)
    Blend: AUG-CC-PVTZ-RI
    Molecular point group: c1

    Geometry (in Angstrom), charge = -2, multiplicity = 1:

       Center              X                  Y                   Z               Mass
    ------------   -----------------  -----------------  -----------------  -----------------
         P            0.864379167688    -0.015141343758     0.000258329347    30.973761998420
         O           -0.753675832312     0.586093656242    -0.004100670653    15.994914619570
         O            1.654129167688     1.303144656242    -0.003759670653    15.994914619570
         O            0.974125167688    -0.843111343758    -1.293853670653    15.994914619570
         O            0.970525167688    -0.832861343758     1.301268329347    15.994914619570
         C           -1.755404832312    -0.419033343758    -0.000245670653    12.000000000000
         C           -3.119090832312     0.246997656242    -0.000059670653    12.000000000000
         H           -1.646016832312    -1.065641343758    -0.881917670653     1.007825032230
         H           -1.643659832312    -1.060938343758     0.884507329347     1.007825032230
         H           -3.920678832312    -0.499260343758     0.003103329347     1.007825032230
         H           -3.233081832312     0.879681656242     0.884538329347     1.007825032230
         H           -3.235838832312     0.875220656242    -0.887461670653     1.007825032230

  Basis Set: AUG-CC-PVTZ
    Blend: AUG-CC-PVTZ
  Basis Set: (AUG-CC-PVTZ AUX)
    Blend: AUG-CC-PVTZ-JKFIT
	 Reference Energy          =    -719.0103900556957797 [Eh]
	 Singles Energy            =      -0.0000000000000000 [Eh]
	 Same-Spin Energy          =      -0.4233619852373544 [Eh]
	 Opposite-Spin Energy      =      -1.2434235181484885 [Eh]
	 Correlation Energy        =      -1.6667855033858430 [Eh]
	 Total Energy              =    -720.6771755590816610 [Eh]

	 ================> DF-SCS-MP2 Energies <==================
	-----------------------------------------------------------
	 SCS Same-Spin Scale       =       0.3333333333333333 [-]
	 SCS Opposite-Spin Scale   =       1.2000000000000000 [-]
	 SCS Same-Spin Energy      =      -0.1411206617457848 [Eh]
	 SCS Opposite-Spin Energy  =      -1.4921082217781863 [Eh]
	 SCS Correlation Energy    =      -1.6332288835239710 [Eh]
	 SCS Total Energy          =    -720.6436189392197775 [Eh]
	-----------------------------------------------------------

  Dipole Moment: [D]
     X:    -8.3023      Y:    -0.1958      Z:    -0.0031     Total:     8.3046

*** Psi4 exiting successfully. Buy a developer a beer!
