                               Psi4 1.3.2 release

  ==> Input File <==

--------------------------------------------------------------------------
#psi4
#
memory 32 gb

molecule  {
-2 1
  P        0.9768750    -0.0085140     0.0002390
  O       -0.6505873     0.5647659     0.0484176
  O        1.7666250     1.3097720    -0.0037790
  O        1.0866210    -0.8364840    -1.2938730
  O        1.0318544    -0.8138096     1.3121217
  C       -1.6429090    -0.4124060    -0.0002650
  C       -3.0065950     0.2536250    -0.0000790
  H       -1.5335210    -1.0590140    -0.8819370
  H       -1.5311640    -1.0543110     0.8844880
  H       -3.8081830    -0.4926330     0.0030840
  H       -3.1205860     0.8863090     0.8845190
  H       -3.1233430     0.8818480    -0.8874810
units angstrom
no_reorient  #important for SAPT in psi4, default
symmetry c1  #important for SAPT in psi4, default
}

set PROPERTIES_ORIGIN ["COM"]
properties('MP2/aug-cc-pvtz', properties = ['dipole'])
--------------------------------------------------------------------------

    Molecular point group: c1
  Charge       = -2
  Multiplicity = 1
  Basis Set: AUG-CC-PVTZ
    Blend: AUG-CC-PVTZ
  Basis Set: (AUG-CC-PVTZ AUX)
    Blend: AUG-CC-PVTZ-JKFIT

    Orbital Energies [Eh]
    ---------------------

    Doubly Occupied:

       1A    -79.659309     2A    -20.205717     3A    -20.107418
       4A    -20.101354     5A    -20.100768     6A    -10.977387
       7A    -10.970655     8A     -7.174154     9A     -5.073676
      10A     -5.071325    11A     -5.071153    12A     -1.025054
      13A     -0.915917    14A     -0.846997    15A     -0.843705
      16A     -0.740004    17A     -0.550700    18A     -0.391500
      19A     -0.362549    20A     -0.300783    21A     -0.282660
      22A     -0.260879    23A     -0.250479    24A     -0.185191
      25A     -0.179914    26A     -0.159908    27A     -0.112454
      28A     -0.082231    29A     -0.079353    30A     -0.078039
      31A     -0.042599    32A     -0.038572    33A     -0.011506

  @DF-RHF Final Energy:  -719.01099489567446

   => Energetics <=

    Nuclear Repulsion Energy =            410.1135425966719481
    One-Electron Energy =               -1833.7412548879560745
    Two-Electron Energy =                 704.6167173956096121
    Total Energy =                       -719.0109948956744574
  Basis Set: (AUG-CC-PVTZ AUX)
    Blend: AUG-CC-PVTZ-RI
    Molecular point group: c1

    Geometry (in Angstrom), charge = -2, multiplicity = 1:

       Center              X                  Y                   Z               Mass
    ------------   -----------------  -----------------  -----------------  -----------------
         P            0.872193140324    -0.013137898961    -0.007921536058    30.973761998420
         O           -0.755269159676     0.560142001039     0.040257063942    15.994914619570
         O            1.661943140324     1.305148101039    -0.011939536058    15.994914619570
         O            0.981939140324    -0.841107898961    -1.302033536058    15.994914619570
         O            0.927172540324    -0.818433498961     1.303961163942    15.994914619570
         C           -1.747590859676    -0.417029898961    -0.008425536058    12.000000000000
         C           -3.111276859676     0.249001101039    -0.008239536058    12.000000000000
         H           -1.638202859676    -1.063637898961    -0.890097536058     1.007825032230
         H           -1.635845859676    -1.058934898961     0.876327463942     1.007825032230
         H           -3.912864859676    -0.497256898961    -0.005076536058     1.007825032230
         H           -3.225267859676     0.881685101039     0.876358463942     1.007825032230
         H           -3.228024859676     0.877224101039    -0.895641536058     1.007825032230

  Basis Set: AUG-CC-PVTZ
    Blend: AUG-CC-PVTZ
  Basis Set: (AUG-CC-PVTZ AUX)
    Blend: AUG-CC-PVTZ-JKFIT
	 Reference Energy          =    -719.0109948956744574 [Eh]
	 Singles Energy            =      -0.0000000000000000 [Eh]
	 Same-Spin Energy          =      -0.4233383523934854 [Eh]
	 Opposite-Spin Energy      =      -1.2428525830700425 [Eh]
	 Correlation Energy        =      -1.6661909354635278 [Eh]
	 Total Energy              =    -720.6771858311379901 [Eh]

	 ================> DF-SCS-MP2 Energies <==================
	-----------------------------------------------------------
	 SCS Same-Spin Scale       =       0.3333333333333333 [-]
	 SCS Opposite-Spin Scale   =       1.2000000000000000 [-]
	 SCS Same-Spin Energy      =      -0.1411127841311618 [Eh]
	 SCS Opposite-Spin Energy  =      -1.4914230996840510 [Eh]
	 SCS Correlation Energy    =      -1.6325358838152129 [Eh]
	 SCS Total Energy          =    -720.6435307794896516 [Eh]
	-----------------------------------------------------------

  Dipole Moment: [D]
     X:    -8.0540      Y:    -0.1476      Z:    -0.1069     Total:     8.0561

*** Psi4 exiting successfully. Buy a developer a beer!
