                               Psi4 1.4a3.dev225

  ==> Input File <==

--------------------------------------------------------------------------
#psi4
#
memory 32 gb

molecule  {
-2 1
  P        0.9779190    -0.0071730     0.0036310
  O       -0.6414480     0.5895360    -0.0608370
  O        1.7663530     1.3109990    -0.0273720
  O        1.1203390    -0.8841130    -1.2536930
  O        1.0488922    -0.7543179     1.2906702
  C       -1.6443320    -0.4127400    -0.0031870
  C       -3.0079050     0.2540090    -0.0015060
  H       -1.5542930    -1.0922920    -0.8626040
  H       -1.5171060    -1.0208640     0.9023270
  H       -3.8086770    -0.4913540     0.0489290
  H       -3.1025260     0.9214830     0.8596320
  H       -3.1449030     0.8467680    -0.9102780
units angstrom
no_reorient  #important for SAPT in psi4, default
symmetry c1  #important for SAPT in psi4, default
}

set PROPERTIES_ORIGIN ["COM"]
properties('MP2/aug-cc-pvtz', properties = ['dipole'])
--------------------------------------------------------------------------

    Molecular point group: c1
  Charge       = -2
  Multiplicity = 1
  Basis Set: AUG-CC-PVTZ
    Blend: AUG-CC-PVTZ
  Basis Set: (AUG-CC-PVTZ AUX)
    Blend: AUG-CC-PVTZ-JKFIT

    Orbital Energies [Eh]
    ---------------------

    Doubly Occupied:

       1A    -79.647989     2A    -20.207105     3A    -20.100664
       4A    -20.098674     5A    -20.092910     6A    -10.980471
       7A    -10.972270     8A     -7.164772     9A     -5.064066
      10A     -5.062185    11A     -5.061665    12A     -1.017688
      13A     -0.921318    14A     -0.851957    15A     -0.838651
      16A     -0.741955    17A     -0.552226    18A     -0.386673
      19A     -0.362299    20A     -0.301052    21A     -0.278627
      22A     -0.259671    23A     -0.247887    24A     -0.186427
      25A     -0.181033    26A     -0.162934    27A     -0.115472
      28A     -0.083148    29A     -0.080929    30A     -0.076291
      31A     -0.040638    32A     -0.035687    33A     -0.007318

  @DF-RHF Final Energy:  -719.01158495513675

   => Energetics <=

    Nuclear Repulsion Energy =            411.4255855633055035
    One-Electron Energy =               -1836.5090332189267883
    Two-Electron Energy =                 706.0718627004845303
    Total Energy =                       -719.0115849551367546
  Basis Set: (AUG-CC-PVTZ AUX)
    Blend: AUG-CC-PVTZ-RI
    Molecular point group: c1

    Geometry (in Angstrom), charge = -2, multiplicity = 1:

       Center              X                  Y                   Z               Mass
    ------------   -----------------  -----------------  -----------------  -----------------
         P            0.865636560740    -0.017033134302     0.009478086493    30.973761998420
         O           -0.753730439260     0.579675865698    -0.054989913507    15.994914619570
         O            1.654070560740     1.301138865698    -0.021524913507    15.994914619570
         O            1.008056560740    -0.893973134302    -1.247845913507    15.994914619570
         O            0.936609760740    -0.764178034302     1.296517286493    15.994914619570
         C           -1.756614439260    -0.422600134302     0.002660086493    12.000000000000
         C           -3.120187439260     0.244148865698     0.004341086493    12.000000000000
         H           -1.666575439260    -1.102152134302    -0.856756913507     1.007825032230
         H           -1.629388439260    -1.030724134302     0.908174086493     1.007825032230
         H           -3.920959439260    -0.501214134302     0.054776086493     1.007825032230
         H           -3.214808439260     0.911622865698     0.865479086493     1.007825032230
         H           -3.257185439260     0.836907865698    -0.904430913507     1.007825032230

  Basis Set: AUG-CC-PVTZ
    Blend: AUG-CC-PVTZ
  Basis Set: (AUG-CC-PVTZ AUX)
    Blend: AUG-CC-PVTZ-JKFIT
	 Reference Energy          =    -719.0115849551367546 [Eh]
	 Singles Energy            =      -0.0000000000000000 [Eh]
	 Same-Spin Energy          =      -0.4224406416886577 [Eh]
	 Opposite-Spin Energy      =      -1.2410243274626636 [Eh]
	 Correlation Energy        =      -1.6634649691513212 [Eh]
	 Total Energy              =    -720.6750499242880323 [Eh]

	 ================> DF-SCS-MP2 Energies <==================
	-----------------------------------------------------------
	 SCS Same-Spin Scale       =       0.3333333333333333 [-]
	 SCS Opposite-Spin Scale   =       1.2000000000000000 [-]
	 SCS Same-Spin Energy      =      -0.1408135472295526 [Eh]
	 SCS Opposite-Spin Energy  =      -1.4892291929551962 [Eh]
	 SCS Correlation Energy    =      -1.6300427401847488 [Eh]
	 SCS Total Energy          =    -720.6416276953215174 [Eh]
	-----------------------------------------------------------

  Dipole Moment: [D]
     X:    -8.2503      Y:    -0.3535      Z:     0.2736     Total:     8.2624

*** Psi4 exiting successfully. Buy a developer a beer!
