                               Psi4 1.4a3.dev225

  ==> Input File <==

--------------------------------------------------------------------------
#psi4
#
memory 32 gb

molecule  {
-2 1
  P        0.9779190    -0.0071730     0.0036310
  O       -0.6414480     0.5895360    -0.0608370
  O        1.7766172     1.3281595    -0.0277756
  O        1.1203390    -0.8841130    -1.2536930
  O        1.0512740    -0.7793920     1.3338630
  C       -1.6443320    -0.4127400    -0.0031870
  C       -3.0079050     0.2540090    -0.0015060
  H       -1.5542930    -1.0922920    -0.8626040
  H       -1.5171060    -1.0208640     0.9023270
  H       -3.8086770    -0.4913540     0.0489290
  H       -3.1025260     0.9214830     0.8596320
  H       -3.1449030     0.8467680    -0.9102780
units angstrom
no_reorient  #important for SAPT in psi4, default
symmetry c1  #important for SAPT in psi4, default
}

set PROPERTIES_ORIGIN ["COM"]
properties('MP2/aug-cc-pvtz', properties = ['dipole'])
--------------------------------------------------------------------------

    Molecular point group: c1
  Charge       = -2
  Multiplicity = 1
  Basis Set: AUG-CC-PVTZ
    Blend: AUG-CC-PVTZ
  Basis Set: (AUG-CC-PVTZ AUX)
    Blend: AUG-CC-PVTZ-JKFIT

    Orbital Energies [Eh]
    ---------------------

    Doubly Occupied:

       1A    -79.661491     2A    -20.211974     3A    -20.105284
       4A    -20.105247     5A    -20.098713     6A    -10.982596
       7A    -10.973774     8A     -7.175825     9A     -5.075327
      10A     -5.072949    11A     -5.072865    12A     -1.019977
      13A     -0.913006    14A     -0.846758    15A     -0.838006
      16A     -0.743813    17A     -0.554390    18A     -0.390333
      19A     -0.364206    20A     -0.303492    21A     -0.280956
      22A     -0.261742    23A     -0.249079    24A     -0.185129
      25A     -0.180769    26A     -0.161272    27A     -0.116936
      28A     -0.080506    29A     -0.078597    30A     -0.077044
      31A     -0.039977    32A     -0.038187    33A     -0.010136

  @DF-RHF Final Energy:  -719.00883424426263

   => Energetics <=

    Nuclear Repulsion Energy =            408.4605710599407189
    One-Electron Energy =               -1830.3980982901550760
    Two-Electron Energy =                 702.9286929859516704
    Total Energy =                       -719.0088342442626299
  Basis Set: (AUG-CC-PVTZ AUX)
    Blend: AUG-CC-PVTZ-RI
    Molecular point group: c1

    Geometry (in Angstrom), charge = -2, multiplicity = 1:

       Center              X                  Y                   Z               Mass
    ------------   -----------------  -----------------  -----------------  -----------------
         P            0.864005239363    -0.016012287802     0.003958322404    30.973761998420
         O           -0.755361760637     0.580696712198    -0.060509677596    15.994914619570
         O            1.662703439363     1.319320212198    -0.027448277596    15.994914619570
         O            1.006425239363    -0.892952287802    -1.253365677596    15.994914619570
         O            0.937360239363    -0.788231287802     1.334190322404    15.994914619570
         C           -1.758245760637    -0.421579287802    -0.002859677596    12.000000000000
         C           -3.121818760637     0.245169712198    -0.001178677596    12.000000000000
         H           -1.668206760637    -1.101131287802    -0.862276677596     1.007825032230
         H           -1.631019760637    -1.029703287802     0.902654322404     1.007825032230
         H           -3.922590760637    -0.500193287802     0.049256322404     1.007825032230
         H           -3.216439760637     0.912643712198     0.859959322404     1.007825032230
         H           -3.258816760637     0.837928712198    -0.909950677596     1.007825032230

  Basis Set: AUG-CC-PVTZ
    Blend: AUG-CC-PVTZ
  Basis Set: (AUG-CC-PVTZ AUX)
    Blend: AUG-CC-PVTZ-JKFIT
	 Reference Energy          =    -719.0088342442626299 [Eh]
	 Singles Energy            =      -0.0000000000000000 [Eh]
	 Same-Spin Energy          =      -0.4236466410404570 [Eh]
	 Opposite-Spin Energy      =      -1.2442327743416814 [Eh]
	 Correlation Energy        =      -1.6678794153821384 [Eh]
	 Total Energy              =    -720.6767136596447472 [Eh]

	 ================> DF-SCS-MP2 Energies <==================
	-----------------------------------------------------------
	 SCS Same-Spin Scale       =       0.3333333333333333 [-]
	 SCS Opposite-Spin Scale   =       1.2000000000000000 [-]
	 SCS Same-Spin Energy      =      -0.1412155470134857 [Eh]
	 SCS Opposite-Spin Energy  =      -1.4930793292100177 [Eh]
	 SCS Correlation Energy    =      -1.6342948762235034 [Eh]
	 SCS Total Energy          =    -720.6431291204861509 [Eh]
	-----------------------------------------------------------

  Dipole Moment: [D]
     X:    -8.3847      Y:    -0.3115      Z:    -0.0306     Total:     8.3905

*** Psi4 exiting successfully. Buy a developer a beer!
