                               Psi4 1.3.2 release

  ==> Input File <==

--------------------------------------------------------------------------
#psi4
#
memory 32 gb

molecule  {
-2 1
  P        0.9768750    -0.0085140     0.0002390
  O       -0.6411800     0.5927210    -0.0041200
  O        1.6638431     1.1382039    -0.0032561
  O        1.0866210    -0.8364840    -1.2938730
  O        1.0830210    -0.8262340     1.3012490
  C       -1.6429090    -0.4124060    -0.0002650
  C       -3.0065950     0.2536250    -0.0000790
  H       -1.5335210    -1.0590140    -0.8819370
  H       -1.5311640    -1.0543110     0.8844880
  H       -3.8081830    -0.4926330     0.0030840
  H       -3.1205860     0.8863090     0.8845190
  H       -3.1233430     0.8818480    -0.8874810
units angstrom
no_reorient  #important for SAPT in psi4, default
symmetry c1  #important for SAPT in psi4, default
}

set PROPERTIES_ORIGIN ["COM"]
properties('MP2/aug-cc-pvtz', properties = ['dipole'])
--------------------------------------------------------------------------

    Molecular point group: c1
  Charge       = -2
  Multiplicity = 1
  Basis Set: AUG-CC-PVTZ
    Blend: AUG-CC-PVTZ
  Basis Set: (AUG-CC-PVTZ AUX)
    Blend: AUG-CC-PVTZ-JKFIT

    Orbital Energies [Eh]
    ---------------------

    Doubly Occupied:

       1A    -79.611031     2A    -20.197003     3A    -20.084917
       4A    -20.084890     5A    -20.083428     6A    -10.971929
       7A    -10.966941     8A     -7.137843     9A     -5.037829
      10A     -5.035157    11A     -5.032978    12A     -1.020403
      13A     -0.957677    14A     -0.856217    15A     -0.829039
      16A     -0.735962    17A     -0.545018    18A     -0.378379
      19A     -0.355729    20A     -0.294648    21A     -0.271083
      22A     -0.253291    23A     -0.249623    24A     -0.197617
      25A     -0.185729    26A     -0.161348    27A     -0.110527
      28A     -0.100495    29A     -0.082231    30A     -0.069462
      31A     -0.044752    32A     -0.025601    33A     -0.000194

  @DF-RHF Final Energy:  -718.97372371775828

   => Energetics <=

    Nuclear Repulsion Energy =            418.7241966076060748
    One-Electron Energy =               -1851.4578981537358686
    Two-Electron Energy =                 713.7599778283715750
    Total Energy =                       -718.9737237177582756
  Basis Set: (AUG-CC-PVTZ AUX)
    Blend: AUG-CC-PVTZ-RI
    Molecular point group: c1

    Geometry (in Angstrom), charge = -2, multiplicity = 1:

       Center              X                  Y                   Z               Mass
    ------------   -----------------  -----------------  -----------------  -----------------
         P            0.877637930193     0.006990769885     0.000190875769    30.973761998420
         O           -0.740417069807     0.608225769885    -0.004168124231    15.994914619570
         O            1.564606030193     1.153708669885    -0.003304224231    15.994914619570
         O            0.987383930193    -0.820979230115    -1.293921124231    15.994914619570
         O            0.983783930193    -0.810729230115     1.301200875769    15.994914619570
         C           -1.742146069807    -0.396901230115    -0.000313124231    12.000000000000
         C           -3.105832069807     0.269129769885    -0.000127124231    12.000000000000
         H           -1.632758069807    -1.043509230115    -0.881985124231     1.007825032230
         H           -1.630401069807    -1.038806230115     0.884439875769     1.007825032230
         H           -3.907420069807    -0.477128230115     0.003035875769     1.007825032230
         H           -3.219823069807     0.901813769885     0.884470875769     1.007825032230
         H           -3.222580069807     0.897352769885    -0.887529124231     1.007825032230

  Basis Set: AUG-CC-PVTZ
    Blend: AUG-CC-PVTZ
  Basis Set: (AUG-CC-PVTZ AUX)
    Blend: AUG-CC-PVTZ-JKFIT
	 Reference Energy          =    -718.9737237177582756 [Eh]
	 Singles Energy            =      -0.0000000000000000 [Eh]
	 Same-Spin Energy          =      -0.4201883310707082 [Eh]
	 Opposite-Spin Energy      =      -1.2349653988090297 [Eh]
	 Correlation Energy        =      -1.6551537298797379 [Eh]
	 Total Energy              =    -720.6288774476380468 [Eh]

	 ================> DF-SCS-MP2 Energies <==================
	-----------------------------------------------------------
	 SCS Same-Spin Scale       =       0.3333333333333333 [-]
	 SCS Opposite-Spin Scale   =       1.2000000000000000 [-]
	 SCS Same-Spin Energy      =      -0.1400627770235694 [Eh]
	 SCS Opposite-Spin Energy  =      -1.4819584785708355 [Eh]
	 SCS Correlation Energy    =      -1.6220212555944049 [Eh]
	 SCS Total Energy          =    -720.5957449733526801 [Eh]
	-----------------------------------------------------------

  Dipole Moment: [D]
     X:    -7.4131      Y:     1.0426      Z:    -0.0070     Total:     7.4861

*** Psi4 exiting successfully. Buy a developer a beer!
