                               Psi4 1.3.2 release

  ==> Input File <==

--------------------------------------------------------------------------
#psi4
#
memory 32 gb

molecule  {
-2 1
  P        0.9768750    -0.0085140     0.0002390
  O       -0.6499895     0.6014244    -0.0041297
  O        1.7666250     1.3097720    -0.0037790
  O        1.0866210    -0.8364840    -1.2938730
  O        1.0830210    -0.8262340     1.3012490
  C       -1.6429090    -0.4124060    -0.0002650
  C       -3.0007310     0.2654998    -0.0001165
  H       -1.5335210    -1.0590140    -0.8819370
  H       -1.5311640    -1.0543110     0.8844880
  H       -3.8081830    -0.4926330     0.0030840
  H       -3.1205860     0.8863090     0.8845190
  H       -3.1233430     0.8818480    -0.8874810
units angstrom
no_reorient  #important for SAPT in psi4, default
symmetry c1  #important for SAPT in psi4, default
}

set PROPERTIES_ORIGIN ["COM"]
properties('MP2/aug-cc-pvtz', properties = ['dipole'])
--------------------------------------------------------------------------

    Molecular point group: c1
  Charge       = -2
  Multiplicity = 1
  Basis Set: AUG-CC-PVTZ
    Blend: AUG-CC-PVTZ
  Basis Set: (AUG-CC-PVTZ AUX)
    Blend: AUG-CC-PVTZ-JKFIT

    Orbital Energies [Eh]
    ---------------------

    Doubly Occupied:

       1A    -79.659026     2A    -20.210394     3A    -20.104849
       4A    -20.104819     5A    -20.097737     6A    -10.980874
       7A    -10.972367     8A     -7.173850     9A     -5.073290
      10A     -5.070983    11A     -5.070900    12A     -1.017534
      13A     -0.915046    14A     -0.846222    15A     -0.842346
      16A     -0.741664    17A     -0.552750    18A     -0.387239
      19A     -0.364553    20A     -0.300186    21A     -0.278275
      22A     -0.262061    23A     -0.247598    24A     -0.185466
      25A     -0.180590    26A     -0.162501    27A     -0.115832
      28A     -0.080422    29A     -0.079696    30A     -0.078278
      31A     -0.040075    32A     -0.039928    33A     -0.010354

  @DF-RHF Final Energy:  -719.00976988028947

   => Energetics <=

    Nuclear Repulsion Energy =            409.0573618948221224
    One-Electron Energy =               -1831.6388501558055850
    Two-Electron Energy =                 703.5717183806939374
    Total Energy =                       -719.0097698802894683
  Basis Set: (AUG-CC-PVTZ AUX)
    Blend: AUG-CC-PVTZ-RI
    Molecular point group: c1

    Geometry (in Angstrom), charge = -2, multiplicity = 1:

       Center              X                  Y                   Z               Mass
    ------------   -----------------  -----------------  -----------------  -----------------
         P            0.864948066407    -0.017413316952     0.000263209888    30.973761998420
         O           -0.761916433593     0.592525083048    -0.004105490112    15.994914619570
         O            1.654698066407     1.300872683048    -0.003754790112    15.994914619570
         O            0.974694066407    -0.845383316952    -1.293848790112    15.994914619570
         O            0.971094066407    -0.835133316952     1.301273209888    15.994914619570
         C           -1.754835933593    -0.421305316952    -0.000240790112    12.000000000000
         C           -3.112657933593     0.256600483048    -0.000092290112    12.000000000000
         H           -1.645447933593    -1.067913316952    -0.881912790112     1.007825032230
         H           -1.643090933593    -1.063210316952     0.884512209888     1.007825032230
         H           -3.920109933593    -0.501532316952     0.003108209888     1.007825032230
         H           -3.232512933593     0.877409683048     0.884543209888     1.007825032230
         H           -3.235269933593     0.872948683048    -0.887456790112     1.007825032230

  Basis Set: AUG-CC-PVTZ
    Blend: AUG-CC-PVTZ
  Basis Set: (AUG-CC-PVTZ AUX)
    Blend: AUG-CC-PVTZ-JKFIT
	 Reference Energy          =    -719.0097698802894683 [Eh]
	 Singles Energy            =      -0.0000000000000000 [Eh]
	 Same-Spin Energy          =      -0.4234995228649960 [Eh]
	 Opposite-Spin Energy      =      -1.2438152256428998 [Eh]
	 Correlation Energy        =      -1.6673147485078958 [Eh]
	 Total Energy              =    -720.6770846287973882 [Eh]

	 ================> DF-SCS-MP2 Energies <==================
	-----------------------------------------------------------
	 SCS Same-Spin Scale       =       0.3333333333333333 [-]
	 SCS Opposite-Spin Scale   =       1.2000000000000000 [-]
	 SCS Same-Spin Energy      =      -0.1411665076216653 [Eh]
	 SCS Opposite-Spin Energy  =      -1.4925782707714796 [Eh]
	 SCS Correlation Energy    =      -1.6337447783931449 [Eh]
	 SCS Total Energy          =    -720.6435146586826477 [Eh]
	-----------------------------------------------------------

  Dipole Moment: [D]
     X:    -8.2146      Y:    -0.1939      Z:    -0.0031     Total:     8.2168

*** Psi4 exiting successfully. Buy a developer a beer!
