                               Psi4 1.4a3.dev225

  ==> Input File <==

--------------------------------------------------------------------------
#psi4
#
memory 32 gb

molecule  {
-2 1
  P        0.9779190    -0.0071730     0.0036310
  O       -0.6414480     0.5895360    -0.0608370
  O        1.7663530     1.3109990    -0.0273720
  O        1.1203390    -0.8841130    -1.2536930
  O        1.0536558    -0.8044661     1.3770558
  C       -1.6443320    -0.4127400    -0.0031870
  C       -3.0079050     0.2540090    -0.0015060
  H       -1.5542930    -1.0922920    -0.8626040
  H       -1.5171060    -1.0208640     0.9023270
  H       -3.8086770    -0.4913540     0.0489290
  H       -3.1025260     0.9214830     0.8596320
  H       -3.1449030     0.8467680    -0.9102780
units angstrom
no_reorient  #important for SAPT in psi4, default
symmetry c1  #important for SAPT in psi4, default
}

set PROPERTIES_ORIGIN ["COM"]
properties('MP2/aug-cc-pvtz', properties = ['dipole'])
--------------------------------------------------------------------------

    Molecular point group: c1
  Charge       = -2
  Multiplicity = 1
  Basis Set: AUG-CC-PVTZ
    Blend: AUG-CC-PVTZ
  Basis Set: (AUG-CC-PVTZ AUX)
    Blend: AUG-CC-PVTZ-JKFIT

    Orbital Energies [Eh]
    ---------------------

    Doubly Occupied:

       1A    -79.666521     2A    -20.214106     3A    -20.108046
       4A    -20.106001     5A    -20.102212     6A    -10.982848
       7A    -10.974073     8A     -7.180115     9A     -5.079656
      10A     -5.077347    11A     -5.076971    12A     -1.021076
      13A     -0.911211    14A     -0.846973    15A     -0.834239
      16A     -0.744276    17A     -0.554862    18A     -0.391718
      19A     -0.364603    20A     -0.304332    21A     -0.281554
      22A     -0.262299    23A     -0.249670    24A     -0.184284
      25A     -0.181497    26A     -0.160553    27A     -0.116732
      28A     -0.082483    29A     -0.077487    30A     -0.074500
      31A     -0.042514    32A     -0.036964    33A     -0.011392

  @DF-RHF Final Energy:  -719.00549681507221

   => Energetics <=

    Nuclear Repulsion Energy =            407.2696783920392818
    One-Electron Energy =               -1827.9441300169205533
    Two-Electron Energy =                 701.6689548098091791
    Total Energy =                       -719.0054968150722061
  Basis Set: (AUG-CC-PVTZ AUX)
    Blend: AUG-CC-PVTZ-RI
    Molecular point group: c1

    Geometry (in Angstrom), charge = -2, multiplicity = 1:

       Center              X                  Y                   Z               Mass
    ------------   -----------------  -----------------  -----------------  -----------------
         P            0.865022061095    -0.010564066560    -0.001665569678    30.973761998420
         O           -0.754344938905     0.586144933440    -0.066133569678    15.994914619570
         O            1.653456061095     1.307607933440    -0.032668569678    15.994914619570
         O            1.007442061095    -0.887504066560    -1.258989569678    15.994914619570
         O            0.940758861095    -0.807857166560     1.371759230322    15.994914619570
         C           -1.757228938905    -0.416131066560    -0.008483569678    12.000000000000
         C           -3.120801938905     0.250617933440    -0.006802569678    12.000000000000
         H           -1.667189938905    -1.095683066560    -0.867900569678     1.007825032230
         H           -1.630002938905    -1.024255066560     0.897030430322     1.007825032230
         H           -3.921573938905    -0.494745066560     0.043632430322     1.007825032230
         H           -3.215422938905     0.918091933440     0.854335430322     1.007825032230
         H           -3.257799938905     0.843376933440    -0.915574569678     1.007825032230

  Basis Set: AUG-CC-PVTZ
    Blend: AUG-CC-PVTZ
  Basis Set: (AUG-CC-PVTZ AUX)
    Blend: AUG-CC-PVTZ-JKFIT
	 Reference Energy          =    -719.0054968150722061 [Eh]
	 Singles Energy            =      -0.0000000000000000 [Eh]
	 Same-Spin Energy          =      -0.4241955158236445 [Eh]
	 Opposite-Spin Energy      =      -1.2456853135763732 [Eh]
	 Correlation Energy        =      -1.6698808294000176 [Eh]
	 Total Energy              =    -720.6753776444721780 [Eh]

	 ================> DF-SCS-MP2 Energies <==================
	-----------------------------------------------------------
	 SCS Same-Spin Scale       =       0.3333333333333333 [-]
	 SCS Opposite-Spin Scale   =       1.2000000000000000 [-]
	 SCS Same-Spin Energy      =      -0.1413985052745481 [Eh]
	 SCS Opposite-Spin Energy  =      -1.4948223762916479 [Eh]
	 SCS Correlation Energy    =      -1.6362208815661961 [Eh]
	 SCS Total Energy          =    -720.6417176966383522 [Eh]
	-----------------------------------------------------------

  Dipole Moment: [D]
     X:    -8.3390      Y:    -0.0160      Z:    -0.3423     Total:     8.3461

*** Psi4 exiting successfully. Buy a developer a beer!
