                               Psi4 1.3.2 release

  ==> Input File <==

--------------------------------------------------------------------------
#psi4
#
memory 32 gb

molecule  {
-2 1
  P        0.9768750    -0.0085140     0.0002390
  O       -0.6411800     0.5927210    -0.0041200
  O        1.7666250     1.3097720    -0.0037790
  O        1.0866210    -0.8364840    -1.2938730
  O        1.0692386    -0.7200581     1.1323208
  C       -1.6429090    -0.4124060    -0.0002650
  C       -3.0065950     0.2536250    -0.0000790
  H       -1.5335210    -1.0590140    -0.8819370
  H       -1.5311640    -1.0543110     0.8844880
  H       -3.8081830    -0.4926330     0.0030840
  H       -3.1205860     0.8863090     0.8845190
  H       -3.1233430     0.8818480    -0.8874810
units angstrom
no_reorient  #important for SAPT in psi4, default
symmetry c1  #important for SAPT in psi4, default
}

set PROPERTIES_ORIGIN ["COM"]
properties('MP2/aug-cc-pvtz', properties = ['dipole'])
--------------------------------------------------------------------------

    Molecular point group: c1
  Charge       = -2
  Multiplicity = 1
  Basis Set: AUG-CC-PVTZ
    Blend: AUG-CC-PVTZ
  Basis Set: (AUG-CC-PVTZ AUX)
    Blend: AUG-CC-PVTZ-JKFIT

    Orbital Energies [Eh]
    ---------------------

    Doubly Occupied:

       1A    -79.612114     2A    -20.196382     3A    -20.090554
       4A    -20.084610     5A    -20.078169     6A    -10.976956
       7A    -10.969572     8A     -7.138652     9A     -5.038467
      10A     -5.036094    11A     -5.033907    12A     -1.022323
      13A     -0.959832    14A     -0.855317    15A     -0.826190
      16A     -0.738496    17A     -0.548430    18A     -0.379944
      19A     -0.359056    20A     -0.296494    21A     -0.275619
      22A     -0.256694    23A     -0.247668    24A     -0.195565
      25A     -0.188890    26A     -0.171559    27A     -0.113910
      28A     -0.095548    29A     -0.083514    30A     -0.068104
      31A     -0.038841    32A     -0.025203    33A      0.001488

  @DF-RHF Final Energy:  -718.97410995369478

   => Energetics <=

    Nuclear Repulsion Energy =            418.5497339358090585
    One-Electron Energy =               -1851.0453227640366549
    Two-Electron Energy =                 713.5214788745327041
    Total Energy =                       -718.9741099536947786
  Basis Set: (AUG-CC-PVTZ AUX)
    Blend: AUG-CC-PVTZ-RI
    Molecular point group: c1

    Geometry (in Angstrom), charge = -2, multiplicity = 1:

       Center              X                  Y                   Z               Mass
    ------------   -----------------  -----------------  -----------------  -----------------
         P            0.866157083531    -0.028837928875     0.022049898525    30.973761998420
         O           -0.751897916469     0.572397071125     0.017690898525    15.994914619570
         O            1.655907083531     1.289448071125     0.018031898525    15.994914619570
         O            0.975903083531    -0.856807928875    -1.272062101475    15.994914619570
         O            0.958520683531    -0.740382028875     1.154131698525    15.994914619570
         C           -1.753626916469    -0.432729928875     0.021545898525    12.000000000000
         C           -3.117312916469     0.233301071125     0.021731898525    12.000000000000
         H           -1.644238916469    -1.079337928875    -0.860126101475     1.007825032230
         H           -1.641881916469    -1.074634928875     0.906298898525     1.007825032230
         H           -3.918900916469    -0.512956928875     0.024894898525     1.007825032230
         H           -3.231303916469     0.865985071125     0.906329898525     1.007825032230
         H           -3.234060916469     0.861524071125    -0.865670101475     1.007825032230

  Basis Set: AUG-CC-PVTZ
    Blend: AUG-CC-PVTZ
  Basis Set: (AUG-CC-PVTZ AUX)
    Blend: AUG-CC-PVTZ-JKFIT
	 Reference Energy          =    -718.9741099536947786 [Eh]
	 Singles Energy            =      -0.0000000000000000 [Eh]
	 Same-Spin Energy          =      -0.4199386343512514 [Eh]
	 Opposite-Spin Energy      =      -1.2345510327827831 [Eh]
	 Correlation Energy        =      -1.6544896671340346 [Eh]
	 Total Energy              =    -720.6285996208288225 [Eh]

	 ================> DF-SCS-MP2 Energies <==================
	-----------------------------------------------------------
	 SCS Same-Spin Scale       =       0.3333333333333333 [-]
	 SCS Opposite-Spin Scale   =       1.2000000000000000 [-]
	 SCS Same-Spin Energy      =      -0.1399795447837505 [Eh]
	 SCS Opposite-Spin Energy  =      -1.4814612393393396 [Eh]
	 SCS Correlation Energy    =      -1.6214407841230900 [Eh]
	 SCS Total Energy          =    -720.5955507378179163 [Eh]
	-----------------------------------------------------------

  Dipole Moment: [D]
     X:    -8.1023      Y:    -0.8986      Z:     1.1767     Total:     8.2365

*** Psi4 exiting successfully. Buy a developer a beer!
