                               Psi4 1.3.2 release

  ==> Input File <==

--------------------------------------------------------------------------
#psi4
#
memory 32 gb

molecule  {
-2 1
  P        0.9768750    -0.0085140     0.0002390
  O       -0.6768688     0.6270686    -0.0041572
  O        1.7666250     1.3097720    -0.0037790
  O        1.0866210    -0.8364840    -1.2938730
  O        1.0830210    -0.8262340     1.3012490
  C       -1.6429090    -0.4124060    -0.0002650
  C       -2.9825202     0.3008110    -0.0002290
  H       -1.5335210    -1.0590140    -0.8819370
  H       -1.5311640    -1.0543110     0.8844880
  H       -3.8081830    -0.4926330     0.0030840
  H       -3.1205860     0.8863090     0.8845190
  H       -3.1233430     0.8818480    -0.8874810
units angstrom
no_reorient  #important for SAPT in psi4, default
symmetry c1  #important for SAPT in psi4, default
}

set PROPERTIES_ORIGIN ["COM"]
properties('MP2/aug-cc-pvtz', properties = ['dipole'])
--------------------------------------------------------------------------

    Molecular point group: c1
  Charge       = -2
  Multiplicity = 1
  Basis Set: AUG-CC-PVTZ
    Blend: AUG-CC-PVTZ
  Basis Set: (AUG-CC-PVTZ AUX)
    Blend: AUG-CC-PVTZ-JKFIT

    Orbital Energies [Eh]
    ---------------------

    Doubly Occupied:

       1A    -79.662322     2A    -20.209346     3A    -20.108215
       4A    -20.108178     5A    -20.099520     6A    -10.978975
       7A    -10.970519     8A     -7.176925     9A     -5.076310
      10A     -5.074005    11A     -5.073950    12A     -1.012310
      13A     -0.917940    14A     -0.848957    15A     -0.844231
      16A     -0.737499    17A     -0.550917    18A     -0.381231
      19A     -0.368255    20A     -0.293658    21A     -0.274950
      22A     -0.264976    23A     -0.241400    24A     -0.186421
      25A     -0.179703    26A     -0.166158    27A     -0.115020
      28A     -0.082601    29A     -0.080299    30A     -0.079359
      31A     -0.043110    32A     -0.042198    33A     -0.012805

  @DF-RHF Final Energy:  -719.00472717009382

   => Energetics <=

    Nuclear Repulsion Energy =            408.2490448580401221
    One-Electron Energy =               -1829.9830187079548978
    Two-Electron Energy =                 702.7292466798209034
    Total Energy =                       -719.0047271700938154
  Basis Set: (AUG-CC-PVTZ AUX)
    Blend: AUG-CC-PVTZ-RI
    Molecular point group: c1

    Geometry (in Angstrom), charge = -2, multiplicity = 1:

       Center              X                  Y                   Z               Mass
    ------------   -----------------  -----------------  -----------------  -----------------
         P            0.866653027842    -0.024138811499     0.000277645111    30.973761998420
         O           -0.787090772158     0.611443788501    -0.004118554889    15.994914619570
         O            1.656403027842     1.294147188501    -0.003740354889    15.994914619570
         O            0.976399027842    -0.852108811499    -1.293834354889    15.994914619570
         O            0.972799027842    -0.841858811499     1.301287645111    15.994914619570
         C           -1.753130972158    -0.428030811499    -0.000226354889    12.000000000000
         C           -3.092742172158     0.285186188501    -0.000190354889    12.000000000000
         H           -1.643742972158    -1.074638811499    -0.881898354889     1.007825032230
         H           -1.641385972158    -1.069935811499     0.884526645111     1.007825032230
         H           -3.918404972158    -0.508257811499     0.003122645111     1.007825032230
         H           -3.230807972158     0.870684188501     0.884557645111     1.007825032230
         H           -3.233564972158     0.866223188501    -0.887442354889     1.007825032230

  Basis Set: AUG-CC-PVTZ
    Blend: AUG-CC-PVTZ
  Basis Set: (AUG-CC-PVTZ AUX)
    Blend: AUG-CC-PVTZ-JKFIT
	 Reference Energy          =    -719.0047271700938154 [Eh]
	 Singles Energy            =      -0.0000000000000000 [Eh]
	 Same-Spin Energy          =      -0.4239874935671912 [Eh]
	 Opposite-Spin Energy      =      -1.2451550791407815 [Eh]
	 Correlation Energy        =      -1.6691425727079727 [Eh]
	 Total Energy              =    -720.6738697428017986 [Eh]

	 ================> DF-SCS-MP2 Energies <==================
	-----------------------------------------------------------
	 SCS Same-Spin Scale       =       0.3333333333333333 [-]
	 SCS Opposite-Spin Scale   =       1.2000000000000000 [-]
	 SCS Same-Spin Energy      =      -0.1413291645223971 [Eh]
	 SCS Opposite-Spin Energy  =      -1.4941860949689378 [Eh]
	 SCS Correlation Energy    =      -1.6355152594913349 [Eh]
	 SCS Total Energy          =    -720.6402424295851006 [Eh]
	-----------------------------------------------------------

  Dipole Moment: [D]
     X:    -7.9322      Y:    -0.1836      Z:    -0.0032     Total:     7.9344

*** Psi4 exiting successfully. Buy a developer a beer!
