                               Psi4 1.3.2 release

  ==> Input File <==

--------------------------------------------------------------------------
#psi4
#
memory 32 gb

molecule  {
-2 1
  P        0.9768750    -0.0085140     0.0002390
  O       -0.6457375     0.5972274     0.0064761
  O        1.7666250     1.3097720    -0.0037790
  O        1.0866210    -0.8364840    -1.2938730
  O        1.0830210    -0.8262340     1.3012490
  C       -1.6429090    -0.4124060    -0.0002650
  C       -3.0065950     0.2536250    -0.0000790
  H       -1.5410851    -1.0641540    -0.8790537
  H       -1.5311640    -1.0543110     0.8844880
  H       -3.8081830    -0.4926330     0.0030840
  H       -3.1205860     0.8863090     0.8845190
  H       -3.1233430     0.8818480    -0.8874810
units angstrom
no_reorient  #important for SAPT in psi4, default
symmetry c1  #important for SAPT in psi4, default
}

set PROPERTIES_ORIGIN ["COM"]
properties('MP2/aug-cc-pvtz', properties = ['dipole'])
--------------------------------------------------------------------------

    Molecular point group: c1
  Charge       = -2
  Multiplicity = 1
  Basis Set: AUG-CC-PVTZ
    Blend: AUG-CC-PVTZ
  Basis Set: (AUG-CC-PVTZ AUX)
    Blend: AUG-CC-PVTZ-JKFIT

    Orbital Energies [Eh]
    ---------------------

    Doubly Occupied:

       1A    -79.658565     2A    -20.210959     3A    -20.104707
       4A    -20.103866     5A    -20.097522     6A    -10.981363
       7A    -10.972649     8A     -7.173428     9A     -5.072882
      10A     -5.070567    11A     -5.070478    12A     -1.018507
      13A     -0.914599    14A     -0.845781    15A     -0.842076
      16A     -0.742624    17A     -0.553170    18A     -0.388897
      19A     -0.362984    20A     -0.302454    21A     -0.279207
      22A     -0.260254    23A     -0.248764    24A     -0.185262
      25A     -0.180745    26A     -0.161993    27A     -0.116074
      28A     -0.080430    29A     -0.079511    30A     -0.077950
      31A     -0.039867    32A     -0.039306    33A     -0.009973

  @DF-RHF Final Energy:  -719.01012343603554

   => Energetics <=

    Nuclear Repulsion Energy =            409.1416637063503572
    One-Electron Energy =               -1831.8087443564490968
    Two-Electron Energy =                 703.6569572140632545
    Total Energy =                       -719.0101234360355420
  Basis Set: (AUG-CC-PVTZ AUX)
    Blend: AUG-CC-PVTZ-RI
    Molecular point group: c1

    Geometry (in Angstrom), charge = -2, multiplicity = 1:

       Center              X                  Y                   Z               Mass
    ------------   -----------------  -----------------  -----------------  -----------------
         P            0.865028562475    -0.015680886376    -0.001131992755    30.973761998420
         O           -0.757583937525     0.590060513624     0.005105107245    15.994914619570
         O            1.654778562475     1.302605113624    -0.005149992755    15.994914619570
         O            0.974774562475    -0.843650886376    -1.295243992755    15.994914619570
         O            0.971174562475    -0.833400886376     1.299878007245    15.994914619570
         C           -1.754755437525    -0.419572886376    -0.001635992755    12.000000000000
         C           -3.118441437525     0.246458113624    -0.001449992755    12.000000000000
         H           -1.652931537525    -1.071320886376    -0.880424692755     1.007825032230
         H           -1.643010437525    -1.061477886376     0.883117007245     1.007825032230
         H           -3.920029437525    -0.499799886376     0.001713007245     1.007825032230
         H           -3.232432437525     0.879142113624     0.883148007245     1.007825032230
         H           -3.235189437525     0.874681113624    -0.888851992755     1.007825032230

  Basis Set: AUG-CC-PVTZ
    Blend: AUG-CC-PVTZ
  Basis Set: (AUG-CC-PVTZ AUX)
    Blend: AUG-CC-PVTZ-JKFIT
	 Reference Energy          =    -719.0101234360355420 [Eh]
	 Singles Energy            =      -0.0000000000000000 [Eh]
	 Same-Spin Energy          =      -0.4234301274373017 [Eh]
	 Opposite-Spin Energy      =      -1.2436164675557544 [Eh]
	 Correlation Energy        =      -1.6670465949930562 [Eh]
	 Total Energy              =    -720.6771700310285951 [Eh]

	 ================> DF-SCS-MP2 Energies <==================
	-----------------------------------------------------------
	 SCS Same-Spin Scale       =       0.3333333333333333 [-]
	 SCS Opposite-Spin Scale   =       1.2000000000000000 [-]
	 SCS Same-Spin Energy      =      -0.1411433758124339 [Eh]
	 SCS Opposite-Spin Energy  =      -1.4923397610669051 [Eh]
	 SCS Correlation Energy    =      -1.6334831368793390 [Eh]
	 SCS Total Energy          =    -720.6436065729149050 [Eh]
	-----------------------------------------------------------

  Dipole Moment: [D]
     X:    -8.2637      Y:    -0.2079      Z:    -0.0167     Total:     8.2663

*** Psi4 exiting successfully. Buy a developer a beer!
