                               Psi4 1.3.2 release

  ==> Input File <==

--------------------------------------------------------------------------
#psi4
#
memory 32 gb

molecule  {
-2 1
  P        0.9661353    -0.0366611     0.0003630
  O       -0.6411800     0.5927210    -0.0041200
  O        1.7666250     1.3097720    -0.0037790
  O        1.0866210    -0.8364840    -1.2938730
  O        1.0830210    -0.8262340     1.3012490
  C       -1.6252144    -0.4297352    -0.0001662
  C       -3.0065950     0.2536250    -0.0000790
  H       -1.5335210    -1.0590140    -0.8819370
  H       -1.5311640    -1.0543110     0.8844880
  H       -3.8081830    -0.4926330     0.0030840
  H       -3.1205860     0.8863090     0.8845190
  H       -3.1233430     0.8818480    -0.8874810
units angstrom
no_reorient  #important for SAPT in psi4, default
symmetry c1  #important for SAPT in psi4, default
}

set PROPERTIES_ORIGIN ["COM"]
properties('MP2/aug-cc-pvtz', properties = ['dipole'])
--------------------------------------------------------------------------

    Molecular point group: c1
  Charge       = -2
  Multiplicity = 1
  Basis Set: AUG-CC-PVTZ
    Blend: AUG-CC-PVTZ
  Basis Set: (AUG-CC-PVTZ AUX)
    Blend: AUG-CC-PVTZ-JKFIT

    Orbital Energies [Eh]
    ---------------------

    Doubly Occupied:

       1A    -79.657909     2A    -20.212349     3A    -20.106910
       4A    -20.106888     5A    -20.091194     6A    -10.982044
       7A    -10.973444     8A     -7.172994     9A     -5.072428
      10A     -5.070184    11A     -5.069990    12A     -1.021272
      13A     -0.916398    14A     -0.854082    15A     -0.830787
      16A     -0.738537    17A     -0.557237    18A     -0.388712
      19A     -0.364867    20A     -0.303134    21A     -0.274656
      22A     -0.264805    23A     -0.250590    24A     -0.188355
      25A     -0.178333    26A     -0.162596    27A     -0.120468
      28A     -0.083747    29A     -0.078474    30A     -0.075632
      31A     -0.043629    32A     -0.032352    33A     -0.007997

  @DF-RHF Final Energy:  -719.00783769176655

   => Energetics <=

    Nuclear Repulsion Energy =            409.5315207387171768
    One-Electron Energy =               -1832.5727310128049794
    Two-Electron Energy =                 704.0333725823213626
    Total Energy =                       -719.0078376917665537
  Basis Set: (AUG-CC-PVTZ AUX)
    Blend: AUG-CC-PVTZ-RI
    Molecular point group: c1

    Geometry (in Angstrom), charge = -2, multiplicity = 1:

       Center              X                  Y                   Z               Mass
    ------------   -----------------  -----------------  -----------------  -----------------
         P            0.854609797889    -0.034580081729     0.000341791858    30.973761998420
         O           -0.752705502111     0.594802018271    -0.004141208142    15.994914619570
         O            1.655099497889     1.311853018271    -0.003800208142    15.994914619570
         O            0.975095497889    -0.834402981729    -1.293894208142    15.994914619570
         O            0.971495497889    -0.824152981729     1.301227791858    15.994914619570
         C           -1.736739902111    -0.427654181729    -0.000187408142    12.000000000000
         C           -3.118120502111     0.255706018271    -0.000100208142    12.000000000000
         H           -1.645046502111    -1.056932981729    -0.881958208142     1.007825032230
         H           -1.642689502111    -1.052229981729     0.884466791858     1.007825032230
         H           -3.919708502111    -0.490551981729     0.003062791858     1.007825032230
         H           -3.232111502111     0.888390018271     0.884497791858     1.007825032230
         H           -3.234868502111     0.883929018271    -0.887502208142     1.007825032230

  Basis Set: AUG-CC-PVTZ
    Blend: AUG-CC-PVTZ
  Basis Set: (AUG-CC-PVTZ AUX)
    Blend: AUG-CC-PVTZ-JKFIT
	 Reference Energy          =    -719.0078376917665537 [Eh]
	 Singles Energy            =      -0.0000000000000000 [Eh]
	 Same-Spin Energy          =      -0.4233854505444298 [Eh]
	 Opposite-Spin Energy      =      -1.2436763926853027 [Eh]
	 Correlation Energy        =      -1.6670618432297326 [Eh]
	 Total Energy              =    -720.6748995349962570 [Eh]

	 ================> DF-SCS-MP2 Energies <==================
	-----------------------------------------------------------
	 SCS Same-Spin Scale       =       0.3333333333333333 [-]
	 SCS Opposite-Spin Scale   =       1.2000000000000000 [-]
	 SCS Same-Spin Energy      =      -0.1411284835148099 [Eh]
	 SCS Opposite-Spin Energy  =      -1.4924116712223632 [Eh]
	 SCS Correlation Energy    =      -1.6335401547371731 [Eh]
	 SCS Total Energy          =    -720.6413778465037012 [Eh]
	-----------------------------------------------------------

  Dipole Moment: [D]
     X:    -8.4084      Y:    -0.6232      Z:    -0.0014     Total:     8.4315

*** Psi4 exiting successfully. Buy a developer a beer!
