                               Psi4 1.3.2 release

  ==> Input File <==

--------------------------------------------------------------------------
#psi4
#
memory 32 gb

molecule  {
-2 1
  P        0.9768750    -0.0085140     0.0002390
  O       -0.6411800     0.5927210    -0.0041200
  O        1.7666250     1.3097720    -0.0037790
  O        1.0866210    -0.8364840    -1.2938730
  O        1.0968034    -0.9324099     1.4701772
  C       -1.6429090    -0.4124060    -0.0002650
  C       -3.0065950     0.2536250    -0.0000790
  H       -1.5335210    -1.0590140    -0.8819370
  H       -1.5311640    -1.0543110     0.8844880
  H       -3.8081830    -0.4926330     0.0030840
  H       -3.1205860     0.8863090     0.8845190
  H       -3.1233430     0.8818480    -0.8874810
units angstrom
no_reorient  #important for SAPT in psi4, default
symmetry c1  #important for SAPT in psi4, default
}

set PROPERTIES_ORIGIN ["COM"]
properties('MP2/aug-cc-pvtz', properties = ['dipole'])
--------------------------------------------------------------------------

    Molecular point group: c1
  Charge       = -2
  Multiplicity = 1
  Basis Set: AUG-CC-PVTZ
    Blend: AUG-CC-PVTZ
  Basis Set: (AUG-CC-PVTZ AUX)
    Blend: AUG-CC-PVTZ-JKFIT

    Orbital Energies [Eh]
    ---------------------

    Doubly Occupied:

       1A    -79.687060     2A    -20.223847     3A    -20.121200
       4A    -20.114616     5A    -20.113312     6A    -10.986608
       7A    -10.976889     8A     -7.198617     9A     -5.098064
      10A     -5.095821    11A     -5.095090    12A     -1.028103
      13A     -0.913267    14A     -0.857851    15A     -0.800066
      16A     -0.747819    17A     -0.558982    18A     -0.399461
      19A     -0.368325    20A     -0.309340    21A     -0.286471
      22A     -0.266681    23A     -0.254232    24A     -0.185469
      25A     -0.184123    26A     -0.161704    27A     -0.119388
      28A     -0.090423    29A     -0.075701    30A     -0.060406
      31A     -0.051399    32A     -0.028679    33A     -0.014296

  @DF-RHF Final Energy:  -718.97623294534446

   => Energetics <=

    Nuclear Repulsion Energy =            401.7442828511539119
    One-Electron Energy =               -1816.4944116891824706
    Two-Electron Energy =                 695.7738958926840951
    Total Energy =                       -718.9762329453444636
  Basis Set: (AUG-CC-PVTZ AUX)
    Blend: AUG-CC-PVTZ-RI
    Molecular point group: c1

    Geometry (in Angstrom), charge = -2, multiplicity = 1:

       Center              X                  Y                   Z               Mass
    ------------   -----------------  -----------------  -----------------  -----------------
         P            0.862601251846    -0.001444758642    -0.021533239831    30.973761998420
         O           -0.755453748154     0.599790241358    -0.025892239831    15.994914619570
         O            1.652351251846     1.316841241358    -0.025551239831    15.994914619570
         O            0.972347251846    -0.829414758642    -1.315645239831    15.994914619570
         O            0.982529651846    -0.925340658642     1.448404960169    15.994914619570
         C           -1.757182748154    -0.405336758642    -0.022037239831    12.000000000000
         C           -3.120868748154     0.260694241358    -0.021851239831    12.000000000000
         H           -1.647794748154    -1.051944758642    -0.903709239831     1.007825032230
         H           -1.645437748154    -1.047241758642     0.862715760169     1.007825032230
         H           -3.922456748154    -0.485563758642    -0.018688239831     1.007825032230
         H           -3.234859748154     0.893378241358     0.862746760169     1.007825032230
         H           -3.237616748154     0.888917241358    -0.909253239831     1.007825032230

  Basis Set: AUG-CC-PVTZ
    Blend: AUG-CC-PVTZ
  Basis Set: (AUG-CC-PVTZ AUX)
    Blend: AUG-CC-PVTZ-JKFIT
	 Reference Energy          =    -718.9762329453444636 [Eh]
	 Singles Energy            =      -0.0000000000000000 [Eh]
	 Same-Spin Energy          =      -0.4266750257652346 [Eh]
	 Opposite-Spin Energy      =      -1.2527095435220847 [Eh]
	 Correlation Energy        =      -1.6793845692873193 [Eh]
	 Total Energy              =    -720.6556175146317855 [Eh]

	 ================> DF-SCS-MP2 Energies <==================
	-----------------------------------------------------------
	 SCS Same-Spin Scale       =       0.3333333333333333 [-]
	 SCS Opposite-Spin Scale   =       1.2000000000000000 [-]
	 SCS Same-Spin Energy      =      -0.1422250085884115 [Eh]
	 SCS Opposite-Spin Energy  =      -1.5032514522265017 [Eh]
	 SCS Correlation Energy    =      -1.6454764608149133 [Eh]
	 SCS Total Energy          =    -720.6217094061594253 [Eh]
	-----------------------------------------------------------

  Dipole Moment: [D]
     X:    -8.5133      Y:     0.5319      Z:    -1.2133     Total:     8.6158

*** Psi4 exiting successfully. Buy a developer a beer!
