                               Psi4 1.3.2 release

  ==> Input File <==

--------------------------------------------------------------------------
#psi4
#
memory 32 gb

molecule  {
-2 1
  P        0.9768750    -0.0085140     0.0002390
  O       -0.6503709     0.6016570     0.0170716
  O        1.7666250     1.3097720    -0.0037790
  O        1.0866210    -0.8364840    -1.2938730
  O        1.0830210    -0.8262340     1.3012490
  C       -1.6429090    -0.4124060    -0.0002650
  C       -3.0065950     0.2536250    -0.0000790
  H       -1.5486570    -1.0692444    -0.8761034
  H       -1.5311640    -1.0543110     0.8844880
  H       -3.8081830    -0.4926330     0.0030840
  H       -3.1205860     0.8863090     0.8845190
  H       -3.1233430     0.8818480    -0.8874810
units angstrom
no_reorient  #important for SAPT in psi4, default
symmetry c1  #important for SAPT in psi4, default
}

set PROPERTIES_ORIGIN ["COM"]
properties('MP2/aug-cc-pvtz', properties = ['dipole'])
--------------------------------------------------------------------------

    Molecular point group: c1
  Charge       = -2
  Multiplicity = 1
  Basis Set: AUG-CC-PVTZ
    Blend: AUG-CC-PVTZ
  Basis Set: (AUG-CC-PVTZ AUX)
    Blend: AUG-CC-PVTZ-JKFIT

    Orbital Energies [Eh]
    ---------------------

    Doubly Occupied:

       1A    -79.659194     2A    -20.211156     3A    -20.105665
       4A    -20.104014     5A    -20.097870     6A    -10.981110
       7A    -10.972129     8A     -7.174011     9A     -5.073456
      10A     -5.071141    11A     -5.071055    12A     -1.017571
      13A     -0.915088    14A     -0.846239    15A     -0.842395
      16A     -0.742111    17A     -0.552759    18A     -0.388428
      19A     -0.362449    20A     -0.302179    21A     -0.278410
      22A     -0.259452    23A     -0.248864    24A     -0.185305
      25A     -0.180628    26A     -0.162707    27A     -0.116030
      28A     -0.080624    29A     -0.079835    30A     -0.078227
      31A     -0.040488    32A     -0.039595    33A     -0.010386

  @DF-RHF Final Energy:  -719.00972894621441

   => Energetics <=

    Nuclear Repulsion Energy =            408.9459766043270292
    One-Electron Energy =               -1831.4102680911655625
    Two-Electron Energy =                 703.4545625406242380
    Total Energy =                       -719.0097289462144090
  Basis Set: (AUG-CC-PVTZ AUX)
    Blend: AUG-CC-PVTZ-RI
    Molecular point group: c1

    Geometry (in Angstrom), charge = -2, multiplicity = 1:

       Center              X                  Y                   Z               Mass
    ------------   -----------------  -----------------  -----------------  -----------------
         P            0.865687811685    -0.016210925024    -0.002522782042    30.973761998420
         O           -0.761558088315     0.593960074976     0.014309817958    15.994914619570
         O            1.655437811685     1.302075074976    -0.006540782042    15.994914619570
         O            0.975433811685    -0.844180925024    -1.296634782042    15.994914619570
         O            0.971833811685    -0.833930925024     1.298487217958    15.994914619570
         C           -1.754096188315    -0.420102925024    -0.003026782042    12.000000000000
         C           -3.117782188315     0.245928074976    -0.002840782042    12.000000000000
         H           -1.659844188315    -1.076941325024    -0.878865182042     1.007825032230
         H           -1.642351188315    -1.062007925024     0.881726217958     1.007825032230
         H           -3.919370188315    -0.500329925024     0.000322217958     1.007825032230
         H           -3.231773188315     0.878612074976     0.881757217958     1.007825032230
         H           -3.234530188315     0.874151074976    -0.890242782042     1.007825032230

  Basis Set: AUG-CC-PVTZ
    Blend: AUG-CC-PVTZ
  Basis Set: (AUG-CC-PVTZ AUX)
    Blend: AUG-CC-PVTZ-JKFIT
	 Reference Energy          =    -719.0097289462144090 [Eh]
	 Singles Energy            =      -0.0000000000000000 [Eh]
	 Same-Spin Energy          =      -0.4235046746535371 [Eh]
	 Opposite-Spin Energy      =      -1.2438211469926894 [Eh]
	 Correlation Energy        =      -1.6673258216462266 [Eh]
	 Total Energy              =    -720.6770547678606817 [Eh]

	 ================> DF-SCS-MP2 Energies <==================
	-----------------------------------------------------------
	 SCS Same-Spin Scale       =       0.3333333333333333 [-]
	 SCS Opposite-Spin Scale   =       1.2000000000000000 [-]
	 SCS Same-Spin Energy      =      -0.1411682248845124 [Eh]
	 SCS Opposite-Spin Energy  =      -1.4925853763912273 [Eh]
	 SCS Correlation Energy    =      -1.6337536012757397 [Eh]
	 SCS Total Energy          =    -720.6434825474901800 [Eh]
	-----------------------------------------------------------

  Dipole Moment: [D]
     X:    -8.2240      Y:    -0.2198      Z:    -0.0301     Total:     8.2270

*** Psi4 exiting successfully. Buy a developer a beer!
