                               Psi4 1.4a3.dev225

  ==> Input File <==

--------------------------------------------------------------------------
#psi4
#
memory 32 gb

molecule  {
-2 1
  P        0.9779190    -0.0071730     0.0036310
  O       -0.6414480     0.5895360    -0.0608370
  O        1.7663530     1.3109990    -0.0273720
  O        1.1203390    -0.8841130    -1.2536930
  O        1.0512740    -0.7793920     1.3338630
  C       -1.6301973    -0.3986138    -0.0039995
  C       -3.0079050     0.2540090    -0.0015060
  H       -1.5542930    -1.0922920    -0.8626040
  H       -1.5171060    -1.0208640     0.9023270
  H       -3.8086770    -0.4913540     0.0489290
  H       -3.1025260     0.9214830     0.8596320
  H       -3.1449030     0.8467680    -0.9102780
units angstrom
no_reorient  #important for SAPT in psi4, default
symmetry c1  #important for SAPT in psi4, default
}

set PROPERTIES_ORIGIN ["COM"]
properties('MP2/aug-cc-pvtz', properties = ['dipole'])
--------------------------------------------------------------------------

    Molecular point group: c1
  Charge       = -2
  Multiplicity = 1
  Basis Set: AUG-CC-PVTZ
    Blend: AUG-CC-PVTZ
  Basis Set: (AUG-CC-PVTZ AUX)
    Blend: AUG-CC-PVTZ-JKFIT

    Orbital Energies [Eh]
    ---------------------

    Doubly Occupied:

       1A    -79.658775     2A    -20.212073     3A    -20.104107
       4A    -20.104084     5A    -20.098289     6A    -10.982378
       7A    -10.972423     8A     -7.173736     9A     -5.073215
      10A     -5.070860    11A     -5.070780    12A     -1.026478
      13A     -0.915975    14A     -0.845806    15A     -0.842898
      16A     -0.740831    17A     -0.551641    18A     -0.392626
      19A     -0.362093    20A     -0.302393    21A     -0.281725
      22A     -0.261517    23A     -0.251689    24A     -0.184767
      25A     -0.179293    26A     -0.162271    27A     -0.114732
      28A     -0.081583    29A     -0.079811    30A     -0.078267
      31A     -0.040634    32A     -0.039469    33A     -0.010197

  @DF-RHF Final Energy:  -719.01116247363791

   => Energetics <=

    Nuclear Repulsion Energy =            409.6516811588061842
    One-Electron Energy =               -1832.7908568558232218
    Two-Electron Energy =                 704.1280132233790710
    Total Energy =                       -719.0111624736379099
  Basis Set: (AUG-CC-PVTZ AUX)
    Blend: AUG-CC-PVTZ-RI
    Molecular point group: c1

    Geometry (in Angstrom), charge = -2, multiplicity = 1:

       Center              X                  Y                   Z               Mass
    ------------   -----------------  -----------------  -----------------  -----------------
         P            0.863961354488    -0.015165734230     0.003984892167    30.973761998420
         O           -0.755405645512     0.581543265770    -0.060483107833    15.994914619570
         O            1.652395354488     1.303006265770    -0.027018107833    15.994914619570
         O            1.006381354488    -0.892105734230    -1.253339107833    15.994914619570
         O            0.937316354488    -0.787384734230     1.334216892167    15.994914619570
         C           -1.744154945512    -0.406606534230    -0.003645607833    12.000000000000
         C           -3.121862645512     0.246016265770    -0.001152107833    12.000000000000
         H           -1.668250645512    -1.100284734230    -0.862250107833     1.007825032230
         H           -1.631063645512    -1.028856734230     0.902680892167     1.007825032230
         H           -3.922634645512    -0.499346734230     0.049282892167     1.007825032230
         H           -3.216483645512     0.913490265770     0.859985892167     1.007825032230
         H           -3.258860645512     0.838775265770    -0.909924107833     1.007825032230

  Basis Set: AUG-CC-PVTZ
    Blend: AUG-CC-PVTZ
  Basis Set: (AUG-CC-PVTZ AUX)
    Blend: AUG-CC-PVTZ-JKFIT
	 Reference Energy          =    -719.0111624736379099 [Eh]
	 Singles Energy            =      -0.0000000000000000 [Eh]
	 Same-Spin Energy          =      -0.4232805222173847 [Eh]
	 Opposite-Spin Energy      =      -1.2430323981207057 [Eh]
	 Correlation Energy        =      -1.6663129203380904 [Eh]
	 Total Energy              =    -720.6774753939760103 [Eh]

	 ================> DF-SCS-MP2 Energies <==================
	-----------------------------------------------------------
	 SCS Same-Spin Scale       =       0.3333333333333333 [-]
	 SCS Opposite-Spin Scale   =       1.2000000000000000 [-]
	 SCS Same-Spin Energy      =      -0.1410935074057949 [Eh]
	 SCS Opposite-Spin Energy  =      -1.4916388777448468 [Eh]
	 SCS Correlation Energy    =      -1.6327323851506417 [Eh]
	 SCS Total Energy          =    -720.6438948587885989 [Eh]
	-----------------------------------------------------------

  Dipole Moment: [D]
     X:    -8.1962      Y:    -0.1428      Z:    -0.0348     Total:     8.1975

*** Psi4 exiting successfully. Buy a developer a beer!
