                               Psi4 1.3.2 release

  ==> Input File <==

--------------------------------------------------------------------------
#psi4
#
memory 32 gb

molecule  {
-2 1
  P        0.9768750    -0.0085140     0.0002390
  O       -0.6192111     0.6488238    -0.0043059
  O        1.7201362     1.3365304    -0.0039404
  O        1.0866210    -0.8364840    -1.2938730
  O        1.0830210    -0.8262340     1.3012490
  C       -1.6429090    -0.4124060    -0.0002650
  C       -3.0065950     0.2536250    -0.0000790
  H       -1.5335210    -1.0590140    -0.8819370
  H       -1.5311640    -1.0543110     0.8844880
  H       -3.8081830    -0.4926330     0.0030840
  H       -3.1205860     0.8863090     0.8845190
  H       -3.1233430     0.8818480    -0.8874810
units angstrom
no_reorient  #important for SAPT in psi4, default
symmetry c1  #important for SAPT in psi4, default
}

set PROPERTIES_ORIGIN ["COM"]
properties('MP2/aug-cc-pvtz', properties = ['dipole'])
--------------------------------------------------------------------------

    Molecular point group: c1
  Charge       = -2
  Multiplicity = 1
  Basis Set: AUG-CC-PVTZ
    Blend: AUG-CC-PVTZ
  Basis Set: (AUG-CC-PVTZ AUX)
    Blend: AUG-CC-PVTZ-JKFIT

    Orbital Energies [Eh]
    ---------------------

    Doubly Occupied:

       1A    -79.656439     2A    -20.211519     3A    -20.105563
       4A    -20.105533     5A    -20.092838     6A    -10.984029
       7A    -10.974045     8A     -7.171467     9A     -5.070962
      10A     -5.068558    11A     -5.068549    12A     -1.003442
      13A     -0.909906    14A     -0.846570    15A     -0.840573
      16A     -0.744632    17A     -0.554256    18A     -0.379812
      19A     -0.360528    20A     -0.303642    21A     -0.272501
      22A     -0.256234    23A     -0.241944    24A     -0.186845
      25A     -0.181891    26A     -0.161705    27A     -0.118196
      28A     -0.080759    29A     -0.077594    30A     -0.076686
      31A     -0.039782    32A     -0.036512    33A     -0.009691

  @DF-RHF Final Energy:  -719.00332983270289

   => Energetics <=

    Nuclear Repulsion Energy =            408.6511286172037103
    One-Electron Energy =               -1830.9225132003343788
    Two-Electron Energy =                 703.2680547504277229
    Total Energy =                       -719.0033298327028888
  Basis Set: (AUG-CC-PVTZ AUX)
    Blend: AUG-CC-PVTZ-RI
    Molecular point group: c1

    Geometry (in Angstrom), charge = -2, multiplicity = 1:

       Center              X                  Y                   Z               Mass
    ------------   -----------------  -----------------  -----------------  -----------------
         P            0.867542210313    -0.025830355847     0.000303130700    30.973761998420
         O           -0.728543889687     0.631507444153    -0.004241769300    15.994914619570
         O            1.610803410313     1.319214044153    -0.003876269300    15.994914619570
         O            0.977288210313    -0.853800355847    -1.293808869300    15.994914619570
         O            0.973688210313    -0.843550355847     1.301313130700    15.994914619570
         C           -1.752241789687    -0.429722355847    -0.000200869300    12.000000000000
         C           -3.115927789687     0.236308644153    -0.000014869300    12.000000000000
         H           -1.642853789687    -1.076330355847    -0.881872869300     1.007825032230
         H           -1.640496789687    -1.071627355847     0.884552130700     1.007825032230
         H           -3.917515789687    -0.509949355847     0.003148130700     1.007825032230
         H           -3.229918789687     0.868992644153     0.884583130700     1.007825032230
         H           -3.232675789687     0.864531644153    -0.887416869300     1.007825032230

  Basis Set: AUG-CC-PVTZ
    Blend: AUG-CC-PVTZ
  Basis Set: (AUG-CC-PVTZ AUX)
    Blend: AUG-CC-PVTZ-JKFIT
	 Reference Energy          =    -719.0033298327028888 [Eh]
	 Singles Energy            =      -0.0000000000000000 [Eh]
	 Same-Spin Energy          =      -0.4239627461296059 [Eh]
	 Opposite-Spin Energy      =      -1.2455568722553849 [Eh]
	 Correlation Energy        =      -1.6695196183849910 [Eh]
	 Total Energy              =    -720.6728494510879273 [Eh]

	 ================> DF-SCS-MP2 Energies <==================
	-----------------------------------------------------------
	 SCS Same-Spin Scale       =       0.3333333333333333 [-]
	 SCS Opposite-Spin Scale   =       1.2000000000000000 [-]
	 SCS Same-Spin Energy      =      -0.1413209153765353 [Eh]
	 SCS Opposite-Spin Energy  =      -1.4946682467064618 [Eh]
	 SCS Correlation Energy    =      -1.6359891620829972 [Eh]
	 SCS Total Energy          =    -720.6393189947858673 [Eh]
	-----------------------------------------------------------

  Dipole Moment: [D]
     X:    -8.3271      Y:    -0.3872      Z:    -0.0024     Total:     8.3361

*** Psi4 exiting successfully. Buy a developer a beer!
