                               Psi4 1.3.2 release

  ==> Input File <==

--------------------------------------------------------------------------
#psi4
#
memory 32 gb

molecule  {
-2 1
  P        0.9768750    -0.0085140     0.0002390
  O       -0.6074957     0.6765791    -0.0043967
  O        1.6965487     1.3492971    -0.0040192
  O        1.0866210    -0.8364840    -1.2938730
  O        1.0830210    -0.8262340     1.3012490
  C       -1.6429090    -0.4124060    -0.0002650
  C       -3.0065950     0.2536250    -0.0000790
  H       -1.5335210    -1.0590140    -0.8819370
  H       -1.5311640    -1.0543110     0.8844880
  H       -3.8081830    -0.4926330     0.0030840
  H       -3.1205860     0.8863090     0.8845190
  H       -3.1233430     0.8818480    -0.8874810
units angstrom
no_reorient  #important for SAPT in psi4, default
symmetry c1  #important for SAPT in psi4, default
}

set PROPERTIES_ORIGIN ["COM"]
properties('MP2/aug-cc-pvtz', properties = ['dipole'])
--------------------------------------------------------------------------

    Molecular point group: c1
  Charge       = -2
  Multiplicity = 1
  Basis Set: AUG-CC-PVTZ
    Blend: AUG-CC-PVTZ
  Basis Set: (AUG-CC-PVTZ AUX)
    Blend: AUG-CC-PVTZ-JKFIT

    Orbital Energies [Eh]
    ---------------------

    Doubly Occupied:

       1A    -79.655930     2A    -20.211848     3A    -20.106568
       4A    -20.106538     5A    -20.090763     6A    -10.984930
       7A    -10.974338     8A     -7.171008     9A     -5.070528
      10A     -5.068112    11A     -5.068049    12A     -0.996653
      13A     -0.907630    14A     -0.847286    15A     -0.839997
      16A     -0.745247    17A     -0.554547    18A     -0.375332
      19A     -0.359217    20A     -0.304091    21A     -0.269870
      22A     -0.253974    23A     -0.237817    24A     -0.187733
      25A     -0.182414    26A     -0.161397    27A     -0.118969
      28A     -0.081649    29A     -0.076332    30A     -0.076307
      31A     -0.040285    32A     -0.034620    33A     -0.009794

  @DF-RHF Final Energy:  -718.99778736653457

   => Energetics <=

    Nuclear Repulsion Energy =            408.3421546626872782
    One-Electron Energy =               -1830.3403381793591507
    Two-Electron Energy =                 703.0003961501372487
    Total Energy =                       -718.9977873665345669
  Basis Set: (AUG-CC-PVTZ AUX)
    Blend: AUG-CC-PVTZ-RI
    Molecular point group: c1

    Geometry (in Angstrom), charge = -2, multiplicity = 1:

       Center              X                  Y                   Z               Mass
    ------------   -----------------  -----------------  -----------------  -----------------
         P            0.869073699362    -0.031057653399     0.000325008931    30.973761998420
         O           -0.715297000638     0.654035446601    -0.004310691069    15.994914619570
         O            1.588747399362     1.326753446601    -0.003933191069    15.994914619570
         O            0.978819699362    -0.859027653399    -1.293786991069    15.994914619570
         O            0.975219699362    -0.848777653399     1.301335008931    15.994914619570
         C           -1.750710300638    -0.434949653399    -0.000178991069    12.000000000000
         C           -3.114396300638     0.231081346601     0.000007008931    12.000000000000
         H           -1.641322300638    -1.081557653399    -0.881850991069     1.007825032230
         H           -1.638965300638    -1.076854653399     0.884574008931     1.007825032230
         H           -3.915984300638    -0.515176653399     0.003170008931     1.007825032230
         H           -3.228387300638     0.863765346601     0.884605008931     1.007825032230
         H           -3.231144300638     0.859304346601    -0.887394991069     1.007825032230

  Basis Set: AUG-CC-PVTZ
    Blend: AUG-CC-PVTZ
  Basis Set: (AUG-CC-PVTZ AUX)
    Blend: AUG-CC-PVTZ-JKFIT
	 Reference Energy          =    -718.9977873665345669 [Eh]
	 Singles Energy            =      -0.0000000000000000 [Eh]
	 Same-Spin Energy          =      -0.4243632244714278 [Eh]
	 Opposite-Spin Energy      =      -1.2468326778300511 [Eh]
	 Correlation Energy        =      -1.6711959023014789 [Eh]
	 Total Energy              =    -720.6689832688360866 [Eh]

	 ================> DF-SCS-MP2 Energies <==================
	-----------------------------------------------------------
	 SCS Same-Spin Scale       =       0.3333333333333333 [-]
	 SCS Opposite-Spin Scale   =       1.2000000000000000 [-]
	 SCS Same-Spin Energy      =      -0.1414544081571426 [Eh]
	 SCS Opposite-Spin Energy  =      -1.4961992133960613 [Eh]
	 SCS Correlation Energy    =      -1.6376536215532038 [Eh]
	 SCS Total Energy          =    -720.6354409880877938 [Eh]
	-----------------------------------------------------------

  Dipole Moment: [D]
     X:    -8.3200      Y:    -0.4740      Z:    -0.0021     Total:     8.3335

*** Psi4 exiting successfully. Buy a developer a beer!
