                               Psi4 1.3.2 release

  ==> Input File <==

--------------------------------------------------------------------------
#psi4
#
memory 32 gb

molecule  {
-2 1
  P        0.9768750    -0.0085140     0.0002390
  O       -0.8286553     0.6623828    -0.0046251
  O        1.7666250     1.3097720    -0.0037790
  O        1.0866210    -0.8364840    -1.2938730
  O        1.0830210    -0.8262340     1.3012490
  C       -1.6429090    -0.4124060    -0.0002650
  C       -3.0065950     0.2536250    -0.0000790
  H       -1.5335210    -1.0590140    -0.8819370
  H       -1.5311640    -1.0543110     0.8844880
  H       -3.8081830    -0.4926330     0.0030840
  H       -3.1205860     0.8863090     0.8845190
  H       -3.1233430     0.8818480    -0.8874810
units angstrom
no_reorient  #important for SAPT in psi4, default
symmetry c1  #important for SAPT in psi4, default
}

set PROPERTIES_ORIGIN ["COM"]
properties('MP2/aug-cc-pvtz', properties = ['dipole'])
--------------------------------------------------------------------------

    Molecular point group: c1
  Charge       = -2
  Multiplicity = 1
  Basis Set: AUG-CC-PVTZ
    Blend: AUG-CC-PVTZ
  Basis Set: (AUG-CC-PVTZ AUX)
    Blend: AUG-CC-PVTZ-JKFIT

    Orbital Energies [Eh]
    ---------------------

    Doubly Occupied:

       1A    -79.678343     2A    -20.199762     3A    -20.122224
       4A    -20.122195     5A    -20.113612     6A    -10.964138
       7A    -10.955033     8A     -7.192504     9A     -5.091838
      10A     -5.089239    11A     -5.089226    12A     -1.016284
      13A     -0.934390    14A     -0.860674    15A     -0.855866
      16A     -0.718317    17A     -0.534855    18A     -0.376718
      19A     -0.356354    20A     -0.296285    21A     -0.271823
      22A     -0.247490    23A     -0.247025    24A     -0.191844
      25A     -0.183148    26A     -0.168558    27A     -0.101229
      28A     -0.093618    29A     -0.090947    30A     -0.076298
      31A     -0.056516    32A     -0.054671    33A     -0.025142

  @DF-RHF Final Energy:  -718.99136171625503

   => Energetics <=

    Nuclear Repulsion Energy =            405.2164404134353504
    One-Electron Energy =               -1823.6632694118732161
    Two-Electron Energy =                 699.4554672821828945
    Total Energy =                       -718.9913617162550281
  Basis Set: (AUG-CC-PVTZ AUX)
    Blend: AUG-CC-PVTZ-RI
    Molecular point group: c1

    Geometry (in Angstrom), charge = -2, multiplicity = 1:

       Center              X                  Y                   Z               Mass
    ------------   -----------------  -----------------  -----------------  -----------------
         P            0.888563294253    -0.024127646423     0.000323486743    30.973761998420
         O           -0.916967005747     0.646769153577    -0.004540613257    15.994914619570
         O            1.678313294253     1.294158353577    -0.003694513257    15.994914619570
         O            0.998309294253    -0.852097646423    -1.293788513257    15.994914619570
         O            0.994709294253    -0.841847646423     1.301333486743    15.994914619570
         C           -1.731220705747    -0.428019646423    -0.000180513257    12.000000000000
         C           -3.094906705747     0.238011353577     0.000005486743    12.000000000000
         H           -1.621832705747    -1.074627646423    -0.881852513257     1.007825032230
         H           -1.619475705747    -1.069924646423     0.884572486743     1.007825032230
         H           -3.896494705747    -0.508246646423     0.003168486743     1.007825032230
         H           -3.208897705747     0.870695353577     0.884603486743     1.007825032230
         H           -3.211654705747     0.866234353577    -0.887396513257     1.007825032230

  Basis Set: AUG-CC-PVTZ
    Blend: AUG-CC-PVTZ
  Basis Set: (AUG-CC-PVTZ AUX)
    Blend: AUG-CC-PVTZ-JKFIT
	 Reference Energy          =    -718.9913617162550281 [Eh]
	 Singles Energy            =      -0.0000000000000000 [Eh]
	 Same-Spin Energy          =      -0.4258150936714148 [Eh]
	 Opposite-Spin Energy      =      -1.2483885380228390 [Eh]
	 Correlation Energy        =      -1.6742036316942537 [Eh]
	 Total Energy              =    -720.6655653479492685 [Eh]

	 ================> DF-SCS-MP2 Energies <==================
	-----------------------------------------------------------
	 SCS Same-Spin Scale       =       0.3333333333333333 [-]
	 SCS Opposite-Spin Scale   =       1.2000000000000000 [-]
	 SCS Same-Spin Energy      =      -0.1419383645571383 [Eh]
	 SCS Opposite-Spin Energy  =      -1.4980662456274068 [Eh]
	 SCS Correlation Energy    =      -1.6400046101845449 [Eh]
	 SCS Total Energy          =    -720.6313663264395473 [Eh]
	-----------------------------------------------------------

  Dipole Moment: [D]
     X:    -6.7249      Y:    -0.3555      Z:    -0.0013     Total:     6.7343

*** Psi4 exiting successfully. Buy a developer a beer!
