                               Psi4 1.3.2 release

  ==> Input File <==

--------------------------------------------------------------------------
#psi4
#
memory 32 gb

molecule  {
-2 1
  P        0.9549060    -0.0646165     0.0004856
  O       -0.6411800     0.5927210    -0.0041200
  O        1.7666250     1.3097720    -0.0037790
  O        1.0866210    -0.8364840    -1.2938730
  O        1.0830210    -0.8262340     1.3012490
  C       -1.6072201    -0.4467530    -0.0000685
  C       -3.0065950     0.2536250    -0.0000790
  H       -1.5335210    -1.0590140    -0.8819370
  H       -1.5311640    -1.0543110     0.8844880
  H       -3.8081830    -0.4926330     0.0030840
  H       -3.1205860     0.8863090     0.8845190
  H       -3.1233430     0.8818480    -0.8874810
units angstrom
no_reorient  #important for SAPT in psi4, default
symmetry c1  #important for SAPT in psi4, default
}

set PROPERTIES_ORIGIN ["COM"]
properties('MP2/aug-cc-pvtz', properties = ['dipole'])
--------------------------------------------------------------------------

    Molecular point group: c1
  Charge       = -2
  Multiplicity = 1
  Basis Set: AUG-CC-PVTZ
    Blend: AUG-CC-PVTZ
  Basis Set: (AUG-CC-PVTZ AUX)
    Blend: AUG-CC-PVTZ-JKFIT

    Orbital Energies [Eh]
    ---------------------

    Doubly Occupied:

       1A    -79.657868     2A    -20.214143     3A    -20.110196
       4A    -20.110178     5A    -20.085280     6A    -10.982794
       7A    -10.973685     8A     -7.173310     9A     -5.072686
      10A     -5.070617    11A     -5.070167    12A     -1.023459
      13A     -0.921013    14A     -0.862815    15A     -0.818024
      16A     -0.734246    17A     -0.561013    18A     -0.388174
      19A     -0.366771    20A     -0.303612    21A     -0.270071
      22A     -0.268428    23A     -0.252954    24A     -0.192082
      25A     -0.176926    26A     -0.163363    27A     -0.125102
      28A     -0.088393    29A     -0.080368    30A     -0.070716
      31A     -0.048605    32A     -0.024093    33A     -0.004637

  @DF-RHF Final Energy:  -719.00163765191064

   => Energetics <=

    Nuclear Repulsion Energy =            409.7521610259992144
    One-Electron Energy =               -1832.9760243023645216
    Two-Electron Energy =                 704.2222256244547225
    Total Energy =                       -719.0016376519106416
  Basis Set: (AUG-CC-PVTZ AUX)
    Blend: AUG-CC-PVTZ-RI
    Molecular point group: c1

    Geometry (in Angstrom), charge = -2, multiplicity = 1:

       Center              X                  Y                   Z               Mass
    ------------   -----------------  -----------------  -----------------  -----------------
         P            0.844444126875    -0.053905144311     0.000424310551    30.973761998420
         O           -0.751641873125     0.603432355689    -0.004181289449    15.994914619570
         O            1.656163126875     1.320483355689    -0.003840289449    15.994914619570
         O            0.976159126875    -0.825772644311    -1.293934289449    15.994914619570
         O            0.972559126875    -0.815522644311     1.301187710551    15.994914619570
         C           -1.717681973125    -0.436041644311    -0.000129789449    12.000000000000
         C           -3.117056873125     0.264336355689    -0.000140289449    12.000000000000
         H           -1.643982873125    -1.048302644311    -0.881998289449     1.007825032230
         H           -1.641625873125    -1.043599644311     0.884426710551     1.007825032230
         H           -3.918644873125    -0.481921644311     0.003022710551     1.007825032230
         H           -3.231047873125     0.897020355689     0.884457710551     1.007825032230
         H           -3.233804873125     0.892559355689    -0.887542289449     1.007825032230

  Basis Set: AUG-CC-PVTZ
    Blend: AUG-CC-PVTZ
  Basis Set: (AUG-CC-PVTZ AUX)
    Blend: AUG-CC-PVTZ-JKFIT
	 Reference Energy          =    -719.0016376519106416 [Eh]
	 Singles Energy            =      -0.0000000000000000 [Eh]
	 Same-Spin Energy          =      -0.4235151496208752 [Eh]
	 Opposite-Spin Energy      =      -1.2441527598902415 [Eh]
	 Correlation Energy        =      -1.6676679095111169 [Eh]
	 Total Energy              =    -720.6693055614217656 [Eh]

	 ================> DF-SCS-MP2 Energies <==================
	-----------------------------------------------------------
	 SCS Same-Spin Scale       =       0.3333333333333333 [-]
	 SCS Opposite-Spin Scale   =       1.2000000000000000 [-]
	 SCS Same-Spin Energy      =      -0.1411717165402917 [Eh]
	 SCS Opposite-Spin Energy  =      -1.4929833118682898 [Eh]
	 SCS Correlation Energy    =      -1.6341550284085815 [Eh]
	 SCS Total Energy          =    -720.6357926803192413 [Eh]
	-----------------------------------------------------------

  Dipole Moment: [D]
     X:    -8.5199      Y:    -1.0530      Z:     0.0004     Total:     8.5847

*** Psi4 exiting successfully. Buy a developer a beer!
