                               Psi4 1.3.2 release

  ==> Input File <==

--------------------------------------------------------------------------
#psi4
#
memory 32 gb

molecule  {
-2 1
  P        0.9768750    -0.0085140     0.0002390
  O       -0.6411800     0.5927210    -0.0041200
  O        1.7152341     1.2239880    -0.0035175
  O        1.0866210    -0.8364840    -1.2938730
  O        1.0830210    -0.8262340     1.3012490
  C       -1.6429090    -0.4124060    -0.0002650
  C       -3.0065950     0.2536250    -0.0000790
  H       -1.5335210    -1.0590140    -0.8819370
  H       -1.5311640    -1.0543110     0.8844880
  H       -3.8081830    -0.4926330     0.0030840
  H       -3.1205860     0.8863090     0.8845190
  H       -3.1233430     0.8818480    -0.8874810
units angstrom
no_reorient  #important for SAPT in psi4, default
symmetry c1  #important for SAPT in psi4, default
}

set PROPERTIES_ORIGIN ["COM"]
properties('MP2/aug-cc-pvtz', properties = ['dipole'])
--------------------------------------------------------------------------

    Molecular point group: c1
  Charge       = -2
  Multiplicity = 1
  Basis Set: AUG-CC-PVTZ
    Blend: AUG-CC-PVTZ
  Basis Set: (AUG-CC-PVTZ AUX)
    Blend: AUG-CC-PVTZ-JKFIT

    Orbital Energies [Eh]
    ---------------------

    Doubly Occupied:

       1A    -79.636771     2A    -20.203922     3A    -20.094376
       4A    -20.094349     5A    -20.091037     6A    -10.976768
       7A    -10.970056     8A     -7.156075     9A     -5.055176
      10A     -5.053883    11A     -5.052541    12A     -1.016665
      13A     -0.930405    14A     -0.855242    15A     -0.837163
      16A     -0.739544    17A     -0.549262    18A     -0.383637
      19A     -0.359599    20A     -0.298648    21A     -0.275454
      22A     -0.257046    23A     -0.247563    24A     -0.187978
      25A     -0.182963    26A     -0.161045    27A     -0.112444
      28A     -0.089234    29A     -0.080814    30A     -0.074222
      31A     -0.044506    32A     -0.032394    33A     -0.005658

  @DF-RHF Final Energy:  -719.00732932682899

   => Energetics <=

    Nuclear Repulsion Energy =            413.7814719316247078
    One-Electron Energy =               -1841.3647212237744952
    Two-Electron Energy =                 708.5759199653207361
    Total Energy =                       -719.0073293268289945
  Basis Set: (AUG-CC-PVTZ AUX)
    Blend: AUG-CC-PVTZ-RI
    Molecular point group: c1

    Geometry (in Angstrom), charge = -2, multiplicity = 1:

       Center              X                  Y                   Z               Mass
    ------------   -----------------  -----------------  -----------------  -----------------
         P            0.871008542491    -0.004075293387     0.000224596108    30.973761998420
         O           -0.747046457509     0.597159706613    -0.004134403892    15.994914619570
         O            1.609367642491     1.228426706613    -0.003531903892    15.994914619570
         O            0.980754542491    -0.832045293387    -1.293887403892    15.994914619570
         O            0.977154542491    -0.821795293387     1.301234596108    15.994914619570
         C           -1.748775457509    -0.407967293387    -0.000279403892    12.000000000000
         C           -3.112461457509     0.258063706613    -0.000093403892    12.000000000000
         H           -1.639387457509    -1.054575293387    -0.881951403892     1.007825032230
         H           -1.637030457509    -1.049872293387     0.884473596108     1.007825032230
         H           -3.914049457509    -0.488194293387     0.003069596108     1.007825032230
         H           -3.226452457509     0.890747706613     0.884504596108     1.007825032230
         H           -3.229209457509     0.886286706613    -0.887495403892     1.007825032230

  Basis Set: AUG-CC-PVTZ
    Blend: AUG-CC-PVTZ
  Basis Set: (AUG-CC-PVTZ AUX)
    Blend: AUG-CC-PVTZ-JKFIT
	 Reference Energy          =    -719.0073293268289945 [Eh]
	 Singles Energy            =      -0.0000000000000000 [Eh]
	 Same-Spin Energy          =      -0.4217376937046886 [Eh]
	 Opposite-Spin Energy      =      -1.2390559104011951 [Eh]
	 Correlation Energy        =      -1.6607936041058837 [Eh]
	 Total Energy              =    -720.6681229309348282 [Eh]

	 ================> DF-SCS-MP2 Energies <==================
	-----------------------------------------------------------
	 SCS Same-Spin Scale       =       0.3333333333333333 [-]
	 SCS Opposite-Spin Scale   =       1.2000000000000000 [-]
	 SCS Same-Spin Energy      =      -0.1405792312348962 [Eh]
	 SCS Opposite-Spin Energy  =      -1.4868670924814340 [Eh]
	 SCS Correlation Energy    =      -1.6274463237163301 [Eh]
	 SCS Total Energy          =    -720.6347756505452935 [Eh]
	-----------------------------------------------------------

  Dipole Moment: [D]
     X:    -7.8518      Y:     0.4317      Z:    -0.0051     Total:     7.8637

*** Psi4 exiting successfully. Buy a developer a beer!
