                               Psi4 1.3.2 release

  ==> Input File <==

--------------------------------------------------------------------------
#psi4
#
memory 32 gb

molecule  {
-2 1
  P        0.9768750    -0.0085140     0.0002390
  O       -0.6237162     0.5739333    -0.0464932
  O        1.7666250     1.3097720    -0.0037790
  O        1.0866210    -0.8364840    -1.2938730
  O        1.0830210    -0.8262340     1.3012490
  C       -1.6429090    -0.4124060    -0.0002650
  C       -3.0065950     0.2536250    -0.0000790
  H       -1.5033536    -1.0379654    -0.8927967
  H       -1.5311640    -1.0543110     0.8844880
  H       -3.8081830    -0.4926330     0.0030840
  H       -3.1205860     0.8863090     0.8845190
  H       -3.1233430     0.8818480    -0.8874810
units angstrom
no_reorient  #important for SAPT in psi4, default
symmetry c1  #important for SAPT in psi4, default
}

set PROPERTIES_ORIGIN ["COM"]
properties('MP2/aug-cc-pvtz', properties = ['dipole'])
--------------------------------------------------------------------------

    Molecular point group: c1
  Charge       = -2
  Multiplicity = 1
  Basis Set: AUG-CC-PVTZ
    Blend: AUG-CC-PVTZ
  Basis Set: (AUG-CC-PVTZ AUX)
    Blend: AUG-CC-PVTZ-JKFIT

    Orbital Energies [Eh]
    ---------------------

    Doubly Occupied:

       1A    -79.655592     2A    -20.209767     3A    -20.103316
       4A    -20.099969     5A    -20.095995     6A    -10.982520
       7A    -10.975116     8A     -7.170705     9A     -5.070210
      10A     -5.067885    11A     -5.067770    12A     -1.023168
      13A     -0.912334    14A     -0.843830    15A     -0.840392
      16A     -0.745028    17A     -0.555238    18A     -0.391194
      19A     -0.365313    20A     -0.303845    21A     -0.283742
      22A     -0.263734    23A     -0.247976    24A     -0.184941
      25A     -0.181334    26A     -0.158584    27A     -0.115965
      28A     -0.080168    29A     -0.077640    30A     -0.076171
      31A     -0.038432    32A     -0.036226    33A     -0.008024

  @DF-RHF Final Energy:  -719.01015587608254

   => Energetics <=

    Nuclear Repulsion Energy =            410.0947187041767279
    One-Electron Energy =               -1833.7454985264632796
    Two-Electron Energy =                 704.6406239462039593
    Total Energy =                       -719.0101558760825355
  Basis Set: (AUG-CC-PVTZ AUX)
    Blend: AUG-CC-PVTZ-RI
    Molecular point group: c1

    Geometry (in Angstrom), charge = -2, multiplicity = 1:

       Center              X                  Y                   Z               Mass
    ------------   -----------------  -----------------  -----------------  -----------------
         P            0.861881150979    -0.012888834545     0.005812698685    30.973761998420
         O           -0.738710049021     0.569558465455    -0.040919501315    15.994914619570
         O            1.651631150979     1.305397165455     0.001794698685    15.994914619570
         O            0.971627150979    -0.840858834545    -1.288299301315    15.994914619570
         O            0.968027150979    -0.830608834545     1.306822698685    15.994914619570
         C           -1.757902849021    -0.416780834545     0.005308698685    12.000000000000
         C           -3.121588849021     0.249250165455     0.005494698685    12.000000000000
         H           -1.618347449021    -1.042340234545    -0.887223001315     1.007825032230
         H           -1.646157849021    -1.058685834545     0.890061698685     1.007825032230
         H           -3.923176849021    -0.497007834545     0.008657698685     1.007825032230
         H           -3.235579849021     0.881934165455     0.890092698685     1.007825032230
         H           -3.238336849021     0.877473165455    -0.881907301315     1.007825032230

  Basis Set: AUG-CC-PVTZ
    Blend: AUG-CC-PVTZ
  Basis Set: (AUG-CC-PVTZ AUX)
    Blend: AUG-CC-PVTZ-JKFIT
	 Reference Energy          =    -719.0101558760825355 [Eh]
	 Singles Energy            =      -0.0000000000000000 [Eh]
	 Same-Spin Energy          =      -0.4231554331144947 [Eh]
	 Opposite-Spin Energy      =      -1.2427730010237381 [Eh]
	 Correlation Energy        =      -1.6659284341382328 [Eh]
	 Total Energy              =    -720.6760843102207446 [Eh]

	 ================> DF-SCS-MP2 Energies <==================
	-----------------------------------------------------------
	 SCS Same-Spin Scale       =       0.3333333333333333 [-]
	 SCS Opposite-Spin Scale   =       1.2000000000000000 [-]
	 SCS Same-Spin Energy      =      -0.1410518110381649 [Eh]
	 SCS Opposite-Spin Energy  =      -1.4913276012284857 [Eh]
	 SCS Correlation Energy    =      -1.6323794122666506 [Eh]
	 SCS Total Energy          =    -720.6425352883492224 [Eh]
	-----------------------------------------------------------

  Dipole Moment: [D]
     X:    -8.4464      Y:    -0.1456      Z:     0.0526     Total:     8.4478

*** Psi4 exiting successfully. Buy a developer a beer!
