                               Psi4 1.3.2 release

  ==> Input File <==

--------------------------------------------------------------------------
#psi4
#
memory 32 gb

molecule  {
-2 1
  P        0.9768750    -0.0085140     0.0002390
  O       -0.6411800     0.5927210    -0.0041200
  O        1.7666250     1.3097720    -0.0037790
  O        1.0866210    -0.8364840    -1.2938730
  O        1.0830210    -0.8262340     1.3012490
  C       -1.7134996    -0.4832360     0.0000067
  C       -3.0065950     0.2536250    -0.0000790
  H       -1.5335210    -1.0590140    -0.8819370
  H       -1.5311640    -1.0543110     0.8844880
  H       -3.8081830    -0.4926330     0.0030840
  H       -3.1205860     0.8863090     0.8845190
  H       -3.1233430     0.8818480    -0.8874810
units angstrom
no_reorient  #important for SAPT in psi4, default
symmetry c1  #important for SAPT in psi4, default
}

set PROPERTIES_ORIGIN ["COM"]
properties('MP2/aug-cc-pvtz', properties = ['dipole'])
--------------------------------------------------------------------------

    Molecular point group: c1
  Charge       = -2
  Multiplicity = 1
  Basis Set: AUG-CC-PVTZ
    Blend: AUG-CC-PVTZ
  Basis Set: (AUG-CC-PVTZ AUX)
    Blend: AUG-CC-PVTZ-JKFIT

    Orbital Energies [Eh]
    ---------------------

    Doubly Occupied:

       1A    -79.653670     2A    -20.204589     3A    -20.100920
       4A    -20.100895     5A    -20.094375     6A    -10.980168
       7A    -10.976840     8A     -7.168513     9A     -5.067892
      10A     -5.065737    11A     -5.065648    12A     -0.990264
      13A     -0.905765    14A     -0.842518    15A     -0.838826
      16A     -0.754163    17A     -0.562800    18A     -0.374984
      19A     -0.371758    20A     -0.306469    21A     -0.280852
      22A     -0.261483    23A     -0.227483    24A     -0.186574
      25A     -0.185646    26A     -0.154130    27A     -0.119450
      28A     -0.076566    29A     -0.075131    30A     -0.074881
      31A     -0.035385    32A     -0.035006    33A     -0.006944

  @DF-RHF Final Energy:  -718.99773971685443

   => Energetics <=

    Nuclear Repulsion Energy =            407.6355932706446765
    One-Electron Energy =               -1828.9740211598880251
    Two-Electron Energy =                 702.3406881723889228
    Total Energy =                       -718.9977397168544258
  Basis Set: (AUG-CC-PVTZ AUX)
    Blend: AUG-CC-PVTZ-RI
    Molecular point group: c1

    Geometry (in Angstrom), charge = -2, multiplicity = 1:

       Center              X                  Y                   Z               Mass
    ------------   -----------------  -----------------  -----------------  -----------------
         P            0.871210926772    -0.008286415540     0.000232034218    30.973761998420
         O           -0.746844073228     0.592948584460    -0.004126965782    15.994914619570
         O            1.660960926772     1.309999584460    -0.003785965782    15.994914619570
         O            0.980956926772    -0.836256415540    -1.293879965782    15.994914619570
         O            0.977356926772    -0.826006415540     1.301242034218    15.994914619570
         C           -1.819163673228    -0.483008415540    -0.000000265782    12.000000000000
         C           -3.112259073228     0.253852584460    -0.000085965782    12.000000000000
         H           -1.639185073228    -1.058786415540    -0.881943965782     1.007825032230
         H           -1.636828073228    -1.054083415540     0.884481034218     1.007825032230
         H           -3.913847073228    -0.492405415540     0.003077034218     1.007825032230
         H           -3.226250073228     0.886536584460     0.884512034218     1.007825032230
         H           -3.229007073228     0.882075584460    -0.887487965782     1.007825032230

  Basis Set: AUG-CC-PVTZ
    Blend: AUG-CC-PVTZ
  Basis Set: (AUG-CC-PVTZ AUX)
    Blend: AUG-CC-PVTZ-JKFIT
	 Reference Energy          =    -718.9977397168544258 [Eh]
	 Singles Energy            =      -0.0000000000000000 [Eh]
	 Same-Spin Energy          =      -0.4240232556829506 [Eh]
	 Opposite-Spin Energy      =      -1.2457833246805829 [Eh]
	 Correlation Energy        =      -1.6698065803635336 [Eh]
	 Total Energy              =    -720.6675462972179957 [Eh]

	 ================> DF-SCS-MP2 Energies <==================
	-----------------------------------------------------------
	 SCS Same-Spin Scale       =       0.3333333333333333 [-]
	 SCS Opposite-Spin Scale   =       1.2000000000000000 [-]
	 SCS Same-Spin Energy      =      -0.1413410852276502 [Eh]
	 SCS Opposite-Spin Energy  =      -1.4949399896166995 [Eh]
	 SCS Correlation Energy    =      -1.6362810748443497 [Eh]
	 SCS Total Energy          =    -720.6340207916987310 [Eh]
	-----------------------------------------------------------

  Dipole Moment: [D]
     X:    -8.6980      Y:    -0.3651      Z:    -0.0028     Total:     8.7056

*** Psi4 exiting successfully. Buy a developer a beer!
