                               Psi4 1.4a3.dev225

  ==> Input File <==

--------------------------------------------------------------------------
#psi4
#
memory 32 gb

molecule  {
-2 1
  P        0.9779190    -0.0071730     0.0036310
  O       -0.6414480     0.5895360    -0.0608370
  O        1.7406926     1.2680977    -0.0263630
  O        1.1203390    -0.8841130    -1.2536930
  O        1.0512740    -0.7793920     1.3338630
  C       -1.6443320    -0.4127400    -0.0031870
  C       -3.0079050     0.2540090    -0.0015060
  H       -1.5542930    -1.0922920    -0.8626040
  H       -1.5171060    -1.0208640     0.9023270
  H       -3.8086770    -0.4913540     0.0489290
  H       -3.1025260     0.9214830     0.8596320
  H       -3.1449030     0.8467680    -0.9102780
units angstrom
no_reorient  #important for SAPT in psi4, default
symmetry c1  #important for SAPT in psi4, default
}

set PROPERTIES_ORIGIN ["COM"]
properties('MP2/aug-cc-pvtz', properties = ['dipole'])
--------------------------------------------------------------------------

    Molecular point group: c1
  Charge       = -2
  Multiplicity = 1
  Basis Set: AUG-CC-PVTZ
    Blend: AUG-CC-PVTZ
  Basis Set: (AUG-CC-PVTZ AUX)
    Blend: AUG-CC-PVTZ-JKFIT

    Orbital Energies [Eh]
    ---------------------

    Doubly Occupied:

       1A    -79.647744     2A    -20.207266     3A    -20.098795
       4A    -20.098752     5A    -20.094692     6A    -10.979242
       7A    -10.971625     8A     -7.164577     9A     -5.063872
      10A     -5.062028    11A     -5.061416    12A     -1.017407
      13A     -0.920404    14A     -0.850695    15A     -0.841072
      16A     -0.741333    17A     -0.551381    18A     -0.386292
      19A     -0.361497    20A     -0.300639    21A     -0.277731
      22A     -0.258960    23A     -0.247789    24A     -0.185880
      25A     -0.181735    26A     -0.161278    27A     -0.114075
      28A     -0.084717    29A     -0.079271    30A     -0.076676
      31A     -0.042769    32A     -0.035471    33A     -0.007815

  @DF-RHF Final Energy:  -719.01175232342530

   => Energetics <=

    Nuclear Repulsion Energy =            411.4644049946169844
    One-Electron Energy =               -1836.6025215218501216
    Two-Electron Energy =                 706.1263642038079524
    Total Energy =                       -719.0117523234252985
  Basis Set: (AUG-CC-PVTZ AUX)
    Blend: AUG-CC-PVTZ-RI
    Molecular point group: c1

    Geometry (in Angstrom), charge = -2, multiplicity = 1:

       Center              X                  Y                   Z               Mass
    ------------   -----------------  -----------------  -----------------  -----------------
         P            0.868639476904    -0.008264375555     0.003776098415    30.973761998420
         O           -0.750727523096     0.588444624445    -0.060691901585    15.994914619570
         O            1.631413076904     1.267006324445    -0.026217901585    15.994914619570
         O            1.011059476904    -0.885204375555    -1.253547901585    15.994914619570
         O            0.941994476904    -0.780483375555     1.334008098415    15.994914619570
         C           -1.753611523096    -0.413831375555    -0.003041901585    12.000000000000
         C           -3.117184523096     0.252917624445    -0.001360901585    12.000000000000
         H           -1.663572523096    -1.093383375555    -0.862458901585     1.007825032230
         H           -1.626385523096    -1.021955375555     0.902472098415     1.007825032230
         H           -3.917956523096    -0.492445375555     0.049074098415     1.007825032230
         H           -3.211805523096     0.920391624445     0.859777098415     1.007825032230
         H           -3.254182523096     0.845676624445    -0.910132901585     1.007825032230

  Basis Set: AUG-CC-PVTZ
    Blend: AUG-CC-PVTZ
  Basis Set: (AUG-CC-PVTZ AUX)
    Blend: AUG-CC-PVTZ-JKFIT
	 Reference Energy          =    -719.0117523234252985 [Eh]
	 Singles Energy            =      -0.0000000000000000 [Eh]
	 Same-Spin Energy          =      -0.4225034246348991 [Eh]
	 Opposite-Spin Energy      =      -1.2411317381382929 [Eh]
	 Correlation Energy        =      -1.6636351627731920 [Eh]
	 Total Energy              =    -720.6753874861984741 [Eh]

	 ================> DF-SCS-MP2 Energies <==================
	-----------------------------------------------------------
	 SCS Same-Spin Scale       =       0.3333333333333333 [-]
	 SCS Opposite-Spin Scale   =       1.2000000000000000 [-]
	 SCS Same-Spin Energy      =      -0.1408344748782997 [Eh]
	 SCS Opposite-Spin Energy  =      -1.4893580857659514 [Eh]
	 SCS Correlation Energy    =      -1.6301925606442511 [Eh]
	 SCS Total Energy          =    -720.6419448840695168 [Eh]
	-----------------------------------------------------------

  Dipole Moment: [D]
     X:    -8.0690      Y:     0.1294      Z:    -0.0412     Total:     8.0701

*** Psi4 exiting successfully. Buy a developer a beer!
