                               Psi4 1.3.2 release

  ==> Input File <==

--------------------------------------------------------------------------
#psi4
#
memory 32 gb

molecule  {
-2 1
  P        0.9768750    -0.0085140     0.0002390
  O       -0.6366988     0.5881380    -0.0147158
  O        1.7666250     1.3097720    -0.0037790
  O        1.0866210    -0.8364840    -1.2938730
  O        1.0830210    -0.8262340     1.3012490
  C       -1.6429090    -0.4124060    -0.0002650
  C       -3.0065950     0.2536250    -0.0000790
  H       -1.5259652    -1.0538247    -0.8847532
  H       -1.5311640    -1.0543110     0.8844880
  H       -3.8081830    -0.4926330     0.0030840
  H       -3.1205860     0.8863090     0.8845190
  H       -3.1233430     0.8818480    -0.8874810
units angstrom
no_reorient  #important for SAPT in psi4, default
symmetry c1  #important for SAPT in psi4, default
}

set PROPERTIES_ORIGIN ["COM"]
properties('MP2/aug-cc-pvtz', properties = ['dipole'])
--------------------------------------------------------------------------

    Molecular point group: c1
  Charge       = -2
  Multiplicity = 1
  Basis Set: AUG-CC-PVTZ
    Blend: AUG-CC-PVTZ
  Basis Set: (AUG-CC-PVTZ AUX)
    Blend: AUG-CC-PVTZ-JKFIT

    Orbital Energies [Eh]
    ---------------------

    Doubly Occupied:

       1A    -79.657340     2A    -20.210521     3A    -20.103608
       4A    -20.102800     5A    -20.096868     6A    -10.981848
       7A    -10.973662     8A     -7.172300     9A     -5.071773
      10A     -5.069456    11A     -5.069359    12A     -1.020376
      13A     -0.913655    14A     -0.844927    15A     -0.841426
      16A     -0.743619    17A     -0.553996    18A     -0.389822
      19A     -0.363990    20A     -0.303011    21A     -0.280918
      22A     -0.261760    23A     -0.248491    24A     -0.185156
      25A     -0.180982    26A     -0.160594    27A     -0.116095
      28A     -0.080228    29A     -0.078792    30A     -0.077291
      31A     -0.039067    32A     -0.038292    33A     -0.009171

  @DF-RHF Final Energy:  -719.01052767883823

   => Energetics <=

    Nuclear Repulsion Energy =            409.5282079149570222
    One-Electron Energy =               -1832.5950836167287434
    Two-Electron Energy =                 704.0563480229335482
    Total Energy =                       -719.0105276788382298
  Basis Set: (AUG-CC-PVTZ AUX)
    Blend: AUG-CC-PVTZ-RI
    Molecular point group: c1

    Geometry (in Angstrom), charge = -2, multiplicity = 1:

       Center              X                  Y                   Z               Mass
    ------------   -----------------  -----------------  -----------------  -----------------
         P            0.863739682989    -0.014592320534     0.001648067353    30.973761998420
         O           -0.749834117011     0.582059679466    -0.013306732647    15.994914619570
         O            1.653489682989     1.303693679466    -0.002369932647    15.994914619570
         O            0.973485682989    -0.842562320534    -1.292463932647    15.994914619570
         O            0.969885682989    -0.832312320534     1.302658067353    15.994914619570
         C           -1.756044317011    -0.418484320534     0.001144067353    12.000000000000
         C           -3.119730317011     0.247546679466     0.001330067353    12.000000000000
         H           -1.639100517011    -1.059903020534    -0.883344132647     1.007825032230
         H           -1.644299317011    -1.060389320534     0.885897067353     1.007825032230
         H           -3.921318317011    -0.498711320534     0.004493067353     1.007825032230
         H           -3.233721317011     0.880230679466     0.885928067353     1.007825032230
         H           -3.236478317011     0.875769679466    -0.886071932647     1.007825032230

  Basis Set: AUG-CC-PVTZ
    Blend: AUG-CC-PVTZ
  Basis Set: (AUG-CC-PVTZ AUX)
    Blend: AUG-CC-PVTZ-JKFIT
	 Reference Energy          =    -719.0105276788382298 [Eh]
	 Singles Energy            =      -0.0000000000000000 [Eh]
	 Same-Spin Energy          =      -0.4233003448361809 [Eh]
	 Opposite-Spin Energy      =      -1.2432424887295528 [Eh]
	 Correlation Energy        =      -1.6665428335657337 [Eh]
	 Total Energy              =    -720.6770705124039296 [Eh]

	 ================> DF-SCS-MP2 Energies <==================
	-----------------------------------------------------------
	 SCS Same-Spin Scale       =       0.3333333333333333 [-]
	 SCS Opposite-Spin Scale   =       1.2000000000000000 [-]
	 SCS Same-Spin Energy      =      -0.1411001149453936 [Eh]
	 SCS Opposite-Spin Energy  =      -1.4918909864754633 [Eh]
	 SCS Correlation Energy    =      -1.6329911014208569 [Eh]
	 SCS Total Energy          =    -720.6435187802591145 [Eh]
	-----------------------------------------------------------

  Dipole Moment: [D]
     X:    -8.3399      Y:    -0.1835      Z:     0.0106     Total:     8.3419

*** Psi4 exiting successfully. Buy a developer a beer!
