                               Psi4 1.3.2 release

  ==> Input File <==

--------------------------------------------------------------------------
#psi4
#
memory 32 gb

molecule  {
-2 1
  P        0.9768750    -0.0085140     0.0002390
  O       -0.6514268     0.5643906    -0.0040251
  O        1.7895121     1.2957884    -0.0036965
  O        1.0866210    -0.8364840    -1.2938730
  O        1.0830210    -0.8262340     1.3012490
  C       -1.6429090    -0.4124060    -0.0002650
  C       -3.0065950     0.2536250    -0.0000790
  H       -1.5335210    -1.0590140    -0.8819370
  H       -1.5311640    -1.0543110     0.8844880
  H       -3.8081830    -0.4926330     0.0030840
  H       -3.1205860     0.8863090     0.8845190
  H       -3.1233430     0.8818480    -0.8874810
units angstrom
no_reorient  #important for SAPT in psi4, default
symmetry c1  #important for SAPT in psi4, default
}

set PROPERTIES_ORIGIN ["COM"]
properties('MP2/aug-cc-pvtz', properties = ['dipole'])
--------------------------------------------------------------------------

    Molecular point group: c1
  Charge       = -2
  Multiplicity = 1
  Basis Set: AUG-CC-PVTZ
    Blend: AUG-CC-PVTZ
  Basis Set: (AUG-CC-PVTZ AUX)
    Blend: AUG-CC-PVTZ-JKFIT

    Orbital Energies [Eh]
    ---------------------

    Doubly Occupied:

       1A    -79.658936     2A    -20.210287     3A    -20.102955
       4A    -20.102929     5A    -20.099441     6A    -10.980156
       7A    -10.972576     8A     -7.173782     9A     -5.073239
      10A     -5.070951    11A     -5.070814    12A     -1.028586
      13A     -0.916079    14A     -0.844834    15A     -0.842375
      16A     -0.742264    17A     -0.553264    18A     -0.394386
      19A     -0.365239    20A     -0.302269    21A     -0.284922
      22A     -0.263536    23A     -0.251116    24A     -0.184489
      25A     -0.180500    26A     -0.160457    27A     -0.114716
      28A     -0.081722    29A     -0.078458    30A     -0.078182
      31A     -0.040417    32A     -0.038498    33A     -0.009549

  @DF-RHF Final Energy:  -719.01173340025287

   => Energetics <=

    Nuclear Repulsion Energy =            409.7098448007110392
    One-Electron Energy =               -1832.8993085754809726
    Two-Electron Energy =                 704.1777303745171821
    Total Energy =                       -719.0117334002528651
  Basis Set: (AUG-CC-PVTZ AUX)
    Blend: AUG-CC-PVTZ-RI
    Molecular point group: c1

    Geometry (in Angstrom), charge = -2, multiplicity = 1:

       Center              X                  Y                   Z               Mass
    ------------   -----------------  -----------------  -----------------  -----------------
         P            0.862748581606    -0.009682879996     0.000235444924    30.973761998420
         O           -0.765553218394     0.563221720004    -0.004028655076    15.994914619570
         O            1.675385681606     1.294619520004    -0.003700055076    15.994914619570
         O            0.972494581606    -0.837652879996    -1.293876555076    15.994914619570
         O            0.968894581606    -0.827402879996     1.301245444924    15.994914619570
         C           -1.757035418394    -0.413574879996    -0.000268555076    12.000000000000
         C           -3.120721418394     0.252456120004    -0.000082555076    12.000000000000
         H           -1.647647418394    -1.060182879996    -0.881940555076     1.007825032230
         H           -1.645290418394    -1.055479879996     0.884484444924     1.007825032230
         H           -3.922309418394    -0.493801879996     0.003080444924     1.007825032230
         H           -3.234712418394     0.885140120004     0.884515444924     1.007825032230
         H           -3.237469418394     0.880679120004    -0.887484555076     1.007825032230

  Basis Set: AUG-CC-PVTZ
    Blend: AUG-CC-PVTZ
  Basis Set: (AUG-CC-PVTZ AUX)
    Blend: AUG-CC-PVTZ-JKFIT
	 Reference Energy          =    -719.0117334002528651 [Eh]
	 Singles Energy            =      -0.0000000000000000 [Eh]
	 Same-Spin Energy          =      -0.4231605318486709 [Eh]
	 Opposite-Spin Energy      =      -1.2425624860397209 [Eh]
	 Correlation Energy        =      -1.6657230178883917 [Eh]
	 Total Energy              =    -720.6774564181412188 [Eh]

	 ================> DF-SCS-MP2 Energies <==================
	-----------------------------------------------------------
	 SCS Same-Spin Scale       =       0.3333333333333333 [-]
	 SCS Opposite-Spin Scale   =       1.2000000000000000 [-]
	 SCS Same-Spin Energy      =      -0.1410535106162236 [Eh]
	 SCS Opposite-Spin Energy  =      -1.4910749832476651 [Eh]
	 SCS Correlation Energy    =      -1.6321284938638887 [Eh]
	 SCS Total Energy          =    -720.6438618941167533 [Eh]
	-----------------------------------------------------------

  Dipole Moment: [D]
     X:    -8.2708      Y:    -0.0919      Z:    -0.0035     Total:     8.2713

*** Psi4 exiting successfully. Buy a developer a beer!
