                               Psi4 1.3.2 release

  ==> Input File <==

--------------------------------------------------------------------------
#psi4
#
memory 32 gb

molecule  {
-2 1
  P        0.9768750    -0.0085140     0.0002390
  O       -0.6358716     0.6068181    -0.0041670
  O        1.7550908     1.3166135    -0.0038198
  O        1.0866210    -0.8364840    -1.2938730
  O        1.0830210    -0.8262340     1.3012490
  C       -1.6429090    -0.4124060    -0.0002650
  C       -3.0065950     0.2536250    -0.0000790
  H       -1.5335210    -1.0590140    -0.8819370
  H       -1.5311640    -1.0543110     0.8844880
  H       -3.8081830    -0.4926330     0.0030840
  H       -3.1205860     0.8863090     0.8845190
  H       -3.1233430     0.8818480    -0.8874810
units angstrom
no_reorient  #important for SAPT in psi4, default
symmetry c1  #important for SAPT in psi4, default
}

set PROPERTIES_ORIGIN ["COM"]
properties('MP2/aug-cc-pvtz', properties = ['dipole'])
--------------------------------------------------------------------------

    Molecular point group: c1
  Charge       = -2
  Multiplicity = 1
  Basis Set: AUG-CC-PVTZ
    Blend: AUG-CC-PVTZ
  Basis Set: (AUG-CC-PVTZ AUX)
    Blend: AUG-CC-PVTZ-JKFIT

    Orbital Energies [Eh]
    ---------------------

    Doubly Occupied:

       1A    -79.657510     2A    -20.210958     3A    -20.104181
       4A    -20.104153     5A    -20.096079     6A    -10.982281
       7A    -10.973417     8A     -7.172452     9A     -5.071921
      10A     -5.069586    11A     -5.069518    12A     -1.015150
      13A     -0.913107    14A     -0.845624    15A     -0.841452
      16A     -0.743533    17A     -0.553753    18A     -0.386906
      19A     -0.362700    20A     -0.302962    21A     -0.277864
      22A     -0.259796    23A     -0.247188    24A     -0.185600
      25A     -0.181094    26A     -0.161540    27A     -0.116699
      28A     -0.079623    29A     -0.079521    30A     -0.077376
      31A     -0.039100    32A     -0.038763    33A     -0.009589

  @DF-RHF Final Energy:  -719.00915414141355

   => Energetics <=

    Nuclear Repulsion Energy =            409.1565164876880658
    One-Electron Energy =               -1831.8693519725507031
    Two-Electron Energy =                 703.7036813434490341
    Total Energy =                       -719.0091541414135463
  Basis Set: (AUG-CC-PVTZ AUX)
    Blend: AUG-CC-PVTZ-RI
    Molecular point group: c1

    Geometry (in Angstrom), charge = -2, multiplicity = 1:

       Center              X                  Y                   Z               Mass
    ------------   -----------------  -----------------  -----------------  -----------------
         P            0.865182289674    -0.017842402258     0.000269655459    30.973761998420
         O           -0.747564310326     0.597489697742    -0.004136344541    15.994914619570
         O            1.643398089674     1.307285097742    -0.003789144541    15.994914619570
         O            0.974928289674    -0.845812402258    -1.293842344541    15.994914619570
         O            0.971328289674    -0.835562402258     1.301279655459    15.994914619570
         C           -1.754601710326    -0.421734402258    -0.000234344541    12.000000000000
         C           -3.118287710326     0.244296597742    -0.000048344541    12.000000000000
         H           -1.645213710326    -1.068342402258    -0.881906344541     1.007825032230
         H           -1.642856710326    -1.063639402258     0.884518655459     1.007825032230
         H           -3.919875710326    -0.501961402258     0.003114655459     1.007825032230
         H           -3.232278710326     0.876980597742     0.884549655459     1.007825032230
         H           -3.235035710326     0.872519597742    -0.887450344541     1.007825032230

  Basis Set: AUG-CC-PVTZ
    Blend: AUG-CC-PVTZ
  Basis Set: (AUG-CC-PVTZ AUX)
    Blend: AUG-CC-PVTZ-JKFIT
	 Reference Energy          =    -719.0091541414135463 [Eh]
	 Singles Energy            =      -0.0000000000000000 [Eh]
	 Same-Spin Energy          =      -0.4234873652704317 [Eh]
	 Opposite-Spin Energy      =      -1.2439051631700730 [Eh]
	 Correlation Energy        =      -1.6673925284405047 [Eh]
	 Total Energy              =    -720.6765466698540195 [Eh]

	 ================> DF-SCS-MP2 Energies <==================
	-----------------------------------------------------------
	 SCS Same-Spin Scale       =       0.3333333333333333 [-]
	 SCS Opposite-Spin Scale   =       1.2000000000000000 [-]
	 SCS Same-Spin Energy      =      -0.1411624550901439 [Eh]
	 SCS Opposite-Spin Energy  =      -1.4926861958040876 [Eh]
	 SCS Correlation Energy    =      -1.6338486508942314 [Eh]
	 SCS Total Energy          =    -720.6430027923078114 [Eh]
	-----------------------------------------------------------

  Dipole Moment: [D]
     X:    -8.3133      Y:    -0.2458      Z:    -0.0030     Total:     8.3169

*** Psi4 exiting successfully. Buy a developer a beer!
