                               Psi4 1.3.2 release

  ==> Input File <==

--------------------------------------------------------------------------
#psi4
#
memory 32 gb

molecule  {
-2 1
  P        0.9715666    -0.0226110     0.0003012
  O       -0.6411800     0.5927210    -0.0041200
  O        1.7666250     1.3097720    -0.0037790
  O        1.0866210    -0.8364840    -1.2938730
  O        1.0830210    -0.8262340     1.3012490
  C       -1.6340995    -0.4211092    -0.0002154
  C       -3.0065950     0.2536250    -0.0000790
  H       -1.5335210    -1.0590140    -0.8819370
  H       -1.5311640    -1.0543110     0.8844880
  H       -3.8081830    -0.4926330     0.0030840
  H       -3.1205860     0.8863090     0.8845190
  H       -3.1233430     0.8818480    -0.8874810
units angstrom
no_reorient  #important for SAPT in psi4, default
symmetry c1  #important for SAPT in psi4, default
}

set PROPERTIES_ORIGIN ["COM"]
properties('MP2/aug-cc-pvtz', properties = ['dipole'])
--------------------------------------------------------------------------

    Molecular point group: c1
  Charge       = -2
  Multiplicity = 1
  Basis Set: AUG-CC-PVTZ
    Blend: AUG-CC-PVTZ
  Basis Set: (AUG-CC-PVTZ AUX)
    Blend: AUG-CC-PVTZ-JKFIT

    Orbital Energies [Eh]
    ---------------------

    Doubly Occupied:

       1A    -79.657932     2A    -20.211524     3A    -20.105316
       4A    -20.105292     5A    -20.094182     6A    -10.981788
       7A    -10.973308     8A     -7.172905     9A     -5.072357
      10A     -5.070030    11A     -5.069975    12A     -1.020310
      13A     -0.914871    14A     -0.849711    15A     -0.836593
      16A     -0.740794    17A     -0.555394    18A     -0.389024
      19A     -0.364117    20A     -0.302921    21A     -0.277264
      22A     -0.262930    23A     -0.249548    24A     -0.186697
      25A     -0.179462    26A     -0.162013    27A     -0.118236
      28A     -0.081521    29A     -0.077932    30A     -0.077863
      31A     -0.041230    32A     -0.036074    33A     -0.009020

  @DF-RHF Final Energy:  -719.00958767808902

   => Energetics <=

    Nuclear Repulsion Energy =            409.4303279700254166
    One-Electron Energy =               -1832.3835589665677617
    Two-Electron Energy =                 703.9436433184532689
    Total Energy =                       -719.0095876780890194
  Basis Set: (AUG-CC-PVTZ AUX)
    Blend: AUG-CC-PVTZ-RI
    Molecular point group: c1

    Geometry (in Angstrom), charge = -2, multiplicity = 1:

       Center              X                  Y                   Z               Mass
    ------------   -----------------  -----------------  -----------------  -----------------
         P            0.859544240653    -0.024874569145     0.000300191285    30.973761998420
         O           -0.753202359347     0.590457430855    -0.004121008715    15.994914619570
         O            1.654602640653     1.307508430855    -0.003780008715    15.994914619570
         O            0.974598640653    -0.838747569145    -1.293874008715    15.994914619570
         O            0.970998640653    -0.828497569145     1.301247991285    15.994914619570
         C           -1.746121859347    -0.423372769145    -0.000216408715    12.000000000000
         C           -3.118617359347     0.251361430855    -0.000080008715    12.000000000000
         H           -1.645543359347    -1.061277569145    -0.881938008715     1.007825032230
         H           -1.643186359347    -1.056574569145     0.884486991285     1.007825032230
         H           -3.920205359347    -0.494896569145     0.003082991285     1.007825032230
         H           -3.232608359347     0.884045430855     0.884517991285     1.007825032230
         H           -3.235365359347     0.879584430855    -0.887482008715     1.007825032230

  Basis Set: AUG-CC-PVTZ
    Blend: AUG-CC-PVTZ
  Basis Set: (AUG-CC-PVTZ AUX)
    Blend: AUG-CC-PVTZ-JKFIT
	 Reference Energy          =    -719.0095876780890194 [Eh]
	 Singles Energy            =      -0.0000000000000000 [Eh]
	 Same-Spin Energy          =      -0.4233607493019133 [Eh]
	 Opposite-Spin Energy      =      -1.2435224763697628 [Eh]
	 Correlation Energy        =      -1.6668832256716759 [Eh]
	 Total Energy              =    -720.6764709037606735 [Eh]

	 ================> DF-SCS-MP2 Energies <==================
	-----------------------------------------------------------
	 SCS Same-Spin Scale       =       0.3333333333333333 [-]
	 SCS Opposite-Spin Scale   =       1.2000000000000000 [-]
	 SCS Same-Spin Energy      =      -0.1411202497673044 [Eh]
	 SCS Opposite-Spin Energy  =      -1.4922269716437153 [Eh]
	 SCS Correlation Energy    =      -1.6333472214110198 [Eh]
	 SCS Total Energy          =    -720.6429348995000055 [Eh]
	-----------------------------------------------------------

  Dipole Moment: [D]
     X:    -8.3547      Y:    -0.4092      Z:    -0.0022     Total:     8.3647

*** Psi4 exiting successfully. Buy a developer a beer!
