                               Psi4 1.3.2 release

  ==> Input File <==

--------------------------------------------------------------------------
#psi4
#
memory 32 gb

molecule  {
-2 1
  P        0.9768750    -0.0085140     0.0002390
  O       -0.6611775     0.5358857    -0.0039288
  O        1.8121516     1.2814075    -0.0036127
  O        1.0866210    -0.8364840    -1.2938730
  O        1.0830210    -0.8262340     1.3012490
  C       -1.6429090    -0.4124060    -0.0002650
  C       -3.0065950     0.2536250    -0.0000790
  H       -1.5335210    -1.0590140    -0.8819370
  H       -1.5311640    -1.0543110     0.8844880
  H       -3.8081830    -0.4926330     0.0030840
  H       -3.1205860     0.8863090     0.8845190
  H       -3.1233430     0.8818480    -0.8874810
units angstrom
no_reorient  #important for SAPT in psi4, default
symmetry c1  #important for SAPT in psi4, default
}

set PROPERTIES_ORIGIN ["COM"]
properties('MP2/aug-cc-pvtz', properties = ['dipole'])
--------------------------------------------------------------------------

    Molecular point group: c1
  Charge       = -2
  Multiplicity = 1
  Basis Set: AUG-CC-PVTZ
    Blend: AUG-CC-PVTZ
  Basis Set: (AUG-CC-PVTZ AUX)
    Blend: AUG-CC-PVTZ-JKFIT

    Orbital Energies [Eh]
    ---------------------

    Doubly Occupied:

       1A    -79.660078     2A    -20.209773     3A    -20.102230
       4A    -20.102204     5A    -20.101736     6A    -10.978581
       7A    -10.971902     8A     -7.174853     9A     -5.074313
      10A     -5.072037    11A     -5.071858    12A     -1.038443
      13A     -0.917961    14A     -0.844397    15A     -0.843023
      16A     -0.741344    17A     -0.553004    18A     -0.399533
      19A     -0.367206    20A     -0.301811    21A     -0.290352
      22A     -0.266098    23A     -0.253137    24A     -0.183846
      25A     -0.180290    26A     -0.159180    27A     -0.113097
      28A     -0.083167    29A     -0.078760    30A     -0.077821
      31A     -0.041242    32A     -0.038140    33A     -0.009559

  @DF-RHF Final Energy:  -719.01148641207169

   => Energetics <=

    Nuclear Repulsion Energy =            410.1040140441221524
    One-Electron Energy =               -1833.6290445749555147
    Two-Electron Energy =                 704.5135441187617289
    Total Energy =                       -719.0114864120716902
  Basis Set: (AUG-CC-PVTZ AUX)
    Blend: AUG-CC-PVTZ-RI
    Molecular point group: c1

    Geometry (in Angstrom), charge = -2, multiplicity = 1:

       Center              X                  Y                   Z               Mass
    ------------   -----------------  -----------------  -----------------  -----------------
         P            0.861085939271    -0.004150654604     0.000212212204    30.973761998420
         O           -0.776966560729     0.540249045396    -0.003955587796    15.994914619570
         O            1.696362539271     1.285770845396    -0.003639487796    15.994914619570
         O            0.970831939271    -0.832120654604    -1.293899787796    15.994914619570
         O            0.967231939271    -0.821870654604     1.301222212204    15.994914619570
         C           -1.758698060729    -0.408042654604    -0.000291787796    12.000000000000
         C           -3.122384060729     0.257988345396    -0.000105787796    12.000000000000
         H           -1.649310060729    -1.054650654604    -0.881963787796     1.007825032230
         H           -1.646953060729    -1.049947654604     0.884461212204     1.007825032230
         H           -3.923972060729    -0.488269654604     0.003057212204     1.007825032230
         H           -3.236375060729     0.890672345396     0.884492212204     1.007825032230
         H           -3.239132060729     0.886211345396    -0.887507787796     1.007825032230

  Basis Set: AUG-CC-PVTZ
    Blend: AUG-CC-PVTZ
  Basis Set: (AUG-CC-PVTZ AUX)
    Blend: AUG-CC-PVTZ-JKFIT
	 Reference Energy          =    -719.0114864120716902 [Eh]
	 Singles Energy            =      -0.0000000000000000 [Eh]
	 Same-Spin Energy          =      -0.4230245656204374 [Eh]
	 Opposite-Spin Energy      =      -1.2418366854946208 [Eh]
	 Correlation Energy        =      -1.6648612511150582 [Eh]
	 Total Energy              =    -720.6763476631867888 [Eh]

	 ================> DF-SCS-MP2 Energies <==================
	-----------------------------------------------------------
	 SCS Same-Spin Scale       =       0.3333333333333333 [-]
	 SCS Opposite-Spin Scale   =       1.2000000000000000 [-]
	 SCS Same-Spin Energy      =      -0.1410081885401458 [Eh]
	 SCS Opposite-Spin Energy  =      -1.4902040225935449 [Eh]
	 SCS Correlation Energy    =      -1.6312122111336906 [Eh]
	 SCS Total Energy          =    -720.6426986232054333 [Eh]
	-----------------------------------------------------------

  Dipole Moment: [D]
     X:    -8.2266      Y:     0.0170      Z:    -0.0039     Total:     8.2266

*** Psi4 exiting successfully. Buy a developer a beer!
