                               Psi4 1.3.2 release

  ==> Input File <==

--------------------------------------------------------------------------
#psi4
#
memory 32 gb

molecule  {
-2 1
  P        0.9871218     0.0198163     0.0001137
  O       -0.6411800     0.5927210    -0.0041200
  O        1.7666250     1.3097720    -0.0037790
  O        1.0866210    -0.8364840    -1.2938730
  O        1.0830210    -0.8262340     1.3012490
  C       -1.6602984    -0.3947706    -0.0003650
  C       -3.0065950     0.2536250    -0.0000790
  H       -1.5335210    -1.0590140    -0.8819370
  H       -1.5311640    -1.0543110     0.8844880
  H       -3.8081830    -0.4926330     0.0030840
  H       -3.1205860     0.8863090     0.8845190
  H       -3.1233430     0.8818480    -0.8874810
units angstrom
no_reorient  #important for SAPT in psi4, default
symmetry c1  #important for SAPT in psi4, default
}

set PROPERTIES_ORIGIN ["COM"]
properties('MP2/aug-cc-pvtz', properties = ['dipole'])
--------------------------------------------------------------------------

    Molecular point group: c1
  Charge       = -2
  Multiplicity = 1
  Basis Set: AUG-CC-PVTZ
    Blend: AUG-CC-PVTZ
  Basis Set: (AUG-CC-PVTZ AUX)
    Blend: AUG-CC-PVTZ-JKFIT

    Orbital Energies [Eh]
    ---------------------

    Doubly Occupied:

       1A    -79.657928     2A    -20.209337     3A    -20.103237
       4A    -20.100732     5A    -20.100697     6A    -10.981480
       7A    -10.972830     8A     -7.172878     9A     -5.072337
      10A     -5.070193    11A     -5.069775    12A     -1.018009
      13A     -0.915849    14A     -0.849209    15A     -0.836630
      16A     -0.748019    17A     -0.550066    18A     -0.390112
      19A     -0.362641    20A     -0.302474    21A     -0.285972
      22A     -0.257171    23A     -0.247346    24A     -0.184305
      25A     -0.182907    26A     -0.159463    27A     -0.112217
      28A     -0.085234    29A     -0.077518    30A     -0.075179
      31A     -0.044210    32A     -0.034353    33A     -0.009263

  @DF-RHF Final Energy:  -719.00900165494318

   => Energetics <=

    Nuclear Repulsion Energy =            409.1681538484900784
    One-Electron Energy =               -1831.8751658409407810
    Two-Electron Energy =                 703.6980103375074123
    Total Energy =                       -719.0090016549431766
  Basis Set: (AUG-CC-PVTZ AUX)
    Blend: AUG-CC-PVTZ-RI
    Molecular point group: c1

    Geometry (in Angstrom), charge = -2, multiplicity = 1:

       Center              X                  Y                   Z               Mass
    ------------   -----------------  -----------------  -----------------  -----------------
         P            0.873749228334     0.004405196186     0.000174007717    30.973761998420
         O           -0.754552571666     0.577309896186    -0.004059692283    15.994914619570
         O            1.653252428334     1.294360896186    -0.003718692283    15.994914619570
         O            0.973248428334    -0.851895103814    -1.293812692283    15.994914619570
         O            0.969648428334    -0.841645103814     1.301309307717    15.994914619570
         C           -1.773670971666    -0.410181703814    -0.000304692283    12.000000000000
         C           -3.119967571666     0.238213896186    -0.000018692283    12.000000000000
         H           -1.646893571666    -1.074425103814    -0.881876692283     1.007825032230
         H           -1.644536571666    -1.069722103814     0.884548307717     1.007825032230
         H           -3.921555571666    -0.508044103814     0.003144307717     1.007825032230
         H           -3.233958571666     0.870897896186     0.884579307717     1.007825032230
         H           -3.236715571666     0.866436896186    -0.887420692283     1.007825032230

  Basis Set: AUG-CC-PVTZ
    Blend: AUG-CC-PVTZ
  Basis Set: (AUG-CC-PVTZ AUX)
    Blend: AUG-CC-PVTZ-JKFIT
	 Reference Energy          =    -719.0090016549431766 [Eh]
	 Singles Energy            =      -0.0000000000000000 [Eh]
	 Same-Spin Energy          =      -0.4234401936007873 [Eh]
	 Opposite-Spin Energy      =      -1.2433872721911008 [Eh]
	 Correlation Energy        =      -1.6668274657918882 [Eh]
	 Total Energy              =    -720.6758291207351022 [Eh]

	 ================> DF-SCS-MP2 Energies <==================
	-----------------------------------------------------------
	 SCS Same-Spin Scale       =       0.3333333333333333 [-]
	 SCS Opposite-Spin Scale   =       1.2000000000000000 [-]
	 SCS Same-Spin Energy      =      -0.1411467312002624 [Eh]
	 SCS Opposite-Spin Energy  =      -1.4920647266293210 [Eh]
	 SCS Correlation Energy    =      -1.6332114578295833 [Eh]
	 SCS Total Energy          =    -720.6422131127727653 [Eh]
	-----------------------------------------------------------

  Dipole Moment: [D]
     X:    -8.2014      Y:     0.2285      Z:    -0.0049     Total:     8.2046

*** Psi4 exiting successfully. Buy a developer a beer!
