                               Psi4 1.3.2 release

  ==> Input File <==

--------------------------------------------------------------------------
#psi4
#
memory 32 gb

molecule  {
-2 1
  P        0.9768750    -0.0085140     0.0002390
  O       -0.6154487     0.5640873    -0.0676619
  O        1.7666250     1.3097720    -0.0037790
  O        1.0866210    -0.8364840    -1.2938730
  O        1.0830210    -0.8262340     1.3012490
  C       -1.6429090    -0.4124060    -0.0002650
  C       -3.0065950     0.2536250    -0.0000790
  H       -1.4883314    -1.0271537    -0.8978196
  H       -1.5311640    -1.0543110     0.8844880
  H       -3.8081830    -0.4926330     0.0030840
  H       -3.1205860     0.8863090     0.8845190
  H       -3.1233430     0.8818480    -0.8874810
units angstrom
no_reorient  #important for SAPT in psi4, default
symmetry c1  #important for SAPT in psi4, default
}

set PROPERTIES_ORIGIN ["COM"]
properties('MP2/aug-cc-pvtz', properties = ['dipole'])
--------------------------------------------------------------------------

    Molecular point group: c1
  Charge       = -2
  Multiplicity = 1
  Basis Set: AUG-CC-PVTZ
    Blend: AUG-CC-PVTZ
  Basis Set: (AUG-CC-PVTZ AUX)
    Blend: AUG-CC-PVTZ-JKFIT

    Orbital Energies [Eh]
    ---------------------

    Doubly Occupied:

       1A    -79.654494     2A    -20.209209     3A    -20.103187
       4A    -20.098106     5A    -20.095486     6A    -10.982922
       7A    -10.976037     8A     -7.169712     9A     -5.069239
      10A     -5.066906    11A     -5.066776    12A     -1.025022
      13A     -0.911521    14A     -0.843236    15A     -0.839654
      16A     -0.745908    17A     -0.556063    18A     -0.392119
      19A     -0.366052    20A     -0.304389    21A     -0.285758
      22A     -0.264857    23A     -0.247610    24A     -0.184762
      25A     -0.181550    26A     -0.157313    27A     -0.115775
      28A     -0.080200    29A     -0.076858    30A     -0.075394
      31A     -0.038085    32A     -0.034789    33A     -0.007298

  @DF-RHF Final Energy:  -719.00924422591629

   => Energetics <=

    Nuclear Repulsion Energy =            410.4625618781495291
    One-Electron Energy =               -1834.4910357490080060
    Two-Electron Energy =                 705.0192296449422429
    Total Energy =                       -719.0092442259162908
  Basis Set: (AUG-CC-PVTZ AUX)
    Blend: AUG-CC-PVTZ-RI
    Molecular point group: c1

    Geometry (in Angstrom), charge = -2, multiplicity = 1:

       Center              X                  Y                   Z               Mass
    ------------   -----------------  -----------------  -----------------  -----------------
         P            0.860692549640    -0.011706589059     0.008584266538    30.973761998420
         O           -0.731631150360     0.560894710941    -0.059316633462    15.994914619570
         O            1.650442549640     1.306579410941     0.004566266538    15.994914619570
         O            0.970438549640    -0.839676589059    -1.285527733462    15.994914619570
         O            0.966838549640    -0.829426589059     1.309594266538    15.994914619570
         C           -1.759091450360    -0.415598589059     0.008080266538    12.000000000000
         C           -3.122777450360     0.250432410941     0.008266266538    12.000000000000
         H           -1.604513850360    -1.030346289059    -0.889474333462     1.007825032230
         H           -1.647346450360    -1.057503589059     0.892833266538     1.007825032230
         H           -3.924365450360    -0.495825589059     0.011429266538     1.007825032230
         H           -3.236768450360     0.883116410941     0.892864266538     1.007825032230
         H           -3.239525450360     0.878655410941    -0.879135733462     1.007825032230

  Basis Set: AUG-CC-PVTZ
    Blend: AUG-CC-PVTZ
  Basis Set: (AUG-CC-PVTZ AUX)
    Blend: AUG-CC-PVTZ-JKFIT
	 Reference Energy          =    -719.0092442259162908 [Eh]
	 Singles Energy            =      -0.0000000000000000 [Eh]
	 Same-Spin Energy          =      -0.4230931863454386 [Eh]
	 Opposite-Spin Energy      =      -1.2425235748113059 [Eh]
	 Correlation Energy        =      -1.6656167611567445 [Eh]
	 Total Energy              =    -720.6748609870730888 [Eh]

	 ================> DF-SCS-MP2 Energies <==================
	-----------------------------------------------------------
	 SCS Same-Spin Scale       =       0.3333333333333333 [-]
	 SCS Opposite-Spin Scale   =       1.2000000000000000 [-]
	 SCS Same-Spin Energy      =      -0.1410310621151462 [Eh]
	 SCS Opposite-Spin Energy  =      -1.4910282897735672 [Eh]
	 SCS Correlation Energy    =      -1.6320593518887134 [Eh]
	 SCS Total Energy          =    -720.6413035778050471 [Eh]
	-----------------------------------------------------------

  Dipole Moment: [D]
     X:    -8.5118      Y:    -0.1194      Z:     0.0811     Total:     8.5131

*** Psi4 exiting successfully. Buy a developer a beer!
