                               Psi4 1.3.2 release

  ==> Input File <==

--------------------------------------------------------------------------
#psi4
#
memory 32 gb

molecule  {
-2 1
  P        0.9768750    -0.0085140     0.0002390
  O       -0.6411800     0.5927210    -0.0041200
  O        1.7666250     1.3097720    -0.0037790
  O        1.0866210    -0.8364840    -1.2938730
  O        1.0761298    -0.7731460     1.2167849
  C       -1.6429090    -0.4124060    -0.0002650
  C       -3.0065950     0.2536250    -0.0000790
  H       -1.5335210    -1.0590140    -0.8819370
  H       -1.5311640    -1.0543110     0.8844880
  H       -3.8081830    -0.4926330     0.0030840
  H       -3.1205860     0.8863090     0.8845190
  H       -3.1233430     0.8818480    -0.8874810
units angstrom
no_reorient  #important for SAPT in psi4, default
symmetry c1  #important for SAPT in psi4, default
}

set PROPERTIES_ORIGIN ["COM"]
properties('MP2/aug-cc-pvtz', properties = ['dipole'])
--------------------------------------------------------------------------

    Molecular point group: c1
  Charge       = -2
  Multiplicity = 1
  Basis Set: AUG-CC-PVTZ
    Blend: AUG-CC-PVTZ
  Basis Set: (AUG-CC-PVTZ AUX)
    Blend: AUG-CC-PVTZ-JKFIT

    Orbital Energies [Eh]
    ---------------------

    Doubly Occupied:

       1A    -79.637286     2A    -20.203594     3A    -20.097883
       4A    -20.094227     5A    -20.087716     6A    -10.979194
       7A    -10.971313     8A     -7.156480     9A     -5.055548
      10A     -5.054269    11A     -5.053033    12A     -1.017284
      13A     -0.932278    14A     -0.855733    15A     -0.834294
      16A     -0.740756    17A     -0.550920    18A     -0.384388
      19A     -0.361178    20A     -0.299482    21A     -0.277335
      22A     -0.258457    23A     -0.247510    24A     -0.188313
      25A     -0.182299    26A     -0.165343    27A     -0.114958
      28A     -0.087266    29A     -0.082202    30A     -0.073700
      31A     -0.040742    32A     -0.032347    33A     -0.004637

  @DF-RHF Final Energy:  -719.00721603765157

   => Energetics <=

    Nuclear Repulsion Energy =            413.7028210770264423
    One-Electron Energy =               -1841.1761437259228842
    Two-Electron Energy =                 708.4661066112449817
    Total Energy =                       -719.0072160376515740
  Basis Set: (AUG-CC-PVTZ AUX)
    Blend: AUG-CC-PVTZ-RI
    Molecular point group: c1

    Geometry (in Angstrom), charge = -2, multiplicity = 1:

       Center              X                  Y                   Z               Mass
    ------------   -----------------  -----------------  -----------------  -----------------
         P            0.865268125610    -0.021989642767     0.011154113936    30.973761998420
         O           -0.752786874390     0.579245357233     0.006795113936    15.994914619570
         O            1.655018125610     1.296296357233     0.007136113936    15.994914619570
         O            0.975014125610    -0.849959642767    -1.282957886064    15.994914619570
         O            0.964522925610    -0.786621642767     1.227700013936    15.994914619570
         C           -1.754515874390    -0.425881642767     0.010650113936    12.000000000000
         C           -3.118201874390     0.240149357233     0.010836113936    12.000000000000
         H           -1.645127874390    -1.072489642767    -0.871021886064     1.007825032230
         H           -1.642770874390    -1.067786642767     0.895403113936     1.007825032230
         H           -3.919789874390    -0.506108642767     0.013999113936     1.007825032230
         H           -3.232192874390     0.872833357233     0.895434113936     1.007825032230
         H           -3.234949874390     0.868372357233    -0.876565886064     1.007825032230

  Basis Set: AUG-CC-PVTZ
    Blend: AUG-CC-PVTZ
  Basis Set: (AUG-CC-PVTZ AUX)
    Blend: AUG-CC-PVTZ-JKFIT
	 Reference Energy          =    -719.0072160376515740 [Eh]
	 Singles Energy            =      -0.0000000000000000 [Eh]
	 Same-Spin Energy          =      -0.4216104152822397 [Eh]
	 Opposite-Spin Energy      =      -1.2388385861404578 [Eh]
	 Correlation Energy        =      -1.6604490014226976 [Eh]
	 Total Energy              =    -720.6676650390742225 [Eh]

	 ================> DF-SCS-MP2 Energies <==================
	-----------------------------------------------------------
	 SCS Same-Spin Scale       =       0.3333333333333333 [-]
	 SCS Opposite-Spin Scale   =       1.2000000000000000 [-]
	 SCS Same-Spin Energy      =      -0.1405368050940799 [Eh]
	 SCS Opposite-Spin Energy  =      -1.4866063033685493 [Eh]
	 SCS Correlation Energy    =      -1.6271431084626291 [Eh]
	 SCS Total Energy          =    -720.6343591461142069 [Eh]
	-----------------------------------------------------------

  Dipole Moment: [D]
     X:    -8.1993      Y:    -0.5534      Z:     0.5957     Total:     8.2395

*** Psi4 exiting successfully. Buy a developer a beer!
