                               Psi4 1.3.2 release

  ==> Input File <==

--------------------------------------------------------------------------
#psi4
#
memory 32 gb

molecule  {
-2 1
  P        0.9768750    -0.0085140     0.0002390
  O       -0.6598642     0.6102841     0.0382579
  O        1.7666250     1.3097720    -0.0037790
  O        1.0866210    -0.8364840    -1.2938730
  O        1.0830210    -0.8262340     1.3012490
  C       -1.6429090    -0.4124060    -0.0002650
  C       -3.0065950     0.2536250    -0.0000790
  H       -1.5638216    -1.0792748    -0.8700031
  H       -1.5311640    -1.0543110     0.8844880
  H       -3.8081830    -0.4926330     0.0030840
  H       -3.1205860     0.8863090     0.8845190
  H       -3.1233430     0.8818480    -0.8874810
units angstrom
no_reorient  #important for SAPT in psi4, default
symmetry c1  #important for SAPT in psi4, default
}

set PROPERTIES_ORIGIN ["COM"]
properties('MP2/aug-cc-pvtz', properties = ['dipole'])
--------------------------------------------------------------------------

    Molecular point group: c1
  Charge       = -2
  Multiplicity = 1
  Basis Set: AUG-CC-PVTZ
    Blend: AUG-CC-PVTZ
  Basis Set: (AUG-CC-PVTZ AUX)
    Blend: AUG-CC-PVTZ-JKFIT

    Orbital Energies [Eh]
    ---------------------

    Doubly Occupied:

       1A    -79.660484     2A    -20.211504     3A    -20.107590
       4A    -20.104348     5A    -20.098609     6A    -10.980588
       7A    -10.971066     8A     -7.175211     9A     -5.074640
      10A     -5.072323    11A     -5.072238    12A     -1.015697
      13A     -0.916101    14A     -0.847208    15A     -0.843027
      16A     -0.741056    17A     -0.551941    18A     -0.387469
      19A     -0.361320    20A     -0.301639    21A     -0.276940
      22A     -0.257785    23A     -0.248946    24A     -0.185376
      25A     -0.180395    26A     -0.164161    27A     -0.115875
      28A     -0.081224    29A     -0.080436    30A     -0.078632
      31A     -0.041790    32A     -0.040117    33A     -0.011231

  @DF-RHF Final Energy:  -719.00856112850249

   => Energetics <=

    Nuclear Repulsion Energy =            408.5501852410452557
    One-Electron Energy =               -1830.6035561808432703
    Two-Electron Energy =                 703.0448098112955222
    Total Energy =                       -719.0085611285024925
  Basis Set: (AUG-CC-PVTZ AUX)
    Blend: AUG-CC-PVTZ-RI
    Molecular point group: c1

    Geometry (in Angstrom), charge = -2, multiplicity = 1:

       Center              X                  Y                   Z               Mass
    ------------   -----------------  -----------------  -----------------  -----------------
         P            0.867035697443    -0.017242284119    -0.005305377502    30.973761998420
         O           -0.769703502557     0.601555815881     0.032713522498    15.994914619570
         O            1.656785697443     1.301043715881    -0.009323377502    15.994914619570
         O            0.976781697443    -0.845212284119    -1.299417377502    15.994914619570
         O            0.973181697443    -0.834962284119     1.295704622498    15.994914619570
         C           -1.752748302557    -0.421134284119    -0.005809377502    12.000000000000
         C           -3.116434302557     0.244896715881    -0.005623377502    12.000000000000
         H           -1.673660902557    -1.088003084119    -0.875547477502     1.007825032230
         H           -1.641003302557    -1.063039284119     0.878943622498     1.007825032230
         H           -3.918022302557    -0.501361284119    -0.002460377502     1.007825032230
         H           -3.230425302557     0.877580715881     0.878974622498     1.007825032230
         H           -3.233182302557     0.873119715881    -0.893025377502     1.007825032230

  Basis Set: AUG-CC-PVTZ
    Blend: AUG-CC-PVTZ
  Basis Set: (AUG-CC-PVTZ AUX)
    Blend: AUG-CC-PVTZ-JKFIT
	 Reference Energy          =    -719.0085611285024925 [Eh]
	 Singles Energy            =      -0.0000000000000000 [Eh]
	 Same-Spin Energy          =      -0.4236726024600224 [Eh]
	 Opposite-Spin Energy      =      -1.2442649565884056 [Eh]
	 Correlation Energy        =      -1.6679375590484280 [Eh]
	 Total Energy              =    -720.6764986875509749 [Eh]

	 ================> DF-SCS-MP2 Energies <==================
	-----------------------------------------------------------
	 SCS Same-Spin Scale       =       0.3333333333333333 [-]
	 SCS Opposite-Spin Scale   =       1.2000000000000000 [-]
	 SCS Same-Spin Energy      =      -0.1412242008200075 [Eh]
	 SCS Opposite-Spin Energy  =      -1.4931179479060868 [Eh]
	 SCS Correlation Energy    =      -1.6343421487260943 [Eh]
	 SCS Total Energy          =    -720.6429032772285836 [Eh]
	-----------------------------------------------------------

  Dipole Moment: [D]
     X:    -8.1419      Y:    -0.2430      Z:    -0.0565     Total:     8.1457

*** Psi4 exiting successfully. Buy a developer a beer!
