                               Psi4 1.3.2 release

  ==> Input File <==

--------------------------------------------------------------------------
#psi4
#
memory 32 gb

molecule  {
-2 1
  P        0.9768750    -0.0085140     0.0002390
  O       -0.6463652     0.5785782    -0.0040727
  O        1.7780990     1.3028301    -0.0037379
  O        1.0866210    -0.8364840    -1.2938730
  O        1.0830210    -0.8262340     1.3012490
  C       -1.6429090    -0.4124060    -0.0002650
  C       -3.0065950     0.2536250    -0.0000790
  H       -1.5335210    -1.0590140    -0.8819370
  H       -1.5311640    -1.0543110     0.8844880
  H       -3.8081830    -0.4926330     0.0030840
  H       -3.1205860     0.8863090     0.8845190
  H       -3.1233430     0.8818480    -0.8874810
units angstrom
no_reorient  #important for SAPT in psi4, default
symmetry c1  #important for SAPT in psi4, default
}

set PROPERTIES_ORIGIN ["COM"]
properties('MP2/aug-cc-pvtz', properties = ['dipole'])
--------------------------------------------------------------------------

    Molecular point group: c1
  Charge       = -2
  Multiplicity = 1
  Basis Set: AUG-CC-PVTZ
    Blend: AUG-CC-PVTZ
  Basis Set: (AUG-CC-PVTZ AUX)
    Blend: AUG-CC-PVTZ-JKFIT

    Orbital Energies [Eh]
    ---------------------

    Doubly Occupied:

       1A    -79.658422     2A    -20.210524     3A    -20.103346
       4A    -20.103319     5A    -20.098309     6A    -10.980899
       7A    -10.972879     8A     -7.173301     9A     -5.072760
      10A     -5.070461    11A     -5.070345    12A     -1.023923
      13A     -0.915111    14A     -0.845080    15A     -0.842061
      16A     -0.742703    17A     -0.553418    18A     -0.391856
      19A     -0.364343    20A     -0.302501    21A     -0.282402
      22A     -0.262272    23A     -0.249943    24A     -0.184842
      25A     -0.180664    26A     -0.160928    27A     -0.115435
      28A     -0.081008    29A     -0.078801    30A     -0.077903
      31A     -0.039924    32A     -0.038690    33A     -0.009555

  @DF-RHF Final Energy:  -719.01125395868712

   => Energetics <=

    Nuclear Repulsion Energy =            409.5202449386377452
    One-Electron Energy =               -1832.5471366938550091
    Two-Electron Energy =                 704.0156377965301999
    Total Energy =                       -719.0112539586871208
  Basis Set: (AUG-CC-PVTZ AUX)
    Blend: AUG-CC-PVTZ-RI
    Molecular point group: c1

    Geometry (in Angstrom), charge = -2, multiplicity = 1:

       Center              X                  Y                   Z               Mass
    ------------   -----------------  -----------------  -----------------  -----------------
         P            0.863567918766    -0.012421438505     0.000246925835    30.973761998420
         O           -0.759672281234     0.574670761495    -0.004064774165    15.994914619570
         O            1.664791918766     1.298922661495    -0.003729974165    15.994914619570
         O            0.973313918766    -0.840391438505    -1.293865074165    15.994914619570
         O            0.969713918766    -0.830141438505     1.301256925835    15.994914619570
         C           -1.756216081234    -0.416313438505    -0.000257074165    12.000000000000
         C           -3.119902081234     0.249717561495    -0.000071074165    12.000000000000
         H           -1.646828081234    -1.062921438505    -0.881929074165     1.007825032230
         H           -1.644471081234    -1.058218438505     0.884495925835     1.007825032230
         H           -3.921490081234    -0.496540438505     0.003091925835     1.007825032230
         H           -3.233893081234     0.882401561495     0.884526925835     1.007825032230
         H           -3.236650081234     0.877940561495    -0.887473074165     1.007825032230

  Basis Set: AUG-CC-PVTZ
    Blend: AUG-CC-PVTZ
  Basis Set: (AUG-CC-PVTZ AUX)
    Blend: AUG-CC-PVTZ-JKFIT
	 Reference Energy          =    -719.0112539586871208 [Eh]
	 Singles Energy            =      -0.0000000000000000 [Eh]
	 Same-Spin Energy          =      -0.4232530538724875 [Eh]
	 Opposite-Spin Energy      =      -1.2429760157266183 [Eh]
	 Correlation Energy        =      -1.6662290695991058 [Eh]
	 Total Energy              =    -720.6774830282862467 [Eh]

	 ================> DF-SCS-MP2 Energies <==================
	-----------------------------------------------------------
	 SCS Same-Spin Scale       =       0.3333333333333333 [-]
	 SCS Opposite-Spin Scale   =       1.2000000000000000 [-]
	 SCS Same-Spin Energy      =      -0.1410843512908292 [Eh]
	 SCS Opposite-Spin Energy  =      -1.4915712188719419 [Eh]
	 SCS Correlation Energy    =      -1.6326555701627710 [Eh]
	 SCS Total Energy          =    -720.6439095288499175 [Eh]
	-----------------------------------------------------------

  Dipole Moment: [D]
     X:    -8.2881      Y:    -0.1445      Z:    -0.0033     Total:     8.2894

*** Psi4 exiting successfully. Buy a developer a beer!
