                               Psi4 1.4a3.dev225

  ==> Input File <==

--------------------------------------------------------------------------
#psi4
#
memory 32 gb

molecule  {
-2 1
  P        0.9779190    -0.0071730     0.0036310
  O       -0.6226946     0.5826257    -0.0600904
  O        1.7663530     1.3109990    -0.0273720
  O        1.1203390    -0.8841130    -1.2536930
  O        1.0512740    -0.7793920     1.3338630
  C       -1.6443320    -0.4127400    -0.0031870
  C       -3.0079050     0.2540090    -0.0015060
  H       -1.5542930    -1.0922920    -0.8626040
  H       -1.5171060    -1.0208640     0.9023270
  H       -3.8086770    -0.4913540     0.0489290
  H       -3.1025260     0.9214830     0.8596320
  H       -3.1449030     0.8467680    -0.9102780
units angstrom
no_reorient  #important for SAPT in psi4, default
symmetry c1  #important for SAPT in psi4, default
}

set PROPERTIES_ORIGIN ["COM"]
properties('MP2/aug-cc-pvtz', properties = ['dipole'])
--------------------------------------------------------------------------

    Molecular point group: c1
  Charge       = -2
  Multiplicity = 1
  Basis Set: AUG-CC-PVTZ
    Blend: AUG-CC-PVTZ
  Basis Set: (AUG-CC-PVTZ AUX)
    Blend: AUG-CC-PVTZ-JKFIT

    Orbital Energies [Eh]
    ---------------------

    Doubly Occupied:

       1A    -79.655420     2A    -20.211320     3A    -20.101572
       4A    -20.101532     5A    -20.095930     6A    -10.983706
       7A    -10.975051     8A     -7.170564     9A     -5.070058
      10A     -5.067729    11A     -5.067640    12A     -1.020349
      13A     -0.912132    14A     -0.843609    15A     -0.840786
      16A     -0.745613    17A     -0.555756    18A     -0.390350
      19A     -0.364326    20A     -0.303826    21A     -0.281483
      22A     -0.262282    23A     -0.247917    24A     -0.185189
      25A     -0.182086    26A     -0.159477    27A     -0.117185
      28A     -0.079931    29A     -0.077931    30A     -0.076262
      31A     -0.038030    32A     -0.036728    33A     -0.008007

  @DF-RHF Final Energy:  -719.01034568293437

   => Energetics <=

    Nuclear Repulsion Energy =            409.7641871493918302
    One-Electron Energy =               -1833.0895085885019853
    Two-Electron Energy =                 704.3149757561758406
    Total Energy =                       -719.0103456829343713
  Basis Set: (AUG-CC-PVTZ AUX)
    Blend: AUG-CC-PVTZ-RI
    Molecular point group: c1

    Geometry (in Angstrom), charge = -2, multiplicity = 1:

       Center              X                  Y                   Z               Mass
    ------------   -----------------  -----------------  -----------------  -----------------
         P            0.862910141037    -0.012907178629     0.003809947753    30.973761998420
         O           -0.737703458963     0.576891521371    -0.059911452247    15.994914619570
         O            1.651344141037     1.305264821371    -0.027193052247    15.994914619570
         O            1.005330141037    -0.889847178629    -1.253514052247    15.994914619570
         O            0.936265141037    -0.785126178629     1.334041947753    15.994914619570
         C           -1.759340858963    -0.418474178629    -0.003008052247    12.000000000000
         C           -3.122913858963     0.248274821371    -0.001327052247    12.000000000000
         H           -1.669301858963    -1.098026178629    -0.862425052247     1.007825032230
         H           -1.632114858963    -1.026598178629     0.902505947753     1.007825032230
         H           -3.923685858963    -0.497088178629     0.049107947753     1.007825032230
         H           -3.217534858963     0.915748821371     0.859810947753     1.007825032230
         H           -3.259911858963     0.841033821371    -0.910099052247     1.007825032230

  Basis Set: AUG-CC-PVTZ
    Blend: AUG-CC-PVTZ
  Basis Set: (AUG-CC-PVTZ AUX)
    Blend: AUG-CC-PVTZ-JKFIT
	 Reference Energy          =    -719.0103456829343713 [Eh]
	 Singles Energy            =      -0.0000000000000000 [Eh]
	 Same-Spin Energy          =      -0.4231387111351655 [Eh]
	 Opposite-Spin Energy      =      -1.2429403326462900 [Eh]
	 Correlation Energy        =      -1.6660790437814557 [Eh]
	 Total Energy              =    -720.6764247267158225 [Eh]

	 ================> DF-SCS-MP2 Energies <==================
	-----------------------------------------------------------
	 SCS Same-Spin Scale       =       0.3333333333333333 [-]
	 SCS Opposite-Spin Scale   =       1.2000000000000000 [-]
	 SCS Same-Spin Energy      =      -0.1410462370450552 [Eh]
	 SCS Opposite-Spin Energy  =      -1.4915283991755479 [Eh]
	 SCS Correlation Energy    =      -1.6325746362206031 [Eh]
	 SCS Total Energy          =    -720.6429203191549959 [Eh]
	-----------------------------------------------------------

  Dipole Moment: [D]
     X:    -8.4525      Y:    -0.1657      Z:    -0.0365     Total:     8.4542

*** Psi4 exiting successfully. Buy a developer a beer!
