                               Psi4 1.3.2 release

  ==> Input File <==

--------------------------------------------------------------------------
#psi4
#
memory 32 gb

molecule  {
-2 1
  P        0.9768750    -0.0085140     0.0002390
  O       -0.5899483     0.5389170    -0.0040554
  O        1.7666250     1.3097720    -0.0037790
  O        1.0866210    -0.8364840    -1.2938730
  O        1.0830210    -0.8262340     1.3012490
  C       -1.6429090    -0.4124060    -0.0002650
  C       -3.0395833     0.1813427     0.0001454
  H       -1.5335210    -1.0590140    -0.8819370
  H       -1.5311640    -1.0543110     0.8844880
  H       -3.8081830    -0.4926330     0.0030840
  H       -3.1205860     0.8863090     0.8845190
  H       -3.1233430     0.8818480    -0.8874810
units angstrom
no_reorient  #important for SAPT in psi4, default
symmetry c1  #important for SAPT in psi4, default
}

set PROPERTIES_ORIGIN ["COM"]
properties('MP2/aug-cc-pvtz', properties = ['dipole'])
--------------------------------------------------------------------------

    Molecular point group: c1
  Charge       = -2
  Multiplicity = 1
  Basis Set: AUG-CC-PVTZ
    Blend: AUG-CC-PVTZ
  Basis Set: (AUG-CC-PVTZ AUX)
    Blend: AUG-CC-PVTZ-JKFIT

    Orbital Energies [Eh]
    ---------------------

    Doubly Occupied:

       1A    -79.651616     2A    -20.212807     3A    -20.097421
       4A    -20.097403     5A    -20.094293     6A    -10.987137
       7A    -10.979641     8A     -7.167202     9A     -5.066859
      10A     -5.064385    11A     -5.064246    12A     -1.032455
      13A     -0.908916    14A     -0.840358    15A     -0.838498
      16A     -0.752752    17A     -0.561434    18A     -0.402227
      19A     -0.359240    20A     -0.324727    21A     -0.290011
      22A     -0.254385    23A     -0.248382    24A     -0.184216
      25A     -0.182522    26A     -0.154049    27A     -0.117427
      28A     -0.080453    29A     -0.074728    30A     -0.074017
      31A     -0.035230    32A     -0.032852    33A     -0.005122

  @DF-RHF Final Energy:  -719.00165608502186

   => Energetics <=

    Nuclear Repulsion Energy =            411.0965043115884328
    One-Electron Energy =               -1835.7222966042108965
    Two-Electron Energy =                 705.6241362076005998
    Total Energy =                       -719.0016560850218639
  Basis Set: (AUG-CC-PVTZ AUX)
    Blend: AUG-CC-PVTZ-RI
    Molecular point group: c1

    Geometry (in Angstrom), charge = -2, multiplicity = 1:

       Center              X                  Y                   Z               Mass
    ------------   -----------------  -----------------  -----------------  -----------------
         P            0.860962937582    -0.001205199635     0.000228278577    30.973761998420
         O           -0.705860362418     0.546225800365    -0.004066121423    15.994914619570
         O            1.650712937582     1.317080800365    -0.003789721423    15.994914619570
         O            0.970708937582    -0.829175199635    -1.293883721423    15.994914619570
         O            0.967108937582    -0.818925199635     1.301238278577    15.994914619570
         C           -1.758821062418    -0.405097199635    -0.000275721423    12.000000000000
         C           -3.155495362418     0.188651500365     0.000134678577    12.000000000000
         H           -1.649433062418    -1.051705199635    -0.881947721423     1.007825032230
         H           -1.647076062418    -1.047002199635     0.884477278577     1.007825032230
         H           -3.924095062418    -0.485324199635     0.003073278577     1.007825032230
         H           -3.236498062418     0.893617800365     0.884508278577     1.007825032230
         H           -3.239255062418     0.889156800365    -0.887491721423     1.007825032230

  Basis Set: AUG-CC-PVTZ
    Blend: AUG-CC-PVTZ
  Basis Set: (AUG-CC-PVTZ AUX)
    Blend: AUG-CC-PVTZ-JKFIT
	 Reference Energy          =    -719.0016560850218639 [Eh]
	 Singles Energy            =      -0.0000000000000000 [Eh]
	 Same-Spin Energy          =      -0.4228015908390669 [Eh]
	 Opposite-Spin Energy      =      -1.2416850972450582 [Eh]
	 Correlation Energy        =      -1.6644866880841249 [Eh]
	 Total Energy              =    -720.6661427731060030 [Eh]

	 ================> DF-SCS-MP2 Energies <==================
	-----------------------------------------------------------
	 SCS Same-Spin Scale       =       0.3333333333333333 [-]
	 SCS Opposite-Spin Scale   =       1.2000000000000000 [-]
	 SCS Same-Spin Energy      =      -0.1409338636130223 [Eh]
	 SCS Opposite-Spin Energy  =      -1.4900221166940697 [Eh]
	 SCS Correlation Energy    =      -1.6309559803070921 [Eh]
	 SCS Total Energy          =    -720.6326120653289991 [Eh]
	-----------------------------------------------------------

  Dipole Moment: [D]
     X:    -8.7722      Y:    -0.1953      Z:    -0.0032     Total:     8.7744

*** Psi4 exiting successfully. Buy a developer a beer!
