                               Psi4 1.3.2 release

  ==> Input File <==

--------------------------------------------------------------------------
#psi4
#
memory 32 gb

molecule  {
-2 1
  P        0.9768750    -0.0085140     0.0002390
  O       -0.6704293     0.5072150    -0.0038313
  O        1.8345367     1.2666336    -0.0035278
  O        1.0866210    -0.8364840    -1.2938730
  O        1.0830210    -0.8262340     1.3012490
  C       -1.6429090    -0.4124060    -0.0002650
  C       -3.0065950     0.2536250    -0.0000790
  H       -1.5335210    -1.0590140    -0.8819370
  H       -1.5311640    -1.0543110     0.8844880
  H       -3.8081830    -0.4926330     0.0030840
  H       -3.1205860     0.8863090     0.8845190
  H       -3.1233430     0.8818480    -0.8874810
units angstrom
no_reorient  #important for SAPT in psi4, default
symmetry c1  #important for SAPT in psi4, default
}

set PROPERTIES_ORIGIN ["COM"]
properties('MP2/aug-cc-pvtz', properties = ['dipole'])
--------------------------------------------------------------------------

    Molecular point group: c1
  Charge       = -2
  Multiplicity = 1
  Basis Set: AUG-CC-PVTZ
    Blend: AUG-CC-PVTZ
  Basis Set: (AUG-CC-PVTZ AUX)
    Blend: AUG-CC-PVTZ-JKFIT

    Orbital Energies [Eh]
    ---------------------

    Doubly Occupied:

       1A    -79.661369     2A    -20.209210     3A    -20.104067
       4A    -20.101581     5A    -20.101556     6A    -10.976917
       7A    -10.971139     8A     -7.176070     9A     -5.075539
      10A     -5.073261    11A     -5.073044    12A     -1.048974
      13A     -0.919787    14A     -0.844036    15A     -0.843701
      16A     -0.740377    17A     -0.552842    18A     -0.404757
      19A     -0.369444    20A     -0.301425    21A     -0.296102
      22A     -0.268683    23A     -0.254838    24A     -0.183299
      25A     -0.180238    26A     -0.157471    27A     -0.111240
      28A     -0.084624    29A     -0.079348    30A     -0.077254
      31A     -0.041880    32A     -0.037817    33A     -0.009600

  @DF-RHF Final Energy:  -719.00953927720423

   => Energetics <=

    Nuclear Repulsion Energy =            410.5174202837698658
    One-Electron Energy =               -1834.3909375911791813
    Two-Electron Energy =                 704.8639780302049758
    Total Energy =                       -719.0095392772042260
  Basis Set: (AUG-CC-PVTZ AUX)
    Blend: AUG-CC-PVTZ-RI
    Molecular point group: c1

    Geometry (in Angstrom), charge = -2, multiplicity = 1:

       Center              X                  Y                   Z               Mass
    ------------   -----------------  -----------------  -----------------  -----------------
         P            0.859391756681     0.001453655430     0.000188682786    30.973761998420
         O           -0.787912543319     0.517182655430    -0.003881617214    15.994914619570
         O            1.717053456681     1.276601255430    -0.003578117214    15.994914619570
         O            0.969137756681    -0.826516344570    -1.293923317214    15.994914619570
         O            0.965537756681    -0.816266344570     1.301198682786    15.994914619570
         C           -1.760392243319    -0.402438344570    -0.000315317214    12.000000000000
         C           -3.124078243319     0.263592655430    -0.000129317214    12.000000000000
         H           -1.651004243319    -1.049046344570    -0.881987317214     1.007825032230
         H           -1.648647243319    -1.044343344570     0.884437682786     1.007825032230
         H           -3.925666243319    -0.482665344570     0.003033682786     1.007825032230
         H           -3.238069243319     0.896276655430     0.884468682786     1.007825032230
         H           -3.240826243319     0.891815655430    -0.887531317214     1.007825032230

  Basis Set: AUG-CC-PVTZ
    Blend: AUG-CC-PVTZ
  Basis Set: (AUG-CC-PVTZ AUX)
    Blend: AUG-CC-PVTZ-JKFIT
	 Reference Energy          =    -719.0095392772042260 [Eh]
	 Singles Energy            =      -0.0000000000000000 [Eh]
	 Same-Spin Energy          =      -0.4229537706965384 [Eh]
	 Opposite-Spin Energy      =      -1.2412448187573248 [Eh]
	 Correlation Energy        =      -1.6641985894538633 [Eh]
	 Total Energy              =    -720.6737378666581435 [Eh]

	 ================> DF-SCS-MP2 Energies <==================
	-----------------------------------------------------------
	 SCS Same-Spin Scale       =       0.3333333333333333 [-]
	 SCS Opposite-Spin Scale   =       1.2000000000000000 [-]
	 SCS Same-Spin Energy      =      -0.1409845902321795 [Eh]
	 SCS Opposite-Spin Energy  =      -1.4894937825087897 [Eh]
	 SCS Correlation Energy    =      -1.6304783727409693 [Eh]
	 SCS Total Energy          =    -720.6400176499452073 [Eh]
	-----------------------------------------------------------

  Dipole Moment: [D]
     X:    -8.1696      Y:     0.1305      Z:    -0.0043     Total:     8.1707

*** Psi4 exiting successfully. Buy a developer a beer!
