                               Psi4 1.3.2 release

  ==> Input File <==

--------------------------------------------------------------------------
#psi4
#
memory 32 gb

molecule  {
-2 1
  P        0.9768750    -0.0085140     0.0002390
  O       -0.6411800     0.5927210    -0.0041200
  O        1.8694069     1.4813401    -0.0043019
  O        1.0866210    -0.8364840    -1.2938730
  O        1.0830210    -0.8262340     1.3012490
  C       -1.6429090    -0.4124060    -0.0002650
  C       -3.0065950     0.2536250    -0.0000790
  H       -1.5335210    -1.0590140    -0.8819370
  H       -1.5311640    -1.0543110     0.8844880
  H       -3.8081830    -0.4926330     0.0030840
  H       -3.1205860     0.8863090     0.8845190
  H       -3.1233430     0.8818480    -0.8874810
units angstrom
no_reorient  #important for SAPT in psi4, default
symmetry c1  #important for SAPT in psi4, default
}

set PROPERTIES_ORIGIN ["COM"]
properties('MP2/aug-cc-pvtz', properties = ['dipole'])
--------------------------------------------------------------------------

    Molecular point group: c1
  Charge       = -2
  Multiplicity = 1
  Basis Set: AUG-CC-PVTZ
    Blend: AUG-CC-PVTZ
  Basis Set: (AUG-CC-PVTZ AUX)
    Blend: AUG-CC-PVTZ-JKFIT

    Orbital Energies [Eh]
    ---------------------

    Doubly Occupied:

       1A    -79.687733     2A    -20.223115     3A    -20.120907
       4A    -20.120878     5A    -20.107430     6A    -10.990512
       7A    -10.978872     8A     -7.199192     9A     -5.098654
      10A     -5.096336    11A     -5.095740    12A     -1.028625
      13A     -0.914881    14A     -0.860471    15A     -0.795378
      16A     -0.749616    17A     -0.561699    18A     -0.400565
      19A     -0.370763    20A     -0.310500    21A     -0.289001
      22A     -0.268553    23A     -0.255062    24A     -0.189280
      25A     -0.184428    26A     -0.159610    27A     -0.125478
      28A     -0.090628    29A     -0.076026    30A     -0.060846
      31A     -0.050435    32A     -0.024298    33A     -0.011584

  @DF-RHF Final Energy:  -718.97523539163979

   => Energetics <=

    Nuclear Repulsion Energy =            401.6317893399830155
    One-Electron Energy =               -1816.2198596096980054
    Two-Electron Energy =                 695.6128348780752049
    Total Energy =                       -718.9752353916397851
  Basis Set: (AUG-CC-PVTZ AUX)
    Blend: AUG-CC-PVTZ-RI
    Molecular point group: c1

    Geometry (in Angstrom), charge = -2, multiplicity = 1:

       Center              X                  Y                   Z               Mass
    ------------   -----------------  -----------------  -----------------  -----------------
         P            0.851120405184    -0.037273457401     0.000325782925    30.973761998420
         O           -0.766934594816     0.563961542599    -0.004033217075    15.994914619570
         O            1.743652305184     1.452580642599    -0.004215117075    15.994914619570
         O            0.960866405184    -0.865243457401    -1.293786217075    15.994914619570
         O            0.957266405184    -0.854993457401     1.301335782925    15.994914619570
         C           -1.768663594816    -0.441165457401    -0.000178217075    12.000000000000
         C           -3.132349594816     0.224865542599     0.000007782925    12.000000000000
         H           -1.659275594816    -1.087773457401    -0.881850217075     1.007825032230
         H           -1.656918594816    -1.083070457401     0.884574782925     1.007825032230
         H           -3.933937594816    -0.521392457401     0.003170782925     1.007825032230
         H           -3.246340594816     0.857549542599     0.884605782925     1.007825032230
         H           -3.249097594816     0.853088542599    -0.887394217075     1.007825032230

  Basis Set: AUG-CC-PVTZ
    Blend: AUG-CC-PVTZ
  Basis Set: (AUG-CC-PVTZ AUX)
    Blend: AUG-CC-PVTZ-JKFIT
	 Reference Energy          =    -718.9752353916397851 [Eh]
	 Singles Energy            =      -0.0000000000000000 [Eh]
	 Same-Spin Energy          =      -0.4264070683428100 [Eh]
	 Opposite-Spin Energy      =      -1.2522310207073057 [Eh]
	 Correlation Energy        =      -1.6786380890501158 [Eh]
	 Total Energy              =    -720.6538734806898674 [Eh]

	 ================> DF-SCS-MP2 Energies <==================
	-----------------------------------------------------------
	 SCS Same-Spin Scale       =       0.3333333333333333 [-]
	 SCS Opposite-Spin Scale   =       1.2000000000000000 [-]
	 SCS Same-Spin Energy      =      -0.1421356894476033 [Eh]
	 SCS Opposite-Spin Energy  =      -1.5026772248487668 [Eh]
	 SCS Correlation Energy    =      -1.6448129142963701 [Eh]
	 SCS Total Energy          =    -720.6200483059361659 [Eh]
	-----------------------------------------------------------

  Dipole Moment: [D]
     X:    -9.2016      Y:    -1.4561      Z:     0.0008     Total:     9.3161

*** Psi4 exiting successfully. Buy a developer a beer!
