                               Psi4 1.3.2 release

  ==> Input File <==

--------------------------------------------------------------------------
#psi4
#
memory 32 gb

molecule  {
-2 1
  P        0.9768750    -0.0085140     0.0002390
  O       -0.6411800     0.5927210    -0.0041200
  O        1.8180159     1.3955560    -0.0040405
  O        1.0866210    -0.8364840    -1.2938730
  O        1.0830210    -0.8262340     1.3012490
  C       -1.6429090    -0.4124060    -0.0002650
  C       -3.0065950     0.2536250    -0.0000790
  H       -1.5335210    -1.0590140    -0.8819370
  H       -1.5311640    -1.0543110     0.8844880
  H       -3.8081830    -0.4926330     0.0030840
  H       -3.1205860     0.8863090     0.8845190
  H       -3.1233430     0.8818480    -0.8874810
units angstrom
no_reorient  #important for SAPT in psi4, default
symmetry c1  #important for SAPT in psi4, default
}

set PROPERTIES_ORIGIN ["COM"]
properties('MP2/aug-cc-pvtz', properties = ['dipole'])
--------------------------------------------------------------------------

    Molecular point group: c1
  Charge       = -2
  Multiplicity = 1
  Basis Set: AUG-CC-PVTZ
    Blend: AUG-CC-PVTZ
  Basis Set: (AUG-CC-PVTZ AUX)
    Blend: AUG-CC-PVTZ-JKFIT

    Orbital Energies [Eh]
    ---------------------

    Doubly Occupied:

       1A    -79.674809     2A    -20.217222     3A    -20.112704
       4A    -20.112676     5A    -20.102442     6A    -10.986252
       7A    -10.976135     8A     -7.187353     9A     -5.086919
      10A     -5.084568    11A     -5.084107    12A     -1.023904
      13A     -0.911714    14A     -0.853217    15A     -0.818583
      16A     -0.746543    17A     -0.557787    18A     -0.395115
      19A     -0.367269    20A     -0.306740    21A     -0.284638
      22A     -0.264926    23A     -0.251492    24A     -0.186354
      25A     -0.181601    26A     -0.160412    27A     -0.120718
      28A     -0.084984    29A     -0.075650    30A     -0.071437
      31A     -0.044909    32A     -0.031573    33A     -0.011388

  @DF-RHF Final Energy:  -718.99692812680553

   => Energetics <=

    Nuclear Repulsion Energy =            405.3067421953597886
    One-Electron Energy =               -1823.8550561621098041
    Two-Electron Energy =                 699.5513858399443734
    Total Energy =                       -718.9969281268055283
  Basis Set: (AUG-CC-PVTZ AUX)
    Blend: AUG-CC-PVTZ-RI
    Molecular point group: c1

    Geometry (in Angstrom), charge = -2, multiplicity = 1:

       Center              X                  Y                   Z               Mass
    ------------   -----------------  -----------------  -----------------  -----------------
         P            0.857749792886    -0.026207394130     0.000292062586    30.973761998420
         O           -0.760305207114     0.575027605870    -0.004066937414    15.994914619570
         O            1.698890692886     1.377862605870    -0.003987437414    15.994914619570
         O            0.967495792886    -0.854177394130    -1.293819937414    15.994914619570
         O            0.963895792886    -0.843927394130     1.301302062586    15.994914619570
         C           -1.762034207114    -0.430099394130    -0.000211937414    12.000000000000
         C           -3.125720207114     0.235931605870    -0.000025937414    12.000000000000
         H           -1.652646207114    -1.076707394130    -0.881883937414     1.007825032230
         H           -1.650289207114    -1.072004394130     0.884541062586     1.007825032230
         H           -3.927308207114    -0.510326394130     0.003137062586     1.007825032230
         H           -3.239711207114     0.868615605870     0.884572062586     1.007825032230
         H           -3.242468207114     0.864154605870    -0.887427937414     1.007825032230

  Basis Set: AUG-CC-PVTZ
    Blend: AUG-CC-PVTZ
  Basis Set: (AUG-CC-PVTZ AUX)
    Blend: AUG-CC-PVTZ-JKFIT
	 Reference Energy          =    -718.9969281268055283 [Eh]
	 Singles Energy            =      -0.0000000000000000 [Eh]
	 Same-Spin Energy          =      -0.4249597892007227 [Eh]
	 Opposite-Spin Energy      =      -1.2478829313332933 [Eh]
	 Correlation Energy        =      -1.6728427205340159 [Eh]
	 Total Energy              =    -720.6697708473395778 [Eh]

	 ================> DF-SCS-MP2 Energies <==================
	-----------------------------------------------------------
	 SCS Same-Spin Scale       =       0.3333333333333333 [-]
	 SCS Opposite-Spin Scale   =       1.2000000000000000 [-]
	 SCS Same-Spin Energy      =      -0.1416532630669076 [Eh]
	 SCS Opposite-Spin Energy  =      -1.4974595175999519 [Eh]
	 SCS Correlation Energy    =      -1.6391127806668595 [Eh]
	 SCS Total Energy          =    -720.6360409074724203 [Eh]
	-----------------------------------------------------------

  Dipole Moment: [D]
     X:    -8.7540      Y:    -0.8269      Z:    -0.0012     Total:     8.7929

*** Psi4 exiting successfully. Buy a developer a beer!
