                               Psi4 1.3.2 release

  ==> Input File <==

--------------------------------------------------------------------------
#psi4
#
memory 32 gb

molecule  {
-2 1
  P        0.9768750    -0.0085140     0.0002390
  O       -0.6951574     0.6437700    -0.0041741
  O        1.7666250     1.3097720    -0.0037790
  O        1.0866210    -0.8364840    -1.2938730
  O        1.0830210    -0.8262340     1.3012490
  C       -1.6429090    -0.4124060    -0.0002650
  C       -2.9698689     0.3240818    -0.0003040
  H       -1.5335210    -1.0590140    -0.8819370
  H       -1.5311640    -1.0543110     0.8844880
  H       -3.8081830    -0.4926330     0.0030840
  H       -3.1205860     0.8863090     0.8845190
  H       -3.1233430     0.8818480    -0.8874810
units angstrom
no_reorient  #important for SAPT in psi4, default
symmetry c1  #important for SAPT in psi4, default
}

set PROPERTIES_ORIGIN ["COM"]
properties('MP2/aug-cc-pvtz', properties = ['dipole'])
--------------------------------------------------------------------------

    Molecular point group: c1
  Charge       = -2
  Multiplicity = 1
  Basis Set: AUG-CC-PVTZ
    Blend: AUG-CC-PVTZ
  Basis Set: (AUG-CC-PVTZ AUX)
    Blend: AUG-CC-PVTZ-JKFIT

    Orbital Energies [Eh]
    ---------------------

    Doubly Occupied:

       1A    -79.664582     2A    -20.208677     3A    -20.110538
       4A    -20.110496     5A    -20.100837     6A    -10.977959
       7A    -10.969751     8A     -7.179069     9A     -5.078427
      10A     -5.076105    11A     -5.076069    12A     -1.009273
      13A     -0.919980    14A     -0.850870    15A     -0.845589
      16A     -0.734896    17A     -0.550177    18A     -0.377664
      19A     -0.371124    20A     -0.289704    21A     -0.274630
      22A     -0.266745    23A     -0.235120    24A     -0.187237
      25A     -0.178982    26A     -0.168622    27A     -0.114490
      28A     -0.084310    29A     -0.081731    30A     -0.078767
      31A     -0.045300    32A     -0.043629    33A     -0.014529

  @DF-RHF Final Energy:  -718.99890701394872

   => Energetics <=

    Nuclear Repulsion Energy =            407.7330300365043740
    One-Electron Energy =               -1828.9121170200012330
    Two-Electron Energy =                 702.1801799695480213
    Total Energy =                       -718.9989070139487239
  Basis Set: (AUG-CC-PVTZ AUX)
    Blend: AUG-CC-PVTZ-RI
    Molecular point group: c1

    Geometry (in Angstrom), charge = -2, multiplicity = 1:

       Center              X                  Y                   Z               Mass
    ------------   -----------------  -----------------  -----------------  -----------------
         P            0.867787846026    -0.028545423720     0.000287083695    30.973761998420
         O           -0.804244553974     0.623738576280    -0.004126016305    15.994914619570
         O            1.657537846026     1.289740576280    -0.003730916305    15.994914619570
         O            0.977533846026    -0.856515423720    -1.293824916305    15.994914619570
         O            0.973933846026    -0.846265423720     1.301297083695    15.994914619570
         C           -1.751996153974    -0.432437423720    -0.000216916305    12.000000000000
         C           -3.078956053974     0.304050376280    -0.000255916305    12.000000000000
         H           -1.642608153974    -1.079045423720    -0.881888916305     1.007825032230
         H           -1.640251153974    -1.074342423720     0.884536083695     1.007825032230
         H           -3.917270153974    -0.512664423720     0.003132083695     1.007825032230
         H           -3.229673153974     0.866277576280     0.884567083695     1.007825032230
         H           -3.232430153974     0.861816576280    -0.887432916305     1.007825032230

  Basis Set: AUG-CC-PVTZ
    Blend: AUG-CC-PVTZ
  Basis Set: (AUG-CC-PVTZ AUX)
    Blend: AUG-CC-PVTZ-JKFIT
	 Reference Energy          =    -718.9989070139487239 [Eh]
	 Singles Energy            =      -0.0000000000000000 [Eh]
	 Same-Spin Energy          =      -0.4243759079950333 [Eh]
	 Opposite-Spin Energy      =      -1.2461810422996915 [Eh]
	 Correlation Energy        =      -1.6705569502947248 [Eh]
	 Total Energy              =    -720.6694639642435050 [Eh]

	 ================> DF-SCS-MP2 Energies <==================
	-----------------------------------------------------------
	 SCS Same-Spin Scale       =       0.3333333333333333 [-]
	 SCS Opposite-Spin Scale   =       1.2000000000000000 [-]
	 SCS Same-Spin Energy      =      -0.1414586359983444 [Eh]
	 SCS Opposite-Spin Energy  =      -1.4954172507596297 [Eh]
	 SCS Correlation Energy    =      -1.6368758867579742 [Eh]
	 SCS Total Energy          =    -720.6357829007066584 [Eh]
	-----------------------------------------------------------

  Dipole Moment: [D]
     X:    -7.7260      Y:    -0.1723      Z:    -0.0032     Total:     7.7280

*** Psi4 exiting successfully. Buy a developer a beer!
