                               Psi4 1.3.2 release

  ==> Input File <==

--------------------------------------------------------------------------
#psi4
#
memory 32 gb

molecule  {
0 1
  O        1.2197630    -1.3791890     0.7815710
  O       -2.8529207    -0.0647381    -0.2862731
  O       -1.2573942     1.2314898     0.6327085
  C        1.6098530     0.5514350    -0.6010430
  C        0.7924890    -0.5949300    -0.0578730
  C       -0.6155180    -0.7660970    -0.6108670
  C        2.9660570     0.6794250     0.0724790
  C       -1.5616300     0.2444870    -0.0131750
  H        1.7167540     0.3993790    -1.6843760
  H        1.0152770     1.4637510    -0.4819620
  H       -0.6366420    -0.6467360    -1.7011060
  H       -0.9720840    -1.7722110    -0.3761960
  H        3.5474250    -0.2360290    -0.0491480
  H        3.5302360     1.5116820    -0.3550310
  H        2.8465530     0.8548240     1.1430380
  H       -3.3901630     0.6286630     0.1252190
units angstrom
no_reorient  #important for SAPT in psi4, default
symmetry c1  #important for SAPT in psi4, default
}

set PROPERTIES_ORIGIN ["COM"]
properties('MP2/aug-cc-pvtz', properties = ['dipole'])
--------------------------------------------------------------------------

    Molecular point group: c1
  Charge       = 0
  Multiplicity = 1
  Basis Set: AUG-CC-PVTZ
    Blend: AUG-CC-PVTZ
  Basis Set: (AUG-CC-PVTZ AUX)
    Blend: AUG-CC-PVTZ-JKFIT

    Orbital Energies [Eh]
    ---------------------

    Doubly Occupied:

       1A    -20.630410     2A    -20.569627     3A    -20.557315
       4A    -11.413296     5A    -11.344684     6A    -11.272386
       7A    -11.241708     8A    -11.217427     9A     -1.480517
      10A     -1.389510    11A     -1.375229    12A     -1.085876
      13A     -1.042620    14A     -0.902497    15A     -0.841734
      16A     -0.743002    17A     -0.720260    18A     -0.707554
      19A     -0.681146    20A     -0.648647    21A     -0.632228
      22A     -0.626895    23A     -0.598569    24A     -0.577669
      25A     -0.526452    26A     -0.518783    27A     -0.515500
      28A     -0.502395    29A     -0.490699    30A     -0.469038
      31A     -0.425306

  @DF-RHF Final Energy:  -418.76862656117703

   => Energetics <=

    Nuclear Repulsion Energy =            372.1814037945142104
    One-Electron Energy =               -1310.4021053247563486
    Two-Electron Energy =                 519.4520749690651655
    Total Energy =                       -418.7686265611770295
  Basis Set: (AUG-CC-PVTZ AUX)
    Blend: AUG-CC-PVTZ-RI
    Molecular point group: c1

    Geometry (in Angstrom), charge = 0, multiplicity = 1:

       Center              X                  Y                   Z               Mass
    ------------   -----------------  -----------------  -----------------  -----------------
         O            1.221674666209    -1.380864933210     0.780617846978    15.994914619570
         O           -2.851009033791    -0.066414033210    -0.287226253022    15.994914619570
         O           -1.255482533791     1.229813866790     0.631755346978    15.994914619570
         C            1.611764666209     0.549759066790    -0.601996153022    12.000000000000
         C            0.794400666209    -0.596605933210    -0.058826153022    12.000000000000
         C           -0.613606333791    -0.767772933210    -0.611820153022    12.000000000000
         C            2.967968666209     0.677749066790     0.071525846978    12.000000000000
         C           -1.559718333791     0.242811066790    -0.014128153022    12.000000000000
         H            1.718665666209     0.397703066790    -1.685329153022     1.007825032230
         H            1.017188666209     1.462075066790    -0.482915153022     1.007825032230
         H           -0.634730333791    -0.648411933210    -1.702059153022     1.007825032230
         H           -0.970172333791    -1.773886933210    -0.377149153022     1.007825032230
         H            3.549336666209    -0.237704933210    -0.050101153022     1.007825032230
         H            3.532147666209     1.510006066790    -0.355984153022     1.007825032230
         H            2.848464666209     0.853148066790     1.142084846978     1.007825032230
         H           -3.388251333791     0.626987066790     0.124265846978     1.007825032230

  Basis Set: AUG-CC-PVTZ
    Blend: AUG-CC-PVTZ
  Basis Set: (AUG-CC-PVTZ AUX)
    Blend: AUG-CC-PVTZ-JKFIT
	 Reference Energy          =    -418.7686265611770295 [Eh]
	 Singles Energy            =      -0.0000000000000000 [Eh]
	 Same-Spin Energy          =      -0.4079994936583782 [Eh]
	 Opposite-Spin Energy      =      -1.2860851825106576 [Eh]
	 Correlation Energy        =      -1.6940846761690358 [Eh]
	 Total Energy              =    -420.4627112373460704 [Eh]

	 ================> DF-SCS-MP2 Energies <==================
	-----------------------------------------------------------
	 SCS Same-Spin Scale       =       0.3333333333333333 [-]
	 SCS Opposite-Spin Scale   =       1.2000000000000000 [-]
	 SCS Same-Spin Energy      =      -0.1359998312194594 [Eh]
	 SCS Opposite-Spin Energy  =      -1.5433022190127892 [Eh]
	 SCS Correlation Energy    =      -1.6793020502322487 [Eh]
	 SCS Total Energy          =    -420.4479286114092815 [Eh]
	-----------------------------------------------------------

  Dipole Moment: [D]
     X:    -1.2945      Y:     0.7559      Z:    -2.5710     Total:     2.9761

*** Psi4 exiting successfully. Buy a developer a beer!
