                               Psi4 1.4a3.dev225

  ==> Input File <==

--------------------------------------------------------------------------
#psi4
#
memory 32 gb

molecule  {
0 1
  O        1.1896460     1.3864710    -0.7896670
  O       -2.9164350     0.0620530     0.2465870
  O       -1.2994600    -1.1722570    -0.7513140
  C        1.5277270    -0.5390120     0.6173550
  C        0.7330570     0.6116870     0.0446410
  C       -0.6915030     0.7929470     0.5540020
  C        2.9119880    -0.6669770    -0.0005940
  C       -1.6259000    -0.2196380    -0.0638170
  H        1.5906630    -0.3916430     1.7048170
  H        0.9378800    -1.4511620     0.4690430
  H       -0.7449460     0.6872940     1.6445860
  H       -1.0362610     1.7983420     0.2961770
  H        3.4930330     0.2441750     0.1549910
  H        3.4532110    -1.5066350     0.4428820
  H        2.8367130    -0.8315610    -1.0772290
  H       -3.4415727    -0.6188081    -0.1807381
units angstrom
no_reorient  #important for SAPT in psi4, default
symmetry c1  #important for SAPT in psi4, default
}

set PROPERTIES_ORIGIN ["COM"]
properties('MP2/aug-cc-pvtz', properties = ['dipole'])
--------------------------------------------------------------------------

    Molecular point group: c1
  Charge       = 0
  Multiplicity = 1
  Basis Set: AUG-CC-PVTZ
    Blend: AUG-CC-PVTZ
  Basis Set: (AUG-CC-PVTZ AUX)
    Blend: AUG-CC-PVTZ-JKFIT

    Orbital Energies [Eh]
    ---------------------

    Doubly Occupied:

       1A    -20.631745     2A    -20.571094     3A    -20.556837
       4A    -11.414294     5A    -11.344489     6A    -11.271953
       7A    -11.242295     8A    -11.217760     9A     -1.481619
      10A     -1.388393    11A     -1.377363    12A     -1.084792
      13A     -1.041865    14A     -0.902502    15A     -0.842941
      16A     -0.742417    17A     -0.721514    18A     -0.707412
      19A     -0.680278    20A     -0.649821    21A     -0.632392
      22A     -0.625755    23A     -0.599598    24A     -0.577252
      25A     -0.526114    26A     -0.517899    27A     -0.515603
      28A     -0.503363    29A     -0.490321    30A     -0.469908
      31A     -0.424683

  @DF-RHF Final Energy:  -418.76835999181282

   => Energetics <=

    Nuclear Repulsion Energy =            371.9516708530376263
    One-Electron Energy =               -1309.9315168644870937
    Two-Electron Energy =                 519.2114860196367090
    Total Energy =                       -418.7683599918127584
  Basis Set: (AUG-CC-PVTZ AUX)
    Blend: AUG-CC-PVTZ-RI
    Molecular point group: c1

    Geometry (in Angstrom), charge = 0, multiplicity = 1:

       Center              X                  Y                   Z               Mass
    ------------   -----------------  -----------------  -----------------  -----------------
         O            1.249931538295     1.368540773408    -0.760341754860    15.994914619570
         O           -2.856149461705     0.044122773408     0.275912245140    15.994914619570
         O           -1.239174461705    -1.190187226592    -0.721988754860    15.994914619570
         C            1.588012538295    -0.556942226592     0.646680245140    12.000000000000
         C            0.793342538295     0.593756773408     0.073966245140    12.000000000000
         C           -0.631217461705     0.775016773408     0.583327245140    12.000000000000
         C            2.972273538295    -0.684907226592     0.028731245140    12.000000000000
         C           -1.565614461705    -0.237568226592    -0.034491754860    12.000000000000
         H            1.650948538295    -0.409573226592     1.734142245140     1.007825032230
         H            0.998165538295    -1.469092226592     0.498368245140     1.007825032230
         H           -0.684660461705     0.669363773408     1.673911245140     1.007825032230
         H           -0.975975461705     1.780411773408     0.325502245140     1.007825032230
         H            3.553318538295     0.226244773408     0.184316245140     1.007825032230
         H            3.513496538295    -1.524565226592     0.472207245140     1.007825032230
         H            2.896998538295    -0.849491226592    -1.047903754860     1.007825032230
         H           -3.381287161705    -0.636738326592    -0.151412854860     1.007825032230

  Basis Set: AUG-CC-PVTZ
    Blend: AUG-CC-PVTZ
  Basis Set: (AUG-CC-PVTZ AUX)
    Blend: AUG-CC-PVTZ-JKFIT
	 Reference Energy          =    -418.7683599918128152 [Eh]
	 Singles Energy            =      -0.0000000000000000 [Eh]
	 Same-Spin Energy          =      -0.4079569015338976 [Eh]
	 Opposite-Spin Energy      =      -1.2862153216654142 [Eh]
	 Correlation Energy        =      -1.6941722231993119 [Eh]
	 Total Energy              =    -420.4625322150121178 [Eh]

	 ================> DF-SCS-MP2 Energies <==================
	-----------------------------------------------------------
	 SCS Same-Spin Scale       =       0.3333333333333333 [-]
	 SCS Opposite-Spin Scale   =       1.2000000000000000 [-]
	 SCS Same-Spin Energy      =      -0.1359856338446325 [Eh]
	 SCS Opposite-Spin Energy  =      -1.5434583859984969 [Eh]
	 SCS Correlation Energy    =      -1.6794440198431295 [Eh]
	 SCS Total Energy          =    -420.4478040116559328 [Eh]
	-----------------------------------------------------------

  Dipole Moment: [D]
     X:    -1.4069      Y:    -0.7818      Z:     2.5913     Total:     3.0504

*** Psi4 exiting successfully. Buy a developer a beer!
