                               Psi4 1.3.2 release

  ==> Input File <==

--------------------------------------------------------------------------
#psi4
#
memory 32 gb

molecule  {
0 1
  O        1.2197630    -1.3791890     0.7815710
  O       -2.8493200    -0.0743410    -0.2921690
  O       -1.1860253     1.2122870     0.6241505
  C        1.6098530     0.5514350    -0.6010430
  C        0.7924890    -0.5949300    -0.0578730
  C       -0.5554591    -0.7243573    -0.5811579
  C        2.9660570     0.6794250     0.0724790
  C       -1.5616300     0.2444870    -0.0131750
  H        1.7167540     0.3993790    -1.6843760
  H        1.0152770     1.4637510    -0.4819620
  H       -0.6366420    -0.6467360    -1.7011060
  H       -0.9720840    -1.7722110    -0.3761960
  H        3.5474250    -0.2360290    -0.0491480
  H        3.5302360     1.5116820    -0.3550310
  H        2.8465530     0.8548240     1.1430380
  H       -3.3901630     0.6286630     0.1252190
units angstrom
no_reorient  #important for SAPT in psi4, default
symmetry c1  #important for SAPT in psi4, default
}

set PROPERTIES_ORIGIN ["COM"]
properties('MP2/aug-cc-pvtz', properties = ['dipole'])
--------------------------------------------------------------------------

    Molecular point group: c1
  Charge       = 0
  Multiplicity = 1
  Basis Set: AUG-CC-PVTZ
    Blend: AUG-CC-PVTZ
  Basis Set: (AUG-CC-PVTZ AUX)
    Blend: AUG-CC-PVTZ-JKFIT

    Orbital Energies [Eh]
    ---------------------

    Doubly Occupied:

       1A    -20.640851     2A    -20.569620     3A    -20.555273
       4A    -11.415432     5A    -11.338714     6A    -11.271999
       7A    -11.238221     8A    -11.215228     9A     -1.481069
      10A     -1.389938    11A     -1.380767    12A     -1.089571
      13A     -1.039231    14A     -0.904322    15A     -0.842945
      16A     -0.745287    17A     -0.724173    18A     -0.707922
      19A     -0.679763    20A     -0.651523    21A     -0.633070
      22A     -0.629725    23A     -0.596111    24A     -0.567251
      25A     -0.521014    26A     -0.515495    27A     -0.512352
      28A     -0.502716    29A     -0.490006    30A     -0.464264
      31A     -0.428823

  @DF-RHF Final Energy:  -418.75879046460392

   => Energetics <=

    Nuclear Repulsion Energy =            373.8288796901728119
    One-Electron Energy =               -1313.6899846876569882
    Two-Electron Energy =                 521.1023145328803139
    Total Energy =                       -418.7587904646038623
  Basis Set: (AUG-CC-PVTZ AUX)
    Blend: AUG-CC-PVTZ-RI
    Molecular point group: c1

    Geometry (in Angstrom), charge = 0, multiplicity = 1:

       Center              X                  Y                   Z               Mass
    ------------   -----------------  -----------------  -----------------  -----------------
         O            1.205131080782    -1.381210754894     0.779537940285    15.994914619570
         O           -2.863951919218    -0.076362754894    -0.294202059715    15.994914619570
         O           -1.200657219218     1.210265245106     0.622117440285    15.994914619570
         C            1.595221080782     0.549413245106    -0.603076059715    12.000000000000
         C            0.777857080782    -0.596951754894    -0.059906059715    12.000000000000
         C           -0.570091019218    -0.726379054894    -0.583190959715    12.000000000000
         C            2.951425080782     0.677403245106     0.070445940285    12.000000000000
         C           -1.576261919218     0.242465245106    -0.015208059715    12.000000000000
         H            1.702122080782     0.397357245106    -1.686409059715     1.007825032230
         H            1.000645080782     1.461729245106    -0.483995059715     1.007825032230
         H           -0.651273919218    -0.648757754894    -1.703139059715     1.007825032230
         H           -0.986715919218    -1.774232754894    -0.378229059715     1.007825032230
         H            3.532793080782    -0.238050754894    -0.051181059715     1.007825032230
         H            3.515604080782     1.509660245106    -0.357064059715     1.007825032230
         H            2.831921080782     0.852802245106     1.141004940285     1.007825032230
         H           -3.404794919218     0.626641245106     0.123185940285     1.007825032230

  Basis Set: AUG-CC-PVTZ
    Blend: AUG-CC-PVTZ
  Basis Set: (AUG-CC-PVTZ AUX)
    Blend: AUG-CC-PVTZ-JKFIT
	 Reference Energy          =    -418.7587904646039192 [Eh]
	 Singles Energy            =      -0.0000000000000000 [Eh]
	 Same-Spin Energy          =      -0.4090530821682566 [Eh]
	 Opposite-Spin Energy      =      -1.2877681476532201 [Eh]
	 Correlation Energy        =      -1.6968212298214767 [Eh]
	 Total Energy              =    -420.4556116944253858 [Eh]

	 ================> DF-SCS-MP2 Energies <==================
	-----------------------------------------------------------
	 SCS Same-Spin Scale       =       0.3333333333333333 [-]
	 SCS Opposite-Spin Scale   =       1.2000000000000000 [-]
	 SCS Same-Spin Energy      =      -0.1363510273894188 [Eh]
	 SCS Opposite-Spin Energy  =      -1.5453217771838641 [Eh]
	 SCS Correlation Energy    =      -1.6816728045732829 [Eh]
	 SCS Total Energy          =    -420.4404632691772008 [Eh]
	-----------------------------------------------------------

  Dipole Moment: [D]
     X:    -1.6542      Y:     0.8384      Z:    -2.5506     Total:     3.1535

*** Psi4 exiting successfully. Buy a developer a beer!
