                               Psi4 1.3.2 release

  ==> Input File <==

--------------------------------------------------------------------------
#psi4
#
memory 32 gb

molecule  {
0 1
  O        1.2197630    -1.3791890     0.7815710
  O       -2.8493200    -0.0743410    -0.2921690
  O       -1.2471260     1.2289340     0.6316900
  C        1.6098530     0.5514350    -0.6010430
  C        0.7924890    -0.5949300    -0.0578730
  C       -0.4305413    -0.7436100    -0.5382175
  C        2.9660570     0.6794250     0.0724790
  C       -1.5616300     0.2444870    -0.0131750
  H        1.7167540     0.3993790    -1.6843760
  H        1.0152770     1.4637510    -0.4819620
  H       -0.6366420    -0.6467360    -1.7011060
  H       -0.9720840    -1.7722110    -0.3761960
  H        3.5474250    -0.2360290    -0.0491480
  H        3.5302360     1.5116820    -0.3550310
  H        2.8465530     0.8548240     1.1430380
  H       -3.3901630     0.6286630     0.1252190
units angstrom
no_reorient  #important for SAPT in psi4, default
symmetry c1  #important for SAPT in psi4, default
}

set PROPERTIES_ORIGIN ["COM"]
properties('MP2/aug-cc-pvtz', properties = ['dipole'])
--------------------------------------------------------------------------

    Molecular point group: c1
  Charge       = 0
  Multiplicity = 1
  Basis Set: AUG-CC-PVTZ
    Blend: AUG-CC-PVTZ
  Basis Set: (AUG-CC-PVTZ AUX)
    Blend: AUG-CC-PVTZ-JKFIT

    Orbital Energies [Eh]
    ---------------------

    Doubly Occupied:

       1A    -20.641609     2A    -20.568410     3A    -20.554805
       4A    -11.422243     5A    -11.329222     6A    -11.281327
       7A    -11.239197     8A    -11.215753     9A     -1.482299
      10A     -1.394614    11A     -1.377821    12A     -1.104806
      13A     -1.038458    14A     -0.905056    15A     -0.850155
      16A     -0.754057    17A     -0.722374    18A     -0.704226
      19A     -0.681231    20A     -0.660122    21A     -0.637891
      22A     -0.633417    23A     -0.589093    24A     -0.561884
      25A     -0.520285    26A     -0.513077    27A     -0.510652
      28A     -0.497296    29A     -0.489404    30A     -0.453427
      31A     -0.436418

  @DF-RHF Final Energy:  -418.71726758971414

   => Energetics <=

    Nuclear Repulsion Energy =            374.1583992225198472
    One-Electron Energy =               -1314.2100776505301383
    Two-Electron Energy =                 521.3344108382960940
    Total Energy =                       -418.7172675897141971
  Basis Set: (AUG-CC-PVTZ AUX)
    Blend: AUG-CC-PVTZ-RI
    Molecular point group: c1

    Geometry (in Angstrom), charge = 0, multiplicity = 1:

       Center              X                  Y                   Z               Mass
    ------------   -----------------  -----------------  -----------------  -----------------
         O            1.200635388749    -1.381514380487     0.774058465821    15.994914619570
         O           -2.868447611251    -0.076666380487    -0.299681534179    15.994914619570
         O           -1.266253611251     1.226608619513     0.624177465821    15.994914619570
         C            1.590725388749     0.549109619513    -0.608555534179    12.000000000000
         C            0.773361388749    -0.597255380487    -0.065385534179    12.000000000000
         C           -0.449668911251    -0.745935380487    -0.545730034179    12.000000000000
         C            2.946929388749     0.677099619513     0.064966465821    12.000000000000
         C           -1.580757611251     0.242161619513    -0.020687534179    12.000000000000
         H            1.697626388749     0.397053619513    -1.691888534179     1.007825032230
         H            0.996149388749     1.461425619513    -0.489474534179     1.007825032230
         H           -0.655769611251    -0.649061380487    -1.708618534179     1.007825032230
         H           -0.991211611251    -1.774536380487    -0.383708534179     1.007825032230
         H            3.528297388749    -0.238354380487    -0.056660534179     1.007825032230
         H            3.511108388749     1.509356619513    -0.362543534179     1.007825032230
         H            2.827425388749     0.852498619513     1.135525465821     1.007825032230
         H           -3.409290611251     0.626337619513     0.117706465821     1.007825032230

  Basis Set: AUG-CC-PVTZ
    Blend: AUG-CC-PVTZ
  Basis Set: (AUG-CC-PVTZ AUX)
    Blend: AUG-CC-PVTZ-JKFIT
	 Reference Energy          =    -418.7172675897141403 [Eh]
	 Singles Energy            =      -0.0000000000000000 [Eh]
	 Same-Spin Energy          =      -0.4109795126127822 [Eh]
	 Opposite-Spin Energy      =      -1.2906599764588080 [Eh]
	 Correlation Energy        =      -1.7016394890715902 [Eh]
	 Total Energy              =    -420.4189070787857077 [Eh]

	 ================> DF-SCS-MP2 Energies <==================
	-----------------------------------------------------------
	 SCS Same-Spin Scale       =       0.3333333333333333 [-]
	 SCS Opposite-Spin Scale   =       1.2000000000000000 [-]
	 SCS Same-Spin Energy      =      -0.1369931708709274 [Eh]
	 SCS Opposite-Spin Energy  =      -1.5487919717505696 [Eh]
	 SCS Correlation Energy    =      -1.6857851426214969 [Eh]
	 SCS Total Energy          =    -420.4030527323356523 [Eh]
	-----------------------------------------------------------

  Dipole Moment: [D]
     X:    -1.7043      Y:     0.8186      Z:    -2.5917     Total:     3.2081

*** Psi4 exiting successfully. Buy a developer a beer!
