                               Psi4 1.3.2 release

  ==> Input File <==

--------------------------------------------------------------------------
#psi4
#
memory 32 gb

molecule  {
0 1
  O        1.2197630    -1.3791890     0.7815710
  O       -2.8493200    -0.0743410    -0.2921690
  O       -1.2471260     1.2289340     0.6316900
  C        1.6297909     0.5443469    -0.5853613
  C        0.7924890    -0.5949300    -0.0578730
  C       -0.6188925    -0.7872152    -0.5951001
  C        2.9660570     0.6794250     0.0724790
  C       -1.5616300     0.2444870    -0.0131750
  H        1.7167540     0.3993790    -1.6843760
  H        1.0152770     1.4637510    -0.4819620
  H       -0.6366420    -0.6467360    -1.7011060
  H       -0.9720840    -1.7722110    -0.3761960
  H        3.5474250    -0.2360290    -0.0491480
  H        3.5302360     1.5116820    -0.3550310
  H        2.8465530     0.8548240     1.1430380
  H       -3.3901630     0.6286630     0.1252190
units angstrom
no_reorient  #important for SAPT in psi4, default
symmetry c1  #important for SAPT in psi4, default
}

set PROPERTIES_ORIGIN ["COM"]
properties('MP2/aug-cc-pvtz', properties = ['dipole'])
--------------------------------------------------------------------------

    Molecular point group: c1
  Charge       = 0
  Multiplicity = 1
  Basis Set: AUG-CC-PVTZ
    Blend: AUG-CC-PVTZ
  Basis Set: (AUG-CC-PVTZ AUX)
    Blend: AUG-CC-PVTZ-JKFIT

    Orbital Energies [Eh]
    ---------------------

    Doubly Occupied:

       1A    -20.632822     2A    -20.570601     3A    -20.554908
       4A    -11.413708     5A    -11.343300     6A    -11.272054
       7A    -11.243122     8A    -11.216416     9A     -1.479450
      10A     -1.388545    11A     -1.375982    12A     -1.084104
      13A     -1.045318    14A     -0.901562    15A     -0.839951
      16A     -0.741365    17A     -0.719275    18A     -0.707162
      19A     -0.679317    20A     -0.650954    21A     -0.630969
      22A     -0.626302    23A     -0.598362    24A     -0.577339
      25A     -0.532609    26A     -0.519113    27A     -0.514454
      28A     -0.502144    29A     -0.487978    30A     -0.467151
      31A     -0.424127

  @DF-RHF Final Energy:  -418.76629532285205

   => Energetics <=

    Nuclear Repulsion Energy =            372.2523533944755059
    One-Electron Energy =               -1310.5563713201306655
    Two-Electron Energy =                 519.5377226028031146
    Total Energy =                       -418.7662953228521019
  Basis Set: (AUG-CC-PVTZ AUX)
    Blend: AUG-CC-PVTZ-RI
    Molecular point group: c1

    Geometry (in Angstrom), charge = 0, multiplicity = 1:

       Center              X                  Y                   Z               Mass
    ------------   -----------------  -----------------  -----------------  -----------------
         O            1.218050346544    -1.376272385467     0.778318889045    15.994914619570
         O           -2.851032653456    -0.071424385467    -0.295421110955    15.994914619570
         O           -1.248838653456     1.231850614533     0.628437889045    15.994914619570
         C            1.628078246544     0.547263514533    -0.588613410955    12.000000000000
         C            0.790776346544    -0.592013385467    -0.061125110955    12.000000000000
         C           -0.620605153456    -0.784298585467    -0.598352210955    12.000000000000
         C            2.964344346544     0.682341614533     0.069226889045    12.000000000000
         C           -1.563342653456     0.247403614533    -0.016427110955    12.000000000000
         H            1.715041346544     0.402295614533    -1.687628110955     1.007825032230
         H            1.013564346544     1.466667614533    -0.485214110955     1.007825032230
         H           -0.638354653456    -0.643819385467    -1.704358110955     1.007825032230
         H           -0.973796653456    -1.769294385467    -0.379448110955     1.007825032230
         H            3.545712346544    -0.233112385467    -0.052400110955     1.007825032230
         H            3.528523346544     1.514598614533    -0.358283110955     1.007825032230
         H            2.844840346544     0.857740614533     1.139785889045     1.007825032230
         H           -3.391875653456     0.631579614533     0.121966889045     1.007825032230

  Basis Set: AUG-CC-PVTZ
    Blend: AUG-CC-PVTZ
  Basis Set: (AUG-CC-PVTZ AUX)
    Blend: AUG-CC-PVTZ-JKFIT
	 Reference Energy          =    -418.7662953228520450 [Eh]
	 Singles Energy            =      -0.0000000000000000 [Eh]
	 Same-Spin Energy          =      -0.4083463347221123 [Eh]
	 Opposite-Spin Energy      =      -1.2866390472392453 [Eh]
	 Correlation Energy        =      -1.6949853819613576 [Eh]
	 Total Energy              =    -420.4612807048134187 [Eh]

	 ================> DF-SCS-MP2 Energies <==================
	-----------------------------------------------------------
	 SCS Same-Spin Scale       =       0.3333333333333333 [-]
	 SCS Opposite-Spin Scale   =       1.2000000000000000 [-]
	 SCS Same-Spin Energy      =      -0.1361154449073708 [Eh]
	 SCS Opposite-Spin Energy  =      -1.5439668566870943 [Eh]
	 SCS Correlation Energy    =      -1.6800823015944650 [Eh]
	 SCS Total Energy          =    -420.4463776244464839 [Eh]
	-----------------------------------------------------------

  Dipole Moment: [D]
     X:    -1.3447      Y:     0.7973      Z:    -2.5467     Total:     2.9882

*** Psi4 exiting successfully. Buy a developer a beer!
