                               Psi4 1.3.2 release

  ==> Input File <==

--------------------------------------------------------------------------
#psi4
#
memory 32 gb

molecule  {
0 1
  O        1.2197630    -1.3791890     0.7815710
  O       -2.8493200    -0.0743410    -0.2921690
  O       -1.2471260     1.2289340     0.6316900
  C        1.6098530     0.5514350    -0.6010430
  C        0.7749053    -0.5545394    -0.0281571
  C       -0.6155180    -0.7660970    -0.6108670
  C        2.9660570     0.6794250     0.0724790
  C       -1.5216449     0.2638678     0.0150325
  H        1.7167540     0.3993790    -1.6843760
  H        1.0152770     1.4637510    -0.4819620
  H       -0.6366420    -0.6467360    -1.7011060
  H       -0.9720840    -1.7722110    -0.3761960
  H        3.5474250    -0.2360290    -0.0491480
  H        3.5302360     1.5116820    -0.3550310
  H        2.8465530     0.8548240     1.1430380
  H       -3.3901630     0.6286630     0.1252190
units angstrom
no_reorient  #important for SAPT in psi4, default
symmetry c1  #important for SAPT in psi4, default
}

set PROPERTIES_ORIGIN ["COM"]
properties('MP2/aug-cc-pvtz', properties = ['dipole'])
--------------------------------------------------------------------------

    Molecular point group: c1
  Charge       = 0
  Multiplicity = 1
  Basis Set: AUG-CC-PVTZ
    Blend: AUG-CC-PVTZ
  Basis Set: (AUG-CC-PVTZ AUX)
    Blend: AUG-CC-PVTZ-JKFIT

    Orbital Energies [Eh]
    ---------------------

    Doubly Occupied:

       1A    -20.618175     2A    -20.580962     3A    -20.556753
       4A    -11.410701     5A    -11.345764     6A    -11.272444
       7A    -11.243890     8A    -11.219021     9A     -1.480617
      10A     -1.382844    11A     -1.379960    12A     -1.088319
      13A     -1.044057    14A     -0.901215    15A     -0.827264
      16A     -0.744740    17A     -0.719024    18A     -0.709459
      19A     -0.680208    20A     -0.645363    21A     -0.634485
      22A     -0.623230    23A     -0.606357    24A     -0.573990
      25A     -0.526766    26A     -0.519913    27A     -0.515896
      28A     -0.511353    29A     -0.493792    30A     -0.470670
      31A     -0.425871

  @DF-RHF Final Energy:  -418.76211608614784

   => Energetics <=

    Nuclear Repulsion Energy =            372.7585015967469531
    One-Electron Energy =               -1311.5350281499856919
    Two-Electron Energy =                 520.0144104670907836
    Total Energy =                       -418.7621160861478984
  Basis Set: (AUG-CC-PVTZ AUX)
    Blend: AUG-CC-PVTZ-RI
    Molecular point group: c1

    Geometry (in Angstrom), charge = 0, multiplicity = 1:

       Center              X                  Y                   Z               Mass
    ------------   -----------------  -----------------  -----------------  -----------------
         O            1.217446661897    -1.385369813831     0.775581233975    15.994914619570
         O           -2.851636338103    -0.080521813831    -0.298158766025    15.994914619570
         O           -1.249442338103     1.222753186169     0.625700233975    15.994914619570
         C            1.607536661897     0.545254186169    -0.607032766025    12.000000000000
         C            0.772588961897    -0.560720213831    -0.034146866025    12.000000000000
         C           -0.617834338103    -0.772277813831    -0.616856766025    12.000000000000
         C            2.963740661897     0.673244186169     0.066489233975    12.000000000000
         C           -1.523961238103     0.257686986169     0.009042733975    12.000000000000
         H            1.714437661897     0.393198186169    -1.690365766025     1.007825032230
         H            1.012960661897     1.457570186169    -0.487951766025     1.007825032230
         H           -0.638958338103    -0.652916813831    -1.707095766025     1.007825032230
         H           -0.974400338103    -1.778391813831    -0.382185766025     1.007825032230
         H            3.545108661897    -0.242209813831    -0.055137766025     1.007825032230
         H            3.527919661897     1.505501186169    -0.361020766025     1.007825032230
         H            2.844236661897     0.848643186169     1.137048233975     1.007825032230
         H           -3.392479338103     0.622482186169     0.119229233975     1.007825032230

  Basis Set: AUG-CC-PVTZ
    Blend: AUG-CC-PVTZ
  Basis Set: (AUG-CC-PVTZ AUX)
    Blend: AUG-CC-PVTZ-JKFIT
	 Reference Energy          =    -418.7621160861478415 [Eh]
	 Singles Energy            =      -0.0000000000000000 [Eh]
	 Same-Spin Energy          =      -0.4083367094624532 [Eh]
	 Opposite-Spin Energy      =      -1.2871239274302386 [Eh]
	 Correlation Energy        =      -1.6954606368926917 [Eh]
	 Total Energy              =    -420.4575767230405177 [Eh]

	 ================> DF-SCS-MP2 Energies <==================
	-----------------------------------------------------------
	 SCS Same-Spin Scale       =       0.3333333333333333 [-]
	 SCS Opposite-Spin Scale   =       1.2000000000000000 [-]
	 SCS Same-Spin Energy      =      -0.1361122364874844 [Eh]
	 SCS Opposite-Spin Energy  =      -1.5445487129162863 [Eh]
	 SCS Correlation Energy    =      -1.6806609494037708 [Eh]
	 SCS Total Energy          =    -420.4427770355516145 [Eh]
	-----------------------------------------------------------

  Dipole Moment: [D]
     X:    -0.9640      Y:     1.0099      Z:    -2.4324     Total:     2.8046

*** Psi4 exiting successfully. Buy a developer a beer!
