                               Psi4 1.3.2 release

  ==> Input File <==

--------------------------------------------------------------------------
#psi4
#
memory 32 gb

molecule  {
0 1
  O        1.2197630    -1.3791890     0.7815710
  O       -2.8493200    -0.0743410    -0.2921690
  O       -1.2471260     1.2289340     0.6316900
  C        1.6098530     0.5514350    -0.6010430
  C        0.6841616    -0.7468607     0.0141147
  C       -0.6155180    -0.7660970    -0.6108670
  C        2.9660570     0.6794250     0.0724790
  C       -1.5616300     0.2444870    -0.0131750
  H        1.7167540     0.3993790    -1.6843760
  H        1.0152770     1.4637510    -0.4819620
  H       -0.6366420    -0.6467360    -1.7011060
  H       -0.9720840    -1.7722110    -0.3761960
  H        3.5474250    -0.2360290    -0.0491480
  H        3.5302360     1.5116820    -0.3550310
  H        2.8465530     0.8548240     1.1430380
  H       -3.3901630     0.6286630     0.1252190
units angstrom
no_reorient  #important for SAPT in psi4, default
symmetry c1  #important for SAPT in psi4, default
}

set PROPERTIES_ORIGIN ["COM"]
properties('MP2/aug-cc-pvtz', properties = ['dipole'])
--------------------------------------------------------------------------

    Molecular point group: c1
  Charge       = 0
  Multiplicity = 1
  Basis Set: AUG-CC-PVTZ
    Blend: AUG-CC-PVTZ
  Basis Set: (AUG-CC-PVTZ AUX)
    Blend: AUG-CC-PVTZ-JKFIT

    Orbital Energies [Eh]
    ---------------------

    Doubly Occupied:

       1A    -20.636862     2A    -20.574114     3A    -20.568802
       4A    -11.419385     5A    -11.339005     6A    -11.274422
       7A    -11.224923     8A    -11.206774     9A     -1.483612
      10A     -1.461797    11A     -1.379948    12A     -1.096948
      13A     -1.016995    14A     -0.885897    15A     -0.834718
      16A     -0.750047    17A     -0.726285    18A     -0.714243
      19A     -0.693561    20A     -0.657104    21A     -0.647829
      22A     -0.625087    23A     -0.594751    24A     -0.582921
      25A     -0.553713    26A     -0.529487    27A     -0.507127
      28A     -0.502045    29A     -0.486808    30A     -0.472028
      31A     -0.379934

  @DF-RHF Final Energy:  -418.73389574478932

   => Energetics <=

    Nuclear Repulsion Energy =            372.7719776522185953
    One-Electron Energy =               -1311.3574056869613287
    Two-Electron Energy =                 519.8515322899535249
    Total Energy =                       -418.7338957447892653
  Basis Set: (AUG-CC-PVTZ AUX)
    Blend: AUG-CC-PVTZ-RI
    Molecular point group: c1

    Geometry (in Angstrom), charge = 0, multiplicity = 1:

       Center              X                  Y                   Z               Mass
    ------------   -----------------  -----------------  -----------------  -----------------
         O            1.230964813578    -1.363478531275     0.774126899959    15.994914619570
         O           -2.838118186422    -0.058630531275    -0.299613100041    15.994914619570
         O           -1.235924186422     1.244644468725     0.624245899959    15.994914619570
         C            1.621054813578     0.567145468725    -0.608487100041    12.000000000000
         C            0.695363413578    -0.731150231275     0.006670599959    12.000000000000
         C           -0.604316186422    -0.750386531275    -0.618311100041    12.000000000000
         C            2.977258813578     0.695135468725     0.065034899959    12.000000000000
         C           -1.550428186422     0.260197468725    -0.020619100041    12.000000000000
         H            1.727955813578     0.415089468725    -1.691820100041     1.007825032230
         H            1.026478813578     1.479461468725    -0.489406100041     1.007825032230
         H           -0.625440186422    -0.631025531275    -1.708550100041     1.007825032230
         H           -0.960882186422    -1.756500531275    -0.383640100041     1.007825032230
         H            3.558626813578    -0.220318531275    -0.056592100041     1.007825032230
         H            3.541437813578     1.527392468725    -0.362475100041     1.007825032230
         H            2.857754813578     0.870534468725     1.135593899959     1.007825032230
         H           -3.378961186422     0.644373468725     0.117774899959     1.007825032230

  Basis Set: AUG-CC-PVTZ
    Blend: AUG-CC-PVTZ
  Basis Set: (AUG-CC-PVTZ AUX)
    Blend: AUG-CC-PVTZ-JKFIT
	 Reference Energy          =    -418.7338957447893222 [Eh]
	 Singles Energy            =      -0.0000000000000000 [Eh]
	 Same-Spin Energy          =      -0.4070552607087098 [Eh]
	 Opposite-Spin Energy      =      -1.2841772913362104 [Eh]
	 Correlation Energy        =      -1.6912325520449203 [Eh]
	 Total Energy              =    -420.4251282968342593 [Eh]

	 ================> DF-SCS-MP2 Energies <==================
	-----------------------------------------------------------
	 SCS Same-Spin Scale       =       0.3333333333333333 [-]
	 SCS Opposite-Spin Scale   =       1.2000000000000000 [-]
	 SCS Same-Spin Energy      =      -0.1356850869029033 [Eh]
	 SCS Opposite-Spin Energy  =      -1.5410127496034525 [Eh]
	 SCS Correlation Energy    =      -1.6766978365063556 [Eh]
	 SCS Total Energy          =    -420.4105935812957000 [Eh]
	-----------------------------------------------------------

  Dipole Moment: [D]
     X:    -2.0405      Y:     0.0346      Z:    -2.1483     Total:     2.9632

*** Psi4 exiting successfully. Buy a developer a beer!
