                               Psi4 1.3.2 release

  ==> Input File <==

--------------------------------------------------------------------------
#psi4
#
memory 32 gb

molecule  {
0 1
  O        1.2197630    -1.3791890     0.7815710
  O       -2.8493200    -0.0743410    -0.2921690
  O       -1.2471260     1.2289340     0.6316900
  C        1.5896661     0.5581739    -0.6165592
  C        0.7924890    -0.5949300    -0.0578730
  C       -0.6117146    -0.7449267    -0.6264655
  C        2.9660570     0.6794250     0.0724790
  C       -1.5616300     0.2444870    -0.0131750
  H        1.7167540     0.3993790    -1.6843760
  H        1.0152770     1.4637510    -0.4819620
  H       -0.6366420    -0.6467360    -1.7011060
  H       -0.9720840    -1.7722110    -0.3761960
  H        3.5474250    -0.2360290    -0.0491480
  H        3.5302360     1.5116820    -0.3550310
  H        2.8465530     0.8548240     1.1430380
  H       -3.3901630     0.6286630     0.1252190
units angstrom
no_reorient  #important for SAPT in psi4, default
symmetry c1  #important for SAPT in psi4, default
}

set PROPERTIES_ORIGIN ["COM"]
properties('MP2/aug-cc-pvtz', properties = ['dipole'])
--------------------------------------------------------------------------

    Molecular point group: c1
  Charge       = 0
  Multiplicity = 1
  Basis Set: AUG-CC-PVTZ
    Blend: AUG-CC-PVTZ
  Basis Set: (AUG-CC-PVTZ AUX)
    Blend: AUG-CC-PVTZ-JKFIT

    Orbital Energies [Eh]
    ---------------------

    Doubly Occupied:

       1A    -20.632944     2A    -20.570194     3A    -20.558565
       4A    -11.413222     5A    -11.344931     6A    -11.270675
       7A    -11.239611     8A    -11.217820     9A     -1.479602
      10A     -1.389533    11A     -1.376085    12A     -1.086289
      13A     -1.038845    14A     -0.901757    15A     -0.839613
      16A     -0.744372    17A     -0.720323    18A     -0.708518
      19A     -0.682183    20A     -0.646160    21A     -0.633792
      22A     -0.626649    23A     -0.599288    24A     -0.575629
      25A     -0.523898    26A     -0.518121    27A     -0.511202
      28A     -0.503876    29A     -0.493179    30A     -0.470113
      31A     -0.424871

  @DF-RHF Final Energy:  -418.76618020849128

   => Energetics <=

    Nuclear Repulsion Energy =            372.2565677484820412
    One-Electron Energy =               -1310.5617702495383128
    Two-Electron Energy =                 519.5390222925650505
    Total Energy =                       -418.7661802084912779
  Basis Set: (AUG-CC-PVTZ AUX)
    Blend: AUG-CC-PVTZ-RI
    Molecular point group: c1

    Geometry (in Angstrom), charge = 0, multiplicity = 1:

       Center              X                  Y                   Z               Mass
    ------------   -----------------  -----------------  -----------------  -----------------
         O            1.221457256052    -1.382075068890     0.784788314138    15.994914619570
         O           -2.847625743948    -0.077227068890    -0.288951685862    15.994914619570
         O           -1.245431743948     1.226047931110     0.634907314138    15.994914619570
         C            1.591360356052     0.555287831110    -0.613341885862    12.000000000000
         C            0.794183256052    -0.597816068890    -0.054655685862    12.000000000000
         C           -0.610020343948    -0.747812768890    -0.623248185862    12.000000000000
         C            2.967751256052     0.676538931110     0.075696314138    12.000000000000
         C           -1.559935743948     0.241600931110    -0.009957685862    12.000000000000
         H            1.718448256052     0.396492931110    -1.681158685862     1.007825032230
         H            1.016971256052     1.460864931110    -0.478744685862     1.007825032230
         H           -0.634947743948    -0.649622068890    -1.697888685862     1.007825032230
         H           -0.970389743948    -1.775097068890    -0.372978685862     1.007825032230
         H            3.549119256052    -0.238915068890    -0.045930685862     1.007825032230
         H            3.531930256052     1.508795931110    -0.351813685862     1.007825032230
         H            2.848247256052     0.851937931110     1.146255314138     1.007825032230
         H           -3.388468743948     0.625776931110     0.128436314138     1.007825032230

  Basis Set: AUG-CC-PVTZ
    Blend: AUG-CC-PVTZ
  Basis Set: (AUG-CC-PVTZ AUX)
    Blend: AUG-CC-PVTZ-JKFIT
	 Reference Energy          =    -418.7661802084912779 [Eh]
	 Singles Energy            =      -0.0000000000000000 [Eh]
	 Same-Spin Energy          =      -0.4082158513442387 [Eh]
	 Opposite-Spin Energy      =      -1.2867428139032626 [Eh]
	 Correlation Energy        =      -1.6949586652475013 [Eh]
	 Total Energy              =    -420.4611388737387756 [Eh]

	 ================> DF-SCS-MP2 Energies <==================
	-----------------------------------------------------------
	 SCS Same-Spin Scale       =       0.3333333333333333 [-]
	 SCS Opposite-Spin Scale   =       1.2000000000000000 [-]
	 SCS Same-Spin Energy      =      -0.1360719504480795 [Eh]
	 SCS Opposite-Spin Energy  =      -1.5440913766839151 [Eh]
	 SCS Correlation Energy    =      -1.6801633271319947 [Eh]
	 SCS Total Energy          =    -420.4463435356232708 [Eh]
	-----------------------------------------------------------

  Dipole Moment: [D]
     X:    -1.3524      Y:     0.7685      Z:    -2.5665     Total:     3.0011

*** Psi4 exiting successfully. Buy a developer a beer!
