                               Psi4 1.3.2 release

  ==> Input File <==

--------------------------------------------------------------------------
#psi4
#
memory 32 gb

molecule  {
0 1
  O        1.2197630    -1.3791890     0.7815710
  O       -2.8493200    -0.0743410    -0.2921690
  O       -1.2471260     1.2289340     0.6316900
  C        1.6098530     0.5514350    -0.6010430
  C        0.8156420    -0.6558914    -0.1036985
  C       -0.6155180    -0.7660970    -0.6108670
  C        2.9660570     0.6794250     0.0724790
  C       -1.6194315     0.2131150    -0.0568407
  H        1.7167540     0.3993790    -1.6843760
  H        1.0152770     1.4637510    -0.4819620
  H       -0.6366420    -0.6467360    -1.7011060
  H       -0.9720840    -1.7722110    -0.3761960
  H        3.5474250    -0.2360290    -0.0491480
  H        3.5302360     1.5116820    -0.3550310
  H        2.8465530     0.8548240     1.1430380
  H       -3.3901630     0.6286630     0.1252190
units angstrom
no_reorient  #important for SAPT in psi4, default
symmetry c1  #important for SAPT in psi4, default
}

set PROPERTIES_ORIGIN ["COM"]
properties('MP2/aug-cc-pvtz', properties = ['dipole'])
--------------------------------------------------------------------------

    Molecular point group: c1
  Charge       = 0
  Multiplicity = 1
  Basis Set: AUG-CC-PVTZ
    Blend: AUG-CC-PVTZ
  Basis Set: (AUG-CC-PVTZ AUX)
    Blend: AUG-CC-PVTZ-JKFIT

    Orbital Energies [Eh]
    ---------------------

    Doubly Occupied:

       1A    -20.653630     2A    -20.558224     3A    -20.553945
       4A    -11.417509     5A    -11.343293     6A    -11.271196
       7A    -11.238049     8A    -11.214366     9A     -1.509314
      10A     -1.397317    11A     -1.341571    12A     -1.081289
      13A     -1.039102    14A     -0.907356    15A     -0.856806
      16A     -0.748330    17A     -0.725127    18A     -0.705771
      19A     -0.687098    20A     -0.654722    21A     -0.632232
      22A     -0.626338    23A     -0.583336    24A     -0.578746
      25A     -0.525035    26A     -0.518358    27A     -0.511830
      28A     -0.493457    29A     -0.474207    30A     -0.459587
      31A     -0.421273

  @DF-RHF Final Energy:  -418.75374395836792

   => Energetics <=

    Nuclear Repulsion Energy =            371.4961555659957071
    One-Electron Energy =               -1309.0429676214478150
    Two-Electron Energy =                 518.7930680970841877
    Total Energy =                       -418.7537439583679770
  Basis Set: (AUG-CC-PVTZ AUX)
    Blend: AUG-CC-PVTZ-RI
    Molecular point group: c1

    Geometry (in Angstrom), charge = 0, multiplicity = 1:

       Center              X                  Y                   Z               Mass
    ------------   -----------------  -----------------  -----------------  -----------------
         O            1.223345967954    -1.369641253959     0.790824798689    15.994914619570
         O           -2.845737032046    -0.064793253959    -0.282915201311    15.994914619570
         O           -1.243543032046     1.238481746041     0.640943798689    15.994914619570
         C            1.613435967954     0.560982746041    -0.591789201311    12.000000000000
         C            0.819224967954    -0.646343653959    -0.094444701311    12.000000000000
         C           -0.611935032046    -0.756549253959    -0.601613201311    12.000000000000
         C            2.969639967954     0.688972746041     0.081732798689    12.000000000000
         C           -1.615848532046     0.222662746041    -0.047586901311    12.000000000000
         H            1.720336967954     0.408926746041    -1.675122201311     1.007825032230
         H            1.018859967954     1.473298746041    -0.472708201311     1.007825032230
         H           -0.633059032046    -0.637188253959    -1.691852201311     1.007825032230
         H           -0.968501032046    -1.762663253959    -0.366942201311     1.007825032230
         H            3.551007967954    -0.226481253959    -0.039894201311     1.007825032230
         H            3.533818967954     1.521229746041    -0.345777201311     1.007825032230
         H            2.850135967954     0.864371746041     1.152291798689     1.007825032230
         H           -3.386580032046     0.638210746041     0.134472798689     1.007825032230

  Basis Set: AUG-CC-PVTZ
    Blend: AUG-CC-PVTZ
  Basis Set: (AUG-CC-PVTZ AUX)
    Blend: AUG-CC-PVTZ-JKFIT
	 Reference Energy          =    -418.7537439583679202 [Eh]
	 Singles Energy            =      -0.0000000000000000 [Eh]
	 Same-Spin Energy          =      -0.4087960277613567 [Eh]
	 Opposite-Spin Energy      =      -1.2874793374510920 [Eh]
	 Correlation Energy        =      -1.6962753652124487 [Eh]
	 Total Energy              =    -420.4500193235803636 [Eh]

	 ================> DF-SCS-MP2 Energies <==================
	-----------------------------------------------------------
	 SCS Same-Spin Scale       =       0.3333333333333333 [-]
	 SCS Opposite-Spin Scale   =       1.2000000000000000 [-]
	 SCS Same-Spin Energy      =      -0.1362653425871189 [Eh]
	 SCS Opposite-Spin Energy  =      -1.5449752049413104 [Eh]
	 SCS Correlation Energy    =      -1.6812405475284293 [Eh]
	 SCS Total Energy          =    -420.4349845058963524 [Eh]
	-----------------------------------------------------------

  Dipole Moment: [D]
     X:    -1.8812      Y:     0.4130      Z:    -2.7376     Total:     3.3472

*** Psi4 exiting successfully. Buy a developer a beer!
