                               Psi4 1.4a3.dev225

  ==> Input File <==

--------------------------------------------------------------------------
#psi4
#
memory 32 gb

molecule  {
0 1
  O        1.1896460     1.3864710    -0.7896670
  O       -2.9164350     0.0620530     0.2465870
  O       -1.2994600    -1.1722570    -0.7513140
  C        1.5277270    -0.5390120     0.6173550
  C        0.7330570     0.6116870     0.0446410
  C       -0.6915030     0.7929470     0.5540020
  C        2.9119880    -0.6669770    -0.0005940
  C       -1.6259000    -0.2196380    -0.0638170
  H        1.5906630    -0.3916430     1.7048170
  H        0.9378800    -1.4511620     0.4690430
  H       -0.7439716     0.6892202     1.6247028
  H       -1.0362610     1.7983420     0.2961770
  H        3.4930330     0.2441750     0.1549910
  H        3.4532110    -1.5066350     0.4428820
  H        2.8367130    -0.8315610    -1.0772290
  H       -3.4525110    -0.6329900    -0.1896390
units angstrom
no_reorient  #important for SAPT in psi4, default
symmetry c1  #important for SAPT in psi4, default
}

set PROPERTIES_ORIGIN ["COM"]
properties('MP2/aug-cc-pvtz', properties = ['dipole'])
--------------------------------------------------------------------------

    Molecular point group: c1
  Charge       = 0
  Multiplicity = 1
  Basis Set: AUG-CC-PVTZ
    Blend: AUG-CC-PVTZ
  Basis Set: (AUG-CC-PVTZ AUX)
    Blend: AUG-CC-PVTZ-JKFIT

    Orbital Energies [Eh]
    ---------------------

    Doubly Occupied:

       1A    -20.633034     2A    -20.570622     3A    -20.556596
       4A    -11.413784     5A    -11.344246     6A    -11.269598
       7A    -11.242236     8A    -11.217711     9A     -1.478619
      10A     -1.388023    11A     -1.375485    12A     -1.085374
      13A     -1.042016    14A     -0.901440    15A     -0.840379
      16A     -0.742746    17A     -0.719372    18A     -0.707590
      19A     -0.681514    20A     -0.649350    21A     -0.631947
      22A     -0.625386    23A     -0.598659    24A     -0.578338
      25A     -0.526176    26A     -0.517848    27A     -0.515503
      28A     -0.502963    29A     -0.490088    30A     -0.469599
      31A     -0.424474

  @DF-RHF Final Energy:  -418.76754933075256

   => Energetics <=

    Nuclear Repulsion Energy =            371.9309750196729283
    One-Electron Energy =               -1309.9156148927827417
    Two-Electron Energy =                 519.2170905423572549
    Total Energy =                       -418.7675493307525585
  Basis Set: (AUG-CC-PVTZ AUX)
    Blend: AUG-CC-PVTZ-RI
    Molecular point group: c1

    Geometry (in Angstrom), charge = 0, multiplicity = 1:

       Center              X                  Y                   Z               Mass
    ------------   -----------------  -----------------  -----------------  -----------------
         O            1.250018070804     1.368647209289    -0.760091776398    15.994914619570
         O           -2.856062929196     0.044229209289     0.276162223602    15.994914619570
         O           -1.239087929196    -1.190080790711    -0.721738776398    15.994914619570
         C            1.588099070804    -0.556835790711     0.646930223602    12.000000000000
         C            0.793429070804     0.593863209289     0.074216223602    12.000000000000
         C           -0.631130929196     0.775123209289     0.583577223602    12.000000000000
         C            2.972360070804    -0.684800790711     0.028981223602    12.000000000000
         C           -1.565527929196    -0.237461790711    -0.034241776398    12.000000000000
         H            1.651035070804    -0.409466790711     1.734392223602     1.007825032230
         H            0.998252070804    -1.468985790711     0.498618223602     1.007825032230
         H           -0.683599529196     0.671396409289     1.654278023602     1.007825032230
         H           -0.975888929196     1.780518209289     0.325752223602     1.007825032230
         H            3.553405070804     0.226351209289     0.184566223602     1.007825032230
         H            3.513583070804    -1.524458790711     0.472457223602     1.007825032230
         H            2.897085070804    -0.849384790711    -1.047653776398     1.007825032230
         H           -3.392138929196    -0.650813790711    -0.160063776398     1.007825032230

  Basis Set: AUG-CC-PVTZ
    Blend: AUG-CC-PVTZ
  Basis Set: (AUG-CC-PVTZ AUX)
    Blend: AUG-CC-PVTZ-JKFIT
	 Reference Energy          =    -418.7675493307525585 [Eh]
	 Singles Energy            =      -0.0000000000000000 [Eh]
	 Same-Spin Energy          =      -0.4081951785788658 [Eh]
	 Opposite-Spin Energy      =      -1.2866709240824759 [Eh]
	 Correlation Energy        =      -1.6948661026613416 [Eh]
	 Total Energy              =    -420.4624154334139234 [Eh]

	 ================> DF-SCS-MP2 Energies <==================
	-----------------------------------------------------------
	 SCS Same-Spin Scale       =       0.3333333333333333 [-]
	 SCS Opposite-Spin Scale   =       1.2000000000000000 [-]
	 SCS Same-Spin Energy      =      -0.1360650595262886 [Eh]
	 SCS Opposite-Spin Energy  =      -1.5440051088989710 [Eh]
	 SCS Correlation Energy    =      -1.6800701684252597 [Eh]
	 SCS Total Energy          =    -420.4476194991777902 [Eh]
	-----------------------------------------------------------

  Dipole Moment: [D]
     X:    -1.4277      Y:    -0.7961      Z:     2.5838     Total:     3.0575

*** Psi4 exiting successfully. Buy a developer a beer!
