                               Psi4 1.3.2 release

  ==> Input File <==

--------------------------------------------------------------------------
#psi4
#
memory 32 gb

molecule  {
0 1
  O        1.2197630    -1.3791890     0.7815710
  O       -2.8493200    -0.0743410    -0.2921690
  O       -1.2471260     1.2289340     0.6316900
  C        1.6098530     0.5514350    -0.6010430
  C        0.7924890    -0.5949300    -0.0578730
  C       -0.6155180    -0.7660970    -0.6108670
  C        2.9660570     0.6794250     0.0724790
  C       -1.5616300     0.2444870    -0.0131750
  H        1.7167540     0.3993790    -1.6843760
  H        1.0152770     1.4637510    -0.4819620
  H       -0.6327906    -0.6684982    -1.5023308
  H       -0.9720840    -1.7722110    -0.3761960
  H        3.5474250    -0.2360290    -0.0491480
  H        3.5302360     1.5116820    -0.3550310
  H        2.8465530     0.8548240     1.1430380
  H       -3.3901630     0.6286630     0.1252190
units angstrom
no_reorient  #important for SAPT in psi4, default
symmetry c1  #important for SAPT in psi4, default
}

set PROPERTIES_ORIGIN ["COM"]
properties('MP2/aug-cc-pvtz', properties = ['dipole'])
--------------------------------------------------------------------------

    Molecular point group: c1
  Charge       = 0
  Multiplicity = 1
  Basis Set: AUG-CC-PVTZ
    Blend: AUG-CC-PVTZ
  Basis Set: (AUG-CC-PVTZ AUX)
    Blend: AUG-CC-PVTZ-JKFIT

    Orbital Energies [Eh]
    ---------------------

    Doubly Occupied:

       1A    -20.633381     2A    -20.570226     3A    -20.555693
       4A    -11.412770     5A    -11.342956     6A    -11.248250
       7A    -11.241620     8A    -11.217365     9A     -1.479793
      10A     -1.388153    11A     -1.375987    12A     -1.099791
      13A     -1.047762    14A     -0.901836    15A     -0.845061
      16A     -0.753893    17A     -0.719807    18A     -0.717835
      19A     -0.692176    20A     -0.648559    21A     -0.632404
      22A     -0.626031    23A     -0.602037    24A     -0.587936
      25A     -0.527688    26A     -0.519130    27A     -0.515263
      28A     -0.503211    29A     -0.491238    30A     -0.468970
      31A     -0.424096

  @DF-RHF Final Energy:  -418.73479575472487

   => Energetics <=

    Nuclear Repulsion Energy =            373.3830165965330252
    One-Electron Energy =               -1312.6537840490316285
    Two-Electron Energy =                 520.5359716977736753
    Total Energy =                       -418.7347957547249280
  Basis Set: (AUG-CC-PVTZ AUX)
    Blend: AUG-CC-PVTZ-RI
    Molecular point group: c1

    Geometry (in Angstrom), charge = 0, multiplicity = 1:

       Center              X                  Y                   Z               Mass
    ------------   -----------------  -----------------  -----------------  -----------------
         O            1.219729654797    -1.379000092098     0.779844581675    15.994914619570
         O           -2.849353345203    -0.074152092098    -0.293895418325    15.994914619570
         O           -1.247159345203     1.229122907902     0.629963581675    15.994914619570
         C            1.609819654797     0.551623907902    -0.602769418325    12.000000000000
         C            0.792455654797    -0.594741092098    -0.059599418325    12.000000000000
         C           -0.615551345203    -0.765908092098    -0.612593418325    12.000000000000
         C            2.966023654797     0.679613907902     0.070752581675    12.000000000000
         C           -1.561663345203     0.244675907902    -0.014901418325    12.000000000000
         H            1.716720654797     0.399567907902    -1.686102418325     1.007825032230
         H            1.015243654797     1.463939907902    -0.483688418325     1.007825032230
         H           -0.632823945203    -0.668309292098    -1.504057218325     1.007825032230
         H           -0.972117345203    -1.772022092098    -0.377922418325     1.007825032230
         H            3.547391654797    -0.235840092098    -0.050874418325     1.007825032230
         H            3.530202654797     1.511870907902    -0.356757418325     1.007825032230
         H            2.846519654797     0.855012907902     1.141311581675     1.007825032230
         H           -3.390196345203     0.628851907902     0.123492581675     1.007825032230

  Basis Set: AUG-CC-PVTZ
    Blend: AUG-CC-PVTZ
  Basis Set: (AUG-CC-PVTZ AUX)
    Blend: AUG-CC-PVTZ-JKFIT
	 Reference Energy          =    -418.7347957547248711 [Eh]
	 Singles Energy            =      -0.0000000000000000 [Eh]
	 Same-Spin Energy          =      -0.4081985218716223 [Eh]
	 Opposite-Spin Energy      =      -1.2860390617707869 [Eh]
	 Correlation Energy        =      -1.6942375836424093 [Eh]
	 Total Energy              =    -420.4290333383672760 [Eh]

	 ================> DF-SCS-MP2 Energies <==================
	-----------------------------------------------------------
	 SCS Same-Spin Scale       =       0.3333333333333333 [-]
	 SCS Opposite-Spin Scale   =       1.2000000000000000 [-]
	 SCS Same-Spin Energy      =      -0.1360661739572074 [Eh]
	 SCS Opposite-Spin Energy  =      -1.5432468741249441 [Eh]
	 SCS Correlation Energy    =      -1.6793130480821516 [Eh]
	 SCS Total Energy          =    -420.4141088028070499 [Eh]
	-----------------------------------------------------------

  Dipole Moment: [D]
     X:    -1.3569      Y:     0.7893      Z:    -2.5487     Total:     2.9933

*** Psi4 exiting successfully. Buy a developer a beer!
