                               Psi4 1.3.2 release

  ==> Input File <==

--------------------------------------------------------------------------
#psi4
#
memory 32 gb

molecule  {
0 1
  O        1.2197630    -1.3791890     0.7815710
  O       -2.8493200    -0.0743410    -0.2921690
  O       -1.2471260     1.2289340     0.6316900
  C        1.6098530     0.5514350    -0.6010430
  C        0.7924890    -0.5949300    -0.0578730
  C       -0.6155180    -0.7660970    -0.6108670
  C        2.9660570     0.6794250     0.0724790
  C       -1.5492624     0.2263941     0.0346766
  H        1.7167540     0.3993790    -1.6843760
  H        1.0152770     1.4637510    -0.4819620
  H       -0.6111331    -0.6751395    -1.7040375
  H       -0.9720840    -1.7722110    -0.3761960
  H        3.5474250    -0.2360290    -0.0491480
  H        3.5302360     1.5116820    -0.3550310
  H        2.8465530     0.8548240     1.1430380
  H       -3.3901630     0.6286630     0.1252190
units angstrom
no_reorient  #important for SAPT in psi4, default
symmetry c1  #important for SAPT in psi4, default
}

set PROPERTIES_ORIGIN ["COM"]
properties('MP2/aug-cc-pvtz', properties = ['dipole'])
--------------------------------------------------------------------------

    Molecular point group: c1
  Charge       = 0
  Multiplicity = 1
  Basis Set: AUG-CC-PVTZ
    Blend: AUG-CC-PVTZ
  Basis Set: (AUG-CC-PVTZ AUX)
    Blend: AUG-CC-PVTZ-JKFIT

    Orbital Energies [Eh]
    ---------------------

    Doubly Occupied:

       1A    -20.627803     2A    -20.574549     3A    -20.556642
       4A    -11.413520     5A    -11.343636     6A    -11.271254
       7A    -11.241824     8A    -11.217578     9A     -1.476667
      10A     -1.389083    11A     -1.379304    12A     -1.085327
      13A     -1.042084    14A     -0.900774    15A     -0.835737
      16A     -0.742316    17A     -0.719268    18A     -0.708609
      19A     -0.679031    20A     -0.646851    21A     -0.632787
      22A     -0.625642    23A     -0.602565    24A     -0.574578
      25A     -0.525955    26A     -0.519423    27A     -0.515636
      28A     -0.505826    29A     -0.492732    30A     -0.470511
      31A     -0.424010

  @DF-RHF Final Energy:  -418.76611753172136

   => Energetics <=

    Nuclear Repulsion Energy =            372.3169030183125869
    One-Electron Energy =               -1310.6829988280571797
    Two-Electron Energy =                 519.5999782780231726
    Total Energy =                       -418.7661175317214202
  Basis Set: (AUG-CC-PVTZ AUX)
    Blend: AUG-CC-PVTZ-RI
    Molecular point group: c1

    Geometry (in Angstrom), charge = 0, multiplicity = 1:

       Center              X                  Y                   Z               Mass
    ------------   -----------------  -----------------  -----------------  -----------------
         O            1.218262683089    -1.377071499332     0.776648178161    15.994914619570
         O           -2.850820316911    -0.072223499332    -0.297091821839    15.994914619570
         O           -1.248626316911     1.231051500668     0.626767178161    15.994914619570
         C            1.608352683089     0.553552500668    -0.605965821839    12.000000000000
         C            0.790988683089    -0.592812499332    -0.062795821839    12.000000000000
         C           -0.617018316911    -0.763979499332    -0.615789821839    12.000000000000
         C            2.964556683089     0.681542500668     0.067556178161    12.000000000000
         C           -1.550762716911     0.228511600668     0.029753778161    12.000000000000
         H            1.715253683089     0.401496500668    -1.689298821839     1.007825032230
         H            1.013776683089     1.465868500668    -0.486884821839     1.007825032230
         H           -0.612633416911    -0.673021999332    -1.708960321839     1.007825032230
         H           -0.973584316911    -1.770093499332    -0.381118821839     1.007825032230
         H            3.545924683089    -0.233911499332    -0.054070821839     1.007825032230
         H            3.528735683089     1.513799500668    -0.359953821839     1.007825032230
         H            2.845052683089     0.856941500668     1.138115178161     1.007825032230
         H           -3.391663316911     0.630780500668     0.120296178161     1.007825032230

  Basis Set: AUG-CC-PVTZ
    Blend: AUG-CC-PVTZ
  Basis Set: (AUG-CC-PVTZ AUX)
    Blend: AUG-CC-PVTZ-JKFIT
	 Reference Energy          =    -418.7661175317213633 [Eh]
	 Singles Energy            =      -0.0000000000000000 [Eh]
	 Same-Spin Energy          =      -0.4081650069558035 [Eh]
	 Opposite-Spin Energy      =      -1.2867068301432409 [Eh]
	 Correlation Energy        =      -1.6948718370990443 [Eh]
	 Total Energy              =    -420.4609893688204352 [Eh]

	 ================> DF-SCS-MP2 Energies <==================
	-----------------------------------------------------------
	 SCS Same-Spin Scale       =       0.3333333333333333 [-]
	 SCS Opposite-Spin Scale   =       1.2000000000000000 [-]
	 SCS Same-Spin Energy      =      -0.1360550023186012 [Eh]
	 SCS Opposite-Spin Energy  =      -1.5440481961718890 [Eh]
	 SCS Correlation Energy    =      -1.6801031984904902 [Eh]
	 SCS Total Energy          =    -420.4462207302118486 [Eh]
	-----------------------------------------------------------

  Dipole Moment: [D]
     X:    -1.2098      Y:     0.8146      Z:    -2.4672     Total:     2.8660

*** Psi4 exiting successfully. Buy a developer a beer!
