                               Psi4 1.3.2 release

  ==> Input File <==

--------------------------------------------------------------------------
#psi4
#
memory 32 gb

molecule  {
0 1
  O        1.2197630    -1.3791890     0.7815710
  O       -2.8493200    -0.0743410    -0.2921690
  O       -1.2471260     1.2289340     0.6316900
  C        1.6098530     0.5514350    -0.6010430
  C        0.7878689    -0.5970788    -0.0456039
  C       -0.6155180    -0.7660970    -0.6108670
  C        2.9660570     0.6794250     0.0724790
  C       -1.5616300     0.2444870    -0.0131750
  H        1.7167540     0.3993790    -1.6843760
  H        1.0152770     1.4637510    -0.4819620
  H       -0.6460847    -0.6483078    -1.7010531
  H       -0.9720840    -1.7722110    -0.3761960
  H        3.5474250    -0.2360290    -0.0491480
  H        3.5302360     1.5116820    -0.3550310
  H        2.8465530     0.8548240     1.1430380
  H       -3.3901630     0.6286630     0.1252190
units angstrom
no_reorient  #important for SAPT in psi4, default
symmetry c1  #important for SAPT in psi4, default
}

set PROPERTIES_ORIGIN ["COM"]
properties('MP2/aug-cc-pvtz', properties = ['dipole'])
--------------------------------------------------------------------------

    Molecular point group: c1
  Charge       = 0
  Multiplicity = 1
  Basis Set: AUG-CC-PVTZ
    Blend: AUG-CC-PVTZ
  Basis Set: (AUG-CC-PVTZ AUX)
    Blend: AUG-CC-PVTZ-JKFIT

    Orbital Energies [Eh]
    ---------------------

    Doubly Occupied:

       1A    -20.632729     2A    -20.570312     3A    -20.557468
       4A    -11.413181     5A    -11.343489     6A    -11.270911
       7A    -11.240714     8A    -11.216663     9A     -1.479430
      10A     -1.394406    11A     -1.376139    12A     -1.084160
      13A     -1.041058    14A     -0.900160    15A     -0.839184
      16A     -0.743047    17A     -0.719817    18A     -0.707429
      19A     -0.681366    20A     -0.648307    21A     -0.632093
      22A     -0.627406    23A     -0.598377    24A     -0.577468
      25A     -0.525984    26A     -0.519436    27A     -0.515627
      28A     -0.503272    29A     -0.491196    30A     -0.469301
      31A     -0.423276

  @DF-RHF Final Energy:  -418.76851372940888

   => Energetics <=

    Nuclear Repulsion Energy =            372.3171277325295137
    One-Electron Energy =               -1310.6844742252987999
    Two-Electron Energy =                 519.5988327633604058
    Total Energy =                       -418.7685137294088236
  Basis Set: (AUG-CC-PVTZ AUX)
    Blend: AUG-CC-PVTZ-RI
    Molecular point group: c1

    Geometry (in Angstrom), charge = 0, multiplicity = 1:

       Center              X                  Y                   Z               Mass
    ------------   -----------------  -----------------  -----------------  -----------------
         O            1.220322855161    -1.378953238725     0.780301706384    15.994914619570
         O           -2.848760144839    -0.074105238725    -0.293438293616    15.994914619570
         O           -1.246566144839     1.229169761275     0.630420706384    15.994914619570
         C            1.610412855161     0.551670761275    -0.602312293616    12.000000000000
         C            0.788428755161    -0.596843038725    -0.046873193616    12.000000000000
         C           -0.614958144839    -0.765861238725    -0.612136293616    12.000000000000
         C            2.966616855161     0.679660761275     0.071209706384    12.000000000000
         C           -1.561070144839     0.244722761275    -0.014444293616    12.000000000000
         H            1.717313855161     0.399614761275    -1.685645293616     1.007825032230
         H            1.015836855161     1.463986761275    -0.483231293616     1.007825032230
         H           -0.645524844839    -0.648072038725    -1.702322393616     1.007825032230
         H           -0.971524144839    -1.771975238725    -0.377465293616     1.007825032230
         H            3.547984855161    -0.235793238725    -0.050417293616     1.007825032230
         H            3.530795855161     1.511917761275    -0.356300293616     1.007825032230
         H            2.847112855161     0.855059761275     1.141768706384     1.007825032230
         H           -3.389603144839     0.628898761275     0.123949706384     1.007825032230

  Basis Set: AUG-CC-PVTZ
    Blend: AUG-CC-PVTZ
  Basis Set: (AUG-CC-PVTZ AUX)
    Blend: AUG-CC-PVTZ-JKFIT
	 Reference Energy          =    -418.7685137294088804 [Eh]
	 Singles Energy            =      -0.0000000000000000 [Eh]
	 Same-Spin Energy          =      -0.4079988306374759 [Eh]
	 Opposite-Spin Energy      =      -1.2860900461554721 [Eh]
	 Correlation Energy        =      -1.6940888767929478 [Eh]
	 Total Energy              =    -420.4626026062018127 [Eh]

	 ================> DF-SCS-MP2 Energies <==================
	-----------------------------------------------------------
	 SCS Same-Spin Scale       =       0.3333333333333333 [-]
	 SCS Opposite-Spin Scale   =       1.2000000000000000 [-]
	 SCS Same-Spin Energy      =      -0.1359996102124920 [Eh]
	 SCS Opposite-Spin Energy  =      -1.5433080553865663 [Eh]
	 SCS Correlation Energy    =      -1.6793076655990582 [Eh]
	 SCS Total Energy          =    -420.4478213950079635 [Eh]
	-----------------------------------------------------------

  Dipole Moment: [D]
     X:    -1.3632      Y:     0.7475      Z:    -2.5328     Total:     2.9719

*** Psi4 exiting successfully. Buy a developer a beer!
