                               Psi4 1.3.2 release

  ==> Input File <==

--------------------------------------------------------------------------
#psi4
#
memory 32 gb

molecule  {
0 1
  O        1.2197630    -1.3791890     0.7815710
  O       -2.8493200    -0.0743410    -0.2921690
  O       -1.2471260     1.2289340     0.6316900
  C        1.6098530     0.5514350    -0.6010430
  C        0.7924890    -0.5949300    -0.0578730
  C       -0.6155180    -0.7660970    -0.6108670
  C        2.9660570     0.6794250     0.0724790
  C       -1.5762881     0.2248028    -0.0036751
  H        1.7167540     0.3993790    -1.6843760
  H        1.0152770     1.4637510    -0.4819620
  H       -0.6366420    -0.6467360    -1.7011060
  H       -0.9868492    -1.7646088    -0.3668128
  H        3.5474250    -0.2360290    -0.0491480
  H        3.5302360     1.5116820    -0.3550310
  H        2.8465530     0.8548240     1.1430380
  H       -3.3901630     0.6286630     0.1252190
units angstrom
no_reorient  #important for SAPT in psi4, default
symmetry c1  #important for SAPT in psi4, default
}

set PROPERTIES_ORIGIN ["COM"]
properties('MP2/aug-cc-pvtz', properties = ['dipole'])
--------------------------------------------------------------------------

    Molecular point group: c1
  Charge       = 0
  Multiplicity = 1
  Basis Set: AUG-CC-PVTZ
    Blend: AUG-CC-PVTZ
  Basis Set: (AUG-CC-PVTZ AUX)
    Blend: AUG-CC-PVTZ-JKFIT

    Orbital Energies [Eh]
    ---------------------

    Doubly Occupied:

       1A    -20.637724     2A    -20.566699     3A    -20.556364
       4A    -11.414084     5A    -11.343986     6A    -11.271295
       7A    -11.240652     8A    -11.216659     9A     -1.483880
      10A     -1.388588    11A     -1.369885    12A     -1.084595
      13A     -1.041963    14A     -0.902872    15A     -0.843621
      16A     -0.743132    17A     -0.720051    18A     -0.706998
      19A     -0.681835    20A     -0.649848    21A     -0.631587
      22A     -0.627137    23A     -0.594694    24A     -0.578373
      25A     -0.525990    26A     -0.517760    27A     -0.514319
      28A     -0.499768    29A     -0.488274    30A     -0.467052
      31A     -0.424654

  @DF-RHF Final Energy:  -418.76644841673703

   => Energetics <=

    Nuclear Repulsion Energy =            372.1663603669300642
    One-Electron Energy =               -1310.3969388761997834
    Two-Electron Energy =                 519.4641300925326277
    Total Energy =                       -418.7664484167370347
  Basis Set: (AUG-CC-PVTZ AUX)
    Blend: AUG-CC-PVTZ-RI
    Molecular point group: c1

    Geometry (in Angstrom), charge = 0, multiplicity = 1:

       Center              X                  Y                   Z               Mass
    ------------   -----------------  -----------------  -----------------  -----------------
         O            1.221407069106    -1.377219644435     0.780507028533    15.994914619570
         O           -2.847675930894    -0.072371644435    -0.293232971467    15.994914619570
         O           -1.245481930894     1.230903355565     0.630626028533    15.994914619570
         C            1.611497069106     0.553404355565    -0.602106971467    12.000000000000
         C            0.794133069106    -0.592960644435    -0.058936971467    12.000000000000
         C           -0.613873930894    -0.764127644435    -0.611930971467    12.000000000000
         C            2.967701069106     0.681394355565     0.071415028533    12.000000000000
         C           -1.574644030894     0.226772155565    -0.004739071467    12.000000000000
         H            1.718398069106     0.401348355565    -1.685439971467     1.007825032230
         H            1.016921069106     1.465720355565    -0.483025971467     1.007825032230
         H           -0.634997930894    -0.644766644435    -1.702169971467     1.007825032230
         H           -0.985205130894    -1.762639444435    -0.367876771467     1.007825032230
         H            3.549069069106    -0.234059644435    -0.050211971467     1.007825032230
         H            3.531880069106     1.513651355565    -0.356094971467     1.007825032230
         H            2.848197069106     0.856793355565     1.141974028533     1.007825032230
         H           -3.388518930894     0.630632355565     0.124155028533     1.007825032230

  Basis Set: AUG-CC-PVTZ
    Blend: AUG-CC-PVTZ
  Basis Set: (AUG-CC-PVTZ AUX)
    Blend: AUG-CC-PVTZ-JKFIT
	 Reference Energy          =    -418.7664484167370347 [Eh]
	 Singles Energy            =      -0.0000000000000000 [Eh]
	 Same-Spin Energy          =      -0.4084170524539183 [Eh]
	 Opposite-Spin Energy      =      -1.2868651154730633 [Eh]
	 Correlation Energy        =      -1.6952821679269816 [Eh]
	 Total Energy              =    -420.4617305846639965 [Eh]

	 ================> DF-SCS-MP2 Energies <==================
	-----------------------------------------------------------
	 SCS Same-Spin Scale       =       0.3333333333333333 [-]
	 SCS Opposite-Spin Scale   =       1.2000000000000000 [-]
	 SCS Same-Spin Energy      =      -0.1361390174846394 [Eh]
	 SCS Opposite-Spin Energy  =      -1.5442381385676758 [Eh]
	 SCS Correlation Energy    =      -1.6803771560523151 [Eh]
	 SCS Total Energy          =    -420.4468255727893506 [Eh]
	-----------------------------------------------------------

  Dipole Moment: [D]
     X:    -1.4836      Y:     0.7104      Z:    -2.5862     Total:     3.0650

*** Psi4 exiting successfully. Buy a developer a beer!
