                               Psi4 1.3.2 release

  ==> Input File <==

--------------------------------------------------------------------------
#psi4
#
memory 32 gb

molecule  {
0 1
  O        1.2197630    -1.3791890     0.7815710
  O       -2.8418172    -0.0933911    -0.3040249
  O       -1.2471260     1.2289340     0.6316900
  C        1.6098530     0.5514350    -0.6010430
  C        0.7924890    -0.5949300    -0.0578730
  C       -0.6361143    -0.7793051    -0.6205579
  C        2.9660570     0.6794250     0.0724790
  C       -1.5616300     0.2444870    -0.0131750
  H        1.7167540     0.3993790    -1.6843760
  H        1.0152770     1.4637510    -0.4819620
  H       -0.6366420    -0.6467360    -1.7011060
  H       -0.9720840    -1.7722110    -0.3761960
  H        3.5474250    -0.2360290    -0.0491480
  H        3.5302360     1.5116820    -0.3550310
  H        2.8465530     0.8548240     1.1430380
  H       -3.3901630     0.6286630     0.1252190
units angstrom
no_reorient  #important for SAPT in psi4, default
symmetry c1  #important for SAPT in psi4, default
}

set PROPERTIES_ORIGIN ["COM"]
properties('MP2/aug-cc-pvtz', properties = ['dipole'])
--------------------------------------------------------------------------

    Molecular point group: c1
  Charge       = 0
  Multiplicity = 1
  Basis Set: AUG-CC-PVTZ
    Blend: AUG-CC-PVTZ
  Basis Set: (AUG-CC-PVTZ AUX)
    Blend: AUG-CC-PVTZ-JKFIT

    Orbital Energies [Eh]
    ---------------------

    Doubly Occupied:

       1A    -20.635066     2A    -20.572166     3A    -20.556066
       4A    -11.413227     5A    -11.344359     6A    -11.269072
       7A    -11.241354     8A    -11.217132     9A     -1.477347
      10A     -1.387872    11A     -1.375996    12A     -1.082325
      13A     -1.041638    14A     -0.899608    15A     -0.834797
      16A     -0.741758    17A     -0.717669    18A     -0.706991
      19A     -0.681502    20A     -0.646485    21A     -0.632238
      22A     -0.623763    23A     -0.598973    24A     -0.579567
      25A     -0.527063    26A     -0.518264    27A     -0.515127
      28A     -0.503706    29A     -0.491093    30A     -0.469762
      31A     -0.421499

  @DF-RHF Final Energy:  -418.76472079575012

   => Energetics <=

    Nuclear Repulsion Energy =            371.9040943229352933
    One-Electron Energy =               -1309.8906621215489849
    Two-Electron Energy =                 519.2218470028635693
    Total Energy =                       -418.7647207957501223
  Basis Set: (AUG-CC-PVTZ AUX)
    Blend: AUG-CC-PVTZ-RI
    Molecular point group: c1

    Geometry (in Angstrom), charge = 0, multiplicity = 1:

       Center              X                  Y                   Z               Mass
    ------------   -----------------  -----------------  -----------------  -----------------
         O            1.220858767168    -1.375197597207     0.784207072988    15.994914619570
         O           -2.840721432832    -0.089399697207    -0.301388827012    15.994914619570
         O           -1.246030232832     1.232925402793     0.634326072988    15.994914619570
         C            1.610948767168     0.555426402793    -0.598406927012    12.000000000000
         C            0.793584767168    -0.590938597207    -0.055236927012    12.000000000000
         C           -0.635018532832    -0.775313697207    -0.617921827012    12.000000000000
         C            2.967152767168     0.683416402793     0.075115072988    12.000000000000
         C           -1.560534232832     0.248478402793    -0.010538927012    12.000000000000
         H            1.717849767168     0.403370402793    -1.681739927012     1.007825032230
         H            1.016372767168     1.467742402793    -0.479325927012     1.007825032230
         H           -0.635546232832    -0.642744597207    -1.698469927012     1.007825032230
         H           -0.970988232832    -1.768219597207    -0.373559927012     1.007825032230
         H            3.548520767168    -0.232037597207    -0.046511927012     1.007825032230
         H            3.531331767168     1.515673402793    -0.352394927012     1.007825032230
         H            2.847648767168     0.858815402793     1.145674072988     1.007825032230
         H           -3.389067232832     0.632654402793     0.127855072988     1.007825032230

  Basis Set: AUG-CC-PVTZ
    Blend: AUG-CC-PVTZ
  Basis Set: (AUG-CC-PVTZ AUX)
    Blend: AUG-CC-PVTZ-JKFIT
	 Reference Energy          =    -418.7647207957501223 [Eh]
	 Singles Energy            =      -0.0000000000000000 [Eh]
	 Same-Spin Energy          =      -0.4086128680556855 [Eh]
	 Opposite-Spin Energy      =      -1.2875490337249451 [Eh]
	 Correlation Energy        =      -1.6961619017806306 [Eh]
	 Total Energy              =    -420.4608826975307352 [Eh]

	 ================> DF-SCS-MP2 Energies <==================
	-----------------------------------------------------------
	 SCS Same-Spin Scale       =       0.3333333333333333 [-]
	 SCS Opposite-Spin Scale   =       1.2000000000000000 [-]
	 SCS Same-Spin Energy      =      -0.1362042893518952 [Eh]
	 SCS Opposite-Spin Energy  =      -1.5450588404699341 [Eh]
	 SCS Correlation Energy    =      -1.6812631298218292 [Eh]
	 SCS Total Energy          =    -420.4459839255719658 [Eh]
	-----------------------------------------------------------

  Dipole Moment: [D]
     X:    -1.3556      Y:     0.8186      Z:    -2.5315     Total:     2.9860

*** Psi4 exiting successfully. Buy a developer a beer!
