                               Psi4 1.3.2 release

  ==> Input File <==

--------------------------------------------------------------------------
#psi4
#
memory 32 gb

molecule  {
0 1
  O        1.2197630    -1.3791890     0.7815710
  O       -2.8493200    -0.0743410    -0.2921690
  O       -1.2471260     1.2289340     0.6316900
  C        1.6098530     0.5514350    -0.6010430
  C        0.7831419    -0.5992405    -0.0333779
  C       -0.6155180    -0.7660970    -0.6108670
  C        2.9660570     0.6794250     0.0724790
  C       -1.5616300     0.2444870    -0.0131750
  H        1.7167540     0.3993790    -1.6843760
  H        1.0152770     1.4637510    -0.4819620
  H       -0.6555250    -0.6498886    -1.7009172
  H       -0.9720840    -1.7722110    -0.3761960
  H        3.5474250    -0.2360290    -0.0491480
  H        3.5302360     1.5116820    -0.3550310
  H        2.8465530     0.8548240     1.1430380
  H       -3.3901630     0.6286630     0.1252190
units angstrom
no_reorient  #important for SAPT in psi4, default
symmetry c1  #important for SAPT in psi4, default
}

set PROPERTIES_ORIGIN ["COM"]
properties('MP2/aug-cc-pvtz', properties = ['dipole'])
--------------------------------------------------------------------------

    Molecular point group: c1
  Charge       = 0
  Multiplicity = 1
  Basis Set: AUG-CC-PVTZ
    Blend: AUG-CC-PVTZ
  Basis Set: (AUG-CC-PVTZ AUX)
    Blend: AUG-CC-PVTZ-JKFIT

    Orbital Energies [Eh]
    ---------------------

    Doubly Occupied:

       1A    -20.632583     2A    -20.570239     3A    -20.558225
       4A    -11.412954     5A    -11.342975     6A    -11.270587
       7A    -11.240157     8A    -11.216204     9A     -1.479341
      10A     -1.399899    11A     -1.376173    12A     -1.083317
      13A     -1.040099    14A     -0.898652    15A     -0.838659
      16A     -0.743432    17A     -0.719829    18A     -0.707367
      19A     -0.681819    20A     -0.648393    21A     -0.632317
      22A     -0.628188    23A     -0.598176    24A     -0.577654
      25A     -0.526024    26A     -0.521088    27A     -0.515745
      28A     -0.503451    29A     -0.491437    30A     -0.469594
      31A     -0.421736

  @DF-RHF Final Energy:  -418.76875222623801

   => Energetics <=

    Nuclear Repulsion Energy =            372.3820053556963785
    One-Electron Energy =               -1310.8088845278598455
    Two-Electron Energy =                 519.6581269459254599
    Total Energy =                       -418.7687522262380071
  Basis Set: (AUG-CC-PVTZ AUX)
    Blend: AUG-CC-PVTZ-RI
    Molecular point group: c1

    Geometry (in Angstrom), charge = 0, multiplicity = 1:

       Center              X                  Y                   Z               Mass
    ------------   -----------------  -----------------  -----------------  -----------------
         O            1.220893640913    -1.378715977200     0.779036283512    15.994914619570
         O           -2.848189359087    -0.073867977200    -0.294703716488    15.994914619570
         O           -1.245995359087     1.229407022800     0.629155283512    15.994914619570
         C            1.610983640913     0.551908022800    -0.603577716488    12.000000000000
         C            0.784272540913    -0.598767477200    -0.035912616488    12.000000000000
         C           -0.614387359087    -0.765623977200    -0.613401716488    12.000000000000
         C            2.967187640913     0.679898022800     0.069944283512    12.000000000000
         C           -1.560499359087     0.244960022800    -0.015709716488    12.000000000000
         H            1.717884640913     0.399852022800    -1.686910716488     1.007825032230
         H            1.016407640913     1.464224022800    -0.484496716488     1.007825032230
         H           -0.654394359087    -0.649415577200    -1.703451916488     1.007825032230
         H           -0.970953359087    -1.771737977200    -0.378730716488     1.007825032230
         H            3.548555640913    -0.235555977200    -0.051682716488     1.007825032230
         H            3.531366640913     1.512155022800    -0.357565716488     1.007825032230
         H            2.847683640913     0.855297022800     1.140503283512     1.007825032230
         H           -3.389032359087     0.629136022800     0.122684283512     1.007825032230

  Basis Set: AUG-CC-PVTZ
    Blend: AUG-CC-PVTZ
  Basis Set: (AUG-CC-PVTZ AUX)
    Blend: AUG-CC-PVTZ-JKFIT
	 Reference Energy          =    -418.7687522262380071 [Eh]
	 Singles Energy            =      -0.0000000000000000 [Eh]
	 Same-Spin Energy          =      -0.4077795493102010 [Eh]
	 Opposite-Spin Energy      =      -1.2856326834619352 [Eh]
	 Correlation Energy        =      -1.6934122327721362 [Eh]
	 Total Energy              =    -420.4621644590101255 [Eh]

	 ================> DF-SCS-MP2 Energies <==================
	-----------------------------------------------------------
	 SCS Same-Spin Scale       =       0.3333333333333333 [-]
	 SCS Opposite-Spin Scale   =       1.2000000000000000 [-]
	 SCS Same-Spin Energy      =      -0.1359265164367336 [Eh]
	 SCS Opposite-Spin Energy  =      -1.5427592201543221 [Eh]
	 SCS Correlation Energy    =      -1.6786857365910557 [Eh]
	 SCS Total Energy          =    -420.4474379628290421 [Eh]
	-----------------------------------------------------------

  Dipole Moment: [D]
     X:    -1.3770      Y:     0.7122      Z:    -2.5068     Total:     2.9475

*** Psi4 exiting successfully. Buy a developer a beer!
