                               Psi4 1.3.2 release

  ==> Input File <==

--------------------------------------------------------------------------
#psi4
#
memory 32 gb

molecule  {
0 1
  O        1.2197630    -1.3791890     0.7815710
  O       -2.8493200    -0.0743410    -0.2921690
  O       -1.2471260     1.2289340     0.6316900
  C        1.6098530     0.5514350    -0.6010430
  C        0.7924890    -0.5949300    -0.0578730
  C       -0.6155180    -0.7660970    -0.6108670
  C        2.9660570     0.6794250     0.0724790
  C       -1.5541926     0.2542140    -0.0179934
  H        1.7167540     0.3993790    -1.6843760
  H        1.0152770     1.4637510    -0.4819620
  H       -0.6366420    -0.6467360    -1.7011060
  H       -0.9646604    -1.7758973    -0.3809146
  H        3.5474250    -0.2360290    -0.0491480
  H        3.5302360     1.5116820    -0.3550310
  H        2.8465530     0.8548240     1.1430380
  H       -3.3901630     0.6286630     0.1252190
units angstrom
no_reorient  #important for SAPT in psi4, default
symmetry c1  #important for SAPT in psi4, default
}

set PROPERTIES_ORIGIN ["COM"]
properties('MP2/aug-cc-pvtz', properties = ['dipole'])
--------------------------------------------------------------------------

    Molecular point group: c1
  Charge       = 0
  Multiplicity = 1
  Basis Set: AUG-CC-PVTZ
    Blend: AUG-CC-PVTZ
  Basis Set: (AUG-CC-PVTZ AUX)
    Blend: AUG-CC-PVTZ-JKFIT

    Orbital Energies [Eh]
    ---------------------

    Doubly Occupied:

       1A    -20.630416     2A    -20.572241     3A    -20.556913
       4A    -11.413127     5A    -11.344077     6A    -11.271295
       7A    -11.241564     8A    -11.217356     9A     -1.478106
      10A     -1.389193    11A     -1.378299    12A     -1.085333
      13A     -1.042029    14A     -0.901157    15A     -0.837798
      16A     -0.742612    17A     -0.719807    18A     -0.707734
      19A     -0.680619    20A     -0.647490    21A     -0.632546
      22A     -0.625968    23A     -0.600373    24A     -0.576482
      25A     -0.526052    26A     -0.518825    27A     -0.515545
      28A     -0.504525    29A     -0.491812    30A     -0.469700
      31A     -0.424662

  @DF-RHF Final Energy:  -418.76795990907192

   => Energetics <=

    Nuclear Repulsion Energy =            372.2929209054209991
    One-Electron Energy =               -1310.6344509146674682
    Two-Electron Energy =                 519.5735701001746065
    Total Energy =                       -418.7679599090719194
  Basis Set: (AUG-CC-PVTZ AUX)
    Blend: AUG-CC-PVTZ-RI
    Molecular point group: c1

    Geometry (in Angstrom), charge = 0, multiplicity = 1:

       Center              X                  Y                   Z               Mass
    ------------   -----------------  -----------------  -----------------  -----------------
         O            1.218929559342    -1.380162904961     0.782110096216    15.994914619570
         O           -2.850153440658    -0.075314904961    -0.291629903784    15.994914619570
         O           -1.247959440658     1.227960095039     0.632229096216    15.994914619570
         C            1.609019559342     0.550461095039    -0.600503903784    12.000000000000
         C            0.791655559342    -0.595903904961    -0.057333903784    12.000000000000
         C           -0.616351440658    -0.767070904961    -0.610327903784    12.000000000000
         C            2.965223559342     0.678451095039     0.073018096216    12.000000000000
         C           -1.555026040658     0.253240095039    -0.017454303784    12.000000000000
         H            1.715920559342     0.398405095039    -1.683836903784     1.007825032230
         H            1.014443559342     1.462777095039    -0.481422903784     1.007825032230
         H           -0.637475440658    -0.647709904961    -1.700566903784     1.007825032230
         H           -0.965493840658    -1.776871204961    -0.380375503784     1.007825032230
         H            3.546591559342    -0.237002904961    -0.048608903784     1.007825032230
         H            3.529402559342     1.510708095039    -0.354491903784     1.007825032230
         H            2.845719559342     0.853850095039     1.143577096216     1.007825032230
         H           -3.390996440658     0.627689095039     0.125758096216     1.007825032230

  Basis Set: AUG-CC-PVTZ
    Blend: AUG-CC-PVTZ
  Basis Set: (AUG-CC-PVTZ AUX)
    Blend: AUG-CC-PVTZ-JKFIT
	 Reference Energy          =    -418.7679599090719194 [Eh]
	 Singles Energy            =      -0.0000000000000000 [Eh]
	 Same-Spin Energy          =      -0.4081673066887171 [Eh]
	 Opposite-Spin Energy      =      -1.2864919101104508 [Eh]
	 Correlation Energy        =      -1.6946592167991681 [Eh]
	 Total Energy              =    -420.4626191258710719 [Eh]

	 ================> DF-SCS-MP2 Energies <==================
	-----------------------------------------------------------
	 SCS Same-Spin Scale       =       0.3333333333333333 [-]
	 SCS Opposite-Spin Scale   =       1.2000000000000000 [-]
	 SCS Same-Spin Energy      =      -0.1360557688962390 [Eh]
	 SCS Opposite-Spin Energy  =      -1.5437902921325410 [Eh]
	 SCS Correlation Energy    =      -1.6798460610287802 [Eh]
	 SCS Total Energy          =    -420.4478059701007169 [Eh]
	-----------------------------------------------------------

  Dipole Moment: [D]
     X:    -1.2810      Y:     0.8184      Z:    -2.5441     Total:     2.9636

*** Psi4 exiting successfully. Buy a developer a beer!
