                               Psi4 1.3.2 release

  ==> Input File <==

--------------------------------------------------------------------------
#psi4
#
memory 32 gb

molecule  {
0 1
  O        1.2197630    -1.3791890     0.7815710
  O       -2.8493200    -0.0743410    -0.2921690
  O       -1.2471260     1.2289340     0.6316900
  C        1.6098530     0.5514350    -0.6010430
  C        0.7924890    -0.5949300    -0.0578730
  C       -0.6155180    -0.7660970    -0.6108670
  C        2.9660570     0.6794250     0.0724790
  C       -1.5616300     0.2444870    -0.0131750
  H        1.7167540     0.3993790    -1.6843760
  H        1.0152770     1.4637510    -0.4819620
  H       -0.6366420    -0.6467360    -1.7011060
  H       -0.9720840    -1.7722110    -0.3761960
  H        3.5474250    -0.2360290    -0.0491480
  H        3.5302360     1.5116820    -0.3550310
  H        2.8465530     0.8548240     1.1430380
  H       -3.2798178     0.4852330     0.0400616
units angstrom
no_reorient  #important for SAPT in psi4, default
symmetry c1  #important for SAPT in psi4, default
}

set PROPERTIES_ORIGIN ["COM"]
properties('MP2/aug-cc-pvtz', properties = ['dipole'])
--------------------------------------------------------------------------

    Molecular point group: c1
  Charge       = 0
  Multiplicity = 1
  Basis Set: AUG-CC-PVTZ
    Blend: AUG-CC-PVTZ
  Basis Set: (AUG-CC-PVTZ AUX)
    Blend: AUG-CC-PVTZ-JKFIT

    Orbital Energies [Eh]
    ---------------------

    Doubly Occupied:

       1A    -20.616331     2A    -20.574749     3A    -20.557867
       4A    -11.417624     5A    -11.345109     6A    -11.272577
       7A    -11.242254     8A    -11.217869     9A     -1.524307
      10A     -1.398283    11A     -1.388249    12A     -1.089812
      13A     -1.046681    14A     -0.920438    15A     -0.866800
      16A     -0.745530    17A     -0.738386    18A     -0.712195
      19A     -0.684506    20A     -0.653462    21A     -0.636954
      22A     -0.629567    23A     -0.607458    24A     -0.581001
      25A     -0.527384    26A     -0.520066    27A     -0.516415
      28A     -0.507439    29A     -0.493535    30A     -0.471940
      31A     -0.425984

  @DF-RHF Final Energy:  -418.72411785451561

   => Energetics <=

    Nuclear Repulsion Energy =            373.6825746523215344
    One-Electron Energy =               -1312.9518411924871089
    Two-Electron Energy =                 520.5451486856499059
    Total Energy =                       -418.7241178545156117
  Basis Set: (AUG-CC-PVTZ AUX)
    Blend: AUG-CC-PVTZ-RI
    Molecular point group: c1

    Geometry (in Angstrom), charge = 0, multiplicity = 1:

       Center              X                  Y                   Z               Mass
    ------------   -----------------  -----------------  -----------------  -----------------
         O            1.218804798496    -1.377943455642     0.782310423387    15.994914619570
         O           -2.850278201504    -0.073095455642    -0.291429576613    15.994914619570
         O           -1.248084201504     1.230179544358     0.632429423387    15.994914619570
         C            1.608894798496     0.552680544358    -0.600303576613    12.000000000000
         C            0.791530798496    -0.593684455642    -0.057133576613    12.000000000000
         C           -0.616476201504    -0.764851455642    -0.610127576613    12.000000000000
         C            2.965098798496     0.680670544358     0.073218423387    12.000000000000
         C           -1.562588201504     0.245732544358    -0.012435576613    12.000000000000
         H            1.715795798496     0.400624544358    -1.683636576613     1.007825032230
         H            1.014318798496     1.464996544358    -0.481222576613     1.007825032230
         H           -0.637600201504    -0.645490455642    -1.700366576613     1.007825032230
         H           -0.973042201504    -1.770965455642    -0.375456576613     1.007825032230
         H            3.546466798496    -0.234783455642    -0.048408576613     1.007825032230
         H            3.529277798496     1.512927544358    -0.354291576613     1.007825032230
         H            2.845594798496     0.856069544358     1.143777423387     1.007825032230
         H           -3.280776001504     0.486478544358     0.040801023387     1.007825032230

  Basis Set: AUG-CC-PVTZ
    Blend: AUG-CC-PVTZ
  Basis Set: (AUG-CC-PVTZ AUX)
    Blend: AUG-CC-PVTZ-JKFIT
	 Reference Energy          =    -418.7241178545156117 [Eh]
	 Singles Energy            =      -0.0000000000000000 [Eh]
	 Same-Spin Energy          =      -0.4058043577818229 [Eh]
	 Opposite-Spin Energy      =      -1.2814073175634844 [Eh]
	 Correlation Energy        =      -1.6872116753453072 [Eh]
	 Total Energy              =    -420.4113295298608932 [Eh]

	 ================> DF-SCS-MP2 Energies <==================
	-----------------------------------------------------------
	 SCS Same-Spin Scale       =       0.3333333333333333 [-]
	 SCS Opposite-Spin Scale   =       1.2000000000000000 [-]
	 SCS Same-Spin Energy      =      -0.1352681192606076 [Eh]
	 SCS Opposite-Spin Energy  =      -1.5376887810761812 [Eh]
	 SCS Correlation Energy    =      -1.6729569003367888 [Eh]
	 SCS Total Energy          =    -420.3970747548523832 [Eh]
	-----------------------------------------------------------

  Dipole Moment: [D]
     X:    -1.1307      Y:     0.6505      Z:    -2.6318     Total:     2.9374

*** Psi4 exiting successfully. Buy a developer a beer!
