                               Psi4 1.3.2 release

  ==> Input File <==

--------------------------------------------------------------------------
#psi4
#
memory 32 gb

molecule  {
0 1
  O        1.2197630    -1.3791890     0.7815710
  O       -2.8694441    -0.0163851    -0.2564904
  O       -1.3090668     1.2431378     0.6370619
  C        1.6098530     0.5514350    -0.6010430
  C        0.7924890    -0.5949300    -0.0578730
  C       -0.6155180    -0.7660970    -0.6108670
  C        2.9660570     0.6794250     0.0724790
  C       -1.5616300     0.2444870    -0.0131750
  H        1.7167540     0.3993790    -1.6843760
  H        1.0152770     1.4637510    -0.4819620
  H       -0.6366420    -0.6467360    -1.7011060
  H       -0.9720840    -1.7722110    -0.3761960
  H        3.5474250    -0.2360290    -0.0491480
  H        3.5302360     1.5116820    -0.3550310
  H        2.8465530     0.8548240     1.1430380
  H       -3.3901630     0.6286630     0.1252190
units angstrom
no_reorient  #important for SAPT in psi4, default
symmetry c1  #important for SAPT in psi4, default
}

set PROPERTIES_ORIGIN ["COM"]
properties('MP2/aug-cc-pvtz', properties = ['dipole'])
--------------------------------------------------------------------------

    Molecular point group: c1
  Charge       = 0
  Multiplicity = 1
  Basis Set: AUG-CC-PVTZ
    Blend: AUG-CC-PVTZ
  Basis Set: (AUG-CC-PVTZ AUX)
    Blend: AUG-CC-PVTZ-JKFIT

    Orbital Energies [Eh]
    ---------------------

    Doubly Occupied:

       1A    -20.617336     2A    -20.565694     3A    -20.560286
       4A    -11.413037     5A    -11.347911     6A    -11.277985
       7A    -11.243994     8A    -11.218980     9A     -1.486288
      10A     -1.392193    11A     -1.371284    12A     -1.089988
      13A     -1.045752    14A     -0.907213    15A     -0.852373
      16A     -0.745530    17A     -0.721934    18A     -0.707304
      19A     -0.682410    20A     -0.650767    21A     -0.632308
      22A     -0.629599    23A     -0.597670    24A     -0.580145
      25A     -0.528573    26A     -0.520493    27A     -0.517417
      28A     -0.500024    29A     -0.489188    30A     -0.468627
      31A     -0.428506

  @DF-RHF Final Energy:  -418.76591888953681

   => Energetics <=

    Nuclear Repulsion Energy =            371.9080134456590372
    One-Electron Energy =               -1309.7662455513043369
    Two-Electron Energy =                 519.0923132161085505
    Total Energy =                       -418.7659188895368061
  Basis Set: (AUG-CC-PVTZ AUX)
    Blend: AUG-CC-PVTZ-RI
    Molecular point group: c1

    Geometry (in Angstrom), charge = 0, multiplicity = 1:

       Center              X                  Y                   Z               Mass
    ------------   -----------------  -----------------  -----------------  -----------------
         O            1.231074185050    -1.389134927491     0.775912836199    15.994914619570
         O           -2.858132914950    -0.026331027491    -0.262148563801    15.994914619570
         O           -1.297755614950     1.233191872509     0.631403736199    15.994914619570
         C            1.621164185050     0.541489072509    -0.606701163801    12.000000000000
         C            0.803800185050    -0.604875927491    -0.063531163801    12.000000000000
         C           -0.604206814950    -0.776042927491    -0.616525163801    12.000000000000
         C            2.977368185050     0.669479072509     0.066820836199    12.000000000000
         C           -1.550318814950     0.234541072509    -0.018833163801    12.000000000000
         H            1.728065185050     0.389433072509    -1.690034163801     1.007825032230
         H            1.026588185050     1.453805072509    -0.487620163801     1.007825032230
         H           -0.625330814950    -0.656681927491    -1.706764163801     1.007825032230
         H           -0.960772814950    -1.782156927491    -0.381854163801     1.007825032230
         H            3.558736185050    -0.245974927491    -0.054806163801     1.007825032230
         H            3.541547185050     1.501736072509    -0.360689163801     1.007825032230
         H            2.857864185050     0.844878072509     1.137379836199     1.007825032230
         H           -3.378851814950     0.618717072509     0.119560836199     1.007825032230

  Basis Set: AUG-CC-PVTZ
    Blend: AUG-CC-PVTZ
  Basis Set: (AUG-CC-PVTZ AUX)
    Blend: AUG-CC-PVTZ-JKFIT
	 Reference Energy          =    -418.7659188895368061 [Eh]
	 Singles Energy            =      -0.0000000000000000 [Eh]
	 Same-Spin Energy          =      -0.4069334959749408 [Eh]
	 Opposite-Spin Energy      =      -1.2838796500967797 [Eh]
	 Correlation Energy        =      -1.6908131460717204 [Eh]
	 Total Energy              =    -420.4567320356085247 [Eh]

	 ================> DF-SCS-MP2 Energies <==================
	-----------------------------------------------------------
	 SCS Same-Spin Scale       =       0.3333333333333333 [-]
	 SCS Opposite-Spin Scale   =       1.2000000000000000 [-]
	 SCS Same-Spin Energy      =      -0.1356444986583136 [Eh]
	 SCS Opposite-Spin Energy  =      -1.5406555801161357 [Eh]
	 SCS Correlation Energy    =      -1.6763000787744493 [Eh]
	 SCS Total Energy          =    -420.4422189683112379 [Eh]
	-----------------------------------------------------------

  Dipole Moment: [D]
     X:    -1.0103      Y:     0.6226      Z:    -2.6371     Total:     2.8919

*** Psi4 exiting successfully. Buy a developer a beer!
