                               Psi4 1.3.2 release

  ==> Input File <==

--------------------------------------------------------------------------
#psi4
#
memory 32 gb

molecule  {
0 1
  O        1.2197630    -1.3791890     0.7815710
  O       -2.8493200    -0.0743410    -0.2921690
  O       -1.2471260     1.2289340     0.6316900
  C        1.6098530     0.5514350    -0.6010430
  C        0.8006388    -0.6152066    -0.0729859
  C       -0.6155180    -0.7660970    -0.6108670
  C        2.9660570     0.6794250     0.0724790
  C       -1.5811933     0.2343334    -0.0275540
  H        1.7167540     0.3993790    -1.6843760
  H        1.0152770     1.4637510    -0.4819620
  H       -0.6366420    -0.6467360    -1.7011060
  H       -0.9720840    -1.7722110    -0.3761960
  H        3.5474250    -0.2360290    -0.0491480
  H        3.5302360     1.5116820    -0.3550310
  H        2.8465530     0.8548240     1.1430380
  H       -3.3901630     0.6286630     0.1252190
units angstrom
no_reorient  #important for SAPT in psi4, default
symmetry c1  #important for SAPT in psi4, default
}

set PROPERTIES_ORIGIN ["COM"]
properties('MP2/aug-cc-pvtz', properties = ['dipole'])
--------------------------------------------------------------------------

    Molecular point group: c1
  Charge       = 0
  Multiplicity = 1
  Basis Set: AUG-CC-PVTZ
    Blend: AUG-CC-PVTZ
  Basis Set: (AUG-CC-PVTZ AUX)
    Blend: AUG-CC-PVTZ-JKFIT

    Orbital Energies [Eh]
    ---------------------

    Doubly Occupied:

       1A    -20.639934     2A    -20.565010     3A    -20.557030
       4A    -11.414818     5A    -11.343553     6A    -11.271028
       7A    -11.240087     8A    -11.216190     9A     -1.486520
      10A     -1.392054    11A     -1.366911    12A     -1.083648
      13A     -1.041016    14A     -0.902683    15A     -0.845894
      16A     -0.743475    17A     -0.720639    18A     -0.707235
      19A     -0.682170    20A     -0.650369    21A     -0.630668
      22A     -0.628203    23A     -0.592962    24A     -0.579175
      25A     -0.525729    26A     -0.518352    27A     -0.514193
      28A     -0.498529    29A     -0.487238    30A     -0.466638
      31A     -0.423752

  @DF-RHF Final Energy:  -418.76614098161900

   => Energetics <=

    Nuclear Repulsion Energy =            371.9989760691239553
    One-Electron Energy =               -1310.0588208368765208
    Two-Electron Energy =                 519.2937037861336194
    Total Energy =                       -418.7661409816189462
  Basis Set: (AUG-CC-PVTZ AUX)
    Blend: AUG-CC-PVTZ-RI
    Molecular point group: c1

    Geometry (in Angstrom), charge = 0, multiplicity = 1:

       Center              X                  Y                   Z               Mass
    ------------   -----------------  -----------------  -----------------  -----------------
         O            1.220943327875    -1.376042420704     0.784620506765    15.994914619570
         O           -2.848139672125    -0.071194420704    -0.289119493235    15.994914619570
         O           -1.245945672125     1.232080579296     0.634739506765    15.994914619570
         C            1.611033327875     0.554581579296    -0.597993493235    12.000000000000
         C            0.801819127875    -0.612060020704    -0.069936393235    12.000000000000
         C           -0.614337672125    -0.762950420704    -0.607817493235    12.000000000000
         C            2.967237327875     0.682571579296     0.075528506765    12.000000000000
         C           -1.580012972125     0.237479979296    -0.024504493235    12.000000000000
         H            1.717934327875     0.402525579296    -1.681326493235     1.007825032230
         H            1.016457327875     1.466897579296    -0.478912493235     1.007825032230
         H           -0.635461672125    -0.643589420704    -1.698056493235     1.007825032230
         H           -0.970903672125    -1.769064420704    -0.373146493235     1.007825032230
         H            3.548605327875    -0.232882420704    -0.046098493235     1.007825032230
         H            3.531416327875     1.514828579296    -0.351981493235     1.007825032230
         H            2.847733327875     0.857970579296     1.146087506765     1.007825032230
         H           -3.388982672125     0.631809579296     0.128268506765     1.007825032230

  Basis Set: AUG-CC-PVTZ
    Blend: AUG-CC-PVTZ
  Basis Set: (AUG-CC-PVTZ AUX)
    Blend: AUG-CC-PVTZ-JKFIT
	 Reference Energy          =    -418.7661409816190030 [Eh]
	 Singles Energy            =      -0.0000000000000000 [Eh]
	 Same-Spin Energy          =      -0.4083362209334908 [Eh]
	 Opposite-Spin Energy      =      -1.2866723516590137 [Eh]
	 Correlation Energy        =      -1.6950085725925046 [Eh]
	 Total Energy              =    -420.4611495542114881 [Eh]

	 ================> DF-SCS-MP2 Energies <==================
	-----------------------------------------------------------
	 SCS Same-Spin Scale       =       0.3333333333333333 [-]
	 SCS Opposite-Spin Scale   =       1.2000000000000000 [-]
	 SCS Same-Spin Energy      =      -0.1361120736444969 [Eh]
	 SCS Opposite-Spin Energy  =      -1.5440068219908165 [Eh]
	 SCS Correlation Energy    =      -1.6801188956353135 [Eh]
	 SCS Total Energy          =    -420.4462598772543060 [Eh]
	-----------------------------------------------------------

  Dipole Moment: [D]
     X:    -1.5325      Y:     0.6628      Z:    -2.6186     Total:     3.1056

*** Psi4 exiting successfully. Buy a developer a beer!
