                               Psi4 1.3.2 release

  ==> Input File <==

--------------------------------------------------------------------------
#psi4
#
memory 32 gb

molecule  {
0 1
  O        1.2197630    -1.3791890     0.7815710
  O       -2.8493200    -0.0743410    -0.2921690
  O       -1.2471260     1.2289340     0.6316900
  C        1.6098530     0.5514350    -0.6010430
  C        0.7539969    -0.5822100    -0.0915043
  C       -0.6155180    -0.7660970    -0.6108670
  C        2.9764802     0.7211767     0.0414680
  C       -1.5616300     0.2444870    -0.0131750
  H        1.7167540     0.3993790    -1.6843760
  H        1.0152770     1.4637510    -0.4819620
  H       -0.6366420    -0.6467360    -1.7011060
  H       -0.9720840    -1.7722110    -0.3761960
  H        3.5474250    -0.2360290    -0.0491480
  H        3.5302360     1.5116820    -0.3550310
  H        2.8465530     0.8548240     1.1430380
  H       -3.3901630     0.6286630     0.1252190
units angstrom
no_reorient  #important for SAPT in psi4, default
symmetry c1  #important for SAPT in psi4, default
}

set PROPERTIES_ORIGIN ["COM"]
properties('MP2/aug-cc-pvtz', properties = ['dipole'])
--------------------------------------------------------------------------

    Molecular point group: c1
  Charge       = 0
  Multiplicity = 1
  Basis Set: AUG-CC-PVTZ
    Blend: AUG-CC-PVTZ
  Basis Set: (AUG-CC-PVTZ AUX)
    Blend: AUG-CC-PVTZ-JKFIT

    Orbital Energies [Eh]
    ---------------------

    Doubly Occupied:

       1A    -20.635434     2A    -20.573205     3A    -20.553616
       4A    -11.416998     5A    -11.348186     6A    -11.274944
       7A    -11.243117     8A    -11.217880     9A     -1.482228
      10A     -1.379770    11A     -1.359249    12A     -1.094141
      13A     -1.044187    14A     -0.906174    15A     -0.845564
      16A     -0.744129    17A     -0.721568    18A     -0.710848
      19A     -0.682606    20A     -0.649464    21A     -0.629390
      22A     -0.622156    23A     -0.599315    24A     -0.578360
      25A     -0.538586    26A     -0.512196    27A     -0.502467
      28A     -0.499387    29A     -0.486270    30A     -0.463747
      31A     -0.430403

  @DF-RHF Final Energy:  -418.75508726396089

   => Energetics <=

    Nuclear Repulsion Energy =            371.8861173010399739
    One-Electron Energy =               -1309.7912394040074560
    Two-Electron Energy =                 519.1500348390065938
    Total Energy =                       -418.7550872639608315
  Basis Set: (AUG-CC-PVTZ AUX)
    Blend: AUG-CC-PVTZ-RI
    Molecular point group: c1

    Geometry (in Angstrom), charge = 0, multiplicity = 1:

       Center              X                  Y                   Z               Mass
    ------------   -----------------  -----------------  -----------------  -----------------
         O            1.222665597363    -1.384821792672     0.788255271551    15.994914619570
         O           -2.846417402637    -0.079973792672    -0.285484728449    15.994914619570
         O           -1.244223402637     1.223301207328     0.638374271551    15.994914619570
         C            1.612755597363     0.545802207328    -0.594358728449    12.000000000000
         C            0.756899497363    -0.587842792672    -0.084820028449    12.000000000000
         C           -0.612615402637    -0.771729792672    -0.604182728449    12.000000000000
         C            2.979382797363     0.715543907328     0.048152271551    12.000000000000
         C           -1.558727402637     0.238854207328    -0.006490728449    12.000000000000
         H            1.719656597363     0.393746207328    -1.677691728449     1.007825032230
         H            1.018179597363     1.458118207328    -0.475277728449     1.007825032230
         H           -0.633739402637    -0.652368792672    -1.694421728449     1.007825032230
         H           -0.969181402637    -1.777843792672    -0.369511728449     1.007825032230
         H            3.550327597363    -0.241661792672    -0.042463728449     1.007825032230
         H            3.533138597363     1.506049207328    -0.348346728449     1.007825032230
         H            2.849455597363     0.849191207328     1.149722271551     1.007825032230
         H           -3.387260402637     0.623030207328     0.131903271551     1.007825032230

  Basis Set: AUG-CC-PVTZ
    Blend: AUG-CC-PVTZ
  Basis Set: (AUG-CC-PVTZ AUX)
    Blend: AUG-CC-PVTZ-JKFIT
	 Reference Energy          =    -418.7550872639608883 [Eh]
	 Singles Energy            =      -0.0000000000000000 [Eh]
	 Same-Spin Energy          =      -0.4098367698529582 [Eh]
	 Opposite-Spin Energy      =      -1.2899844444549549 [Eh]
	 Correlation Energy        =      -1.6998212143079132 [Eh]
	 Total Energy              =    -420.4549084782688055 [Eh]

	 ================> DF-SCS-MP2 Energies <==================
	-----------------------------------------------------------
	 SCS Same-Spin Scale       =       0.3333333333333333 [-]
	 SCS Opposite-Spin Scale   =       1.2000000000000000 [-]
	 SCS Same-Spin Energy      =      -0.1366122566176527 [Eh]
	 SCS Opposite-Spin Energy  =      -1.5479813333459458 [Eh]
	 SCS Correlation Energy    =      -1.6845935899635984 [Eh]
	 SCS Total Energy          =    -420.4396808539244716 [Eh]
	-----------------------------------------------------------

  Dipole Moment: [D]
     X:    -1.5474      Y:     0.8720      Z:    -2.6706     Total:     3.2073

*** Psi4 exiting successfully. Buy a developer a beer!
