                               Psi4 1.3.2 release

  ==> Input File <==

--------------------------------------------------------------------------
#psi4
#
memory 32 gb

molecule  {
0 1
  O        1.2197630    -1.3791890     0.7815710
  O       -2.8493200    -0.0743410    -0.2921690
  O       -1.2471260     1.2289340     0.6316900
  C        1.6098530     0.5514350    -0.6010430
  C        0.7383253    -0.6708954    -0.0218791
  C       -0.6155180    -0.7660970    -0.6108670
  C        2.9660570     0.6794250     0.0724790
  C       -1.5616300     0.2444870    -0.0131750
  H        1.7167540     0.3993790    -1.6843760
  H        1.0152770     1.4637510    -0.4819620
  H       -0.6366420    -0.6467360    -1.7011060
  H       -0.9720840    -1.7722110    -0.3761960
  H        3.5474250    -0.2360290    -0.0491480
  H        3.5302360     1.5116820    -0.3550310
  H        2.8465530     0.8548240     1.1430380
  H       -3.3901630     0.6286630     0.1252190
units angstrom
no_reorient  #important for SAPT in psi4, default
symmetry c1  #important for SAPT in psi4, default
}

set PROPERTIES_ORIGIN ["COM"]
properties('MP2/aug-cc-pvtz', properties = ['dipole'])
--------------------------------------------------------------------------

    Molecular point group: c1
  Charge       = 0
  Multiplicity = 1
  Basis Set: AUG-CC-PVTZ
    Blend: AUG-CC-PVTZ
  Basis Set: (AUG-CC-PVTZ AUX)
    Blend: AUG-CC-PVTZ-JKFIT

    Orbital Energies [Eh]
    ---------------------

    Doubly Occupied:

       1A    -20.634651     2A    -20.572048     3A    -20.561746
       4A    -11.416105     5A    -11.339587     6A    -11.271467
       7A    -11.235232     8A    -11.212236     9A     -1.481301
      10A     -1.425278    11A     -1.378000    12A     -1.087611
      13A     -1.030332    14A     -0.890571    15A     -0.839561
      16A     -0.745374    17A     -0.722389    18A     -0.710167
      19A     -0.686207    20A     -0.649428    21A     -0.639346
      22A     -0.625857    23A     -0.597904    24A     -0.580524
      25A     -0.533180    26A     -0.526299    27A     -0.512579
      28A     -0.502904    29A     -0.490879    30A     -0.471399
      31A     -0.407770

  @DF-RHF Final Energy:  -418.76169604685128

   => Energetics <=

    Nuclear Repulsion Energy =            372.5065447167831962
    One-Electron Energy =               -1310.9806201857925316
    Two-Electron Energy =                 519.7123794221580511
    Total Energy =                       -418.7616960468512843
  Basis Set: (AUG-CC-PVTZ AUX)
    Blend: AUG-CC-PVTZ-RI
    Molecular point group: c1

    Geometry (in Angstrom), charge = 0, multiplicity = 1:

       Center              X                  Y                   Z               Mass
    ------------   -----------------  -----------------  -----------------  -----------------
         O            1.225363958126    -1.371333804542     0.777848877427    15.994914619570
         O           -2.843719041874    -0.066485804542    -0.295891122573    15.994914619570
         O           -1.241525041874     1.236789195458     0.627967877427    15.994914619570
         C            1.615453958126     0.559290195458    -0.604765122573    12.000000000000
         C            0.743926258126    -0.663040204542    -0.025601222573    12.000000000000
         C           -0.609917041874    -0.758241804542    -0.614589122573    12.000000000000
         C            2.971657958126     0.687280195458     0.068756877427    12.000000000000
         C           -1.556029041874     0.252342195458    -0.016897122573    12.000000000000
         H            1.722354958126     0.407234195458    -1.688098122573     1.007825032230
         H            1.020877958126     1.471606195458    -0.485684122573     1.007825032230
         H           -0.631041041874    -0.638880804542    -1.704828122573     1.007825032230
         H           -0.966483041874    -1.764355804542    -0.379918122573     1.007825032230
         H            3.553025958126    -0.228173804542    -0.052870122573     1.007825032230
         H            3.535836958126     1.519537195458    -0.358753122573     1.007825032230
         H            2.852153958126     0.862679195458     1.139315877427     1.007825032230
         H           -3.384562041874     0.636518195458     0.121496877427     1.007825032230

  Basis Set: AUG-CC-PVTZ
    Blend: AUG-CC-PVTZ
  Basis Set: (AUG-CC-PVTZ AUX)
    Blend: AUG-CC-PVTZ-JKFIT
	 Reference Energy          =    -418.7616960468512843 [Eh]
	 Singles Energy            =      -0.0000000000000000 [Eh]
	 Same-Spin Energy          =      -0.4071097883756040 [Eh]
	 Opposite-Spin Energy      =      -1.2843963990371687 [Eh]
	 Correlation Energy        =      -1.6915061874127728 [Eh]
	 Total Energy              =    -420.4532022342640403 [Eh]

	 ================> DF-SCS-MP2 Energies <==================
	-----------------------------------------------------------
	 SCS Same-Spin Scale       =       0.3333333333333333 [-]
	 SCS Opposite-Spin Scale   =       1.2000000000000000 [-]
	 SCS Same-Spin Energy      =      -0.1357032627918680 [Eh]
	 SCS Opposite-Spin Energy  =      -1.5412756788446025 [Eh]
	 SCS Correlation Energy    =      -1.6769789416364704 [Eh]
	 SCS Total Energy          =    -420.4386749884877759 [Eh]
	-----------------------------------------------------------

  Dipole Moment: [D]
     X:    -1.6681      Y:     0.4396      Z:    -2.3715     Total:     2.9326

*** Psi4 exiting successfully. Buy a developer a beer!
