                               Psi4 1.4a3.dev225

  ==> Input File <==

--------------------------------------------------------------------------
#psi4
#
memory 32 gb

molecule  {
0 1
  O        1.1896460     1.3864710    -0.7896670
  O       -2.9164350     0.0620530     0.2465870
  O       -1.2994600    -1.1722570    -0.7513140
  C        1.5277270    -0.5390120     0.6173550
  C        0.7435743     0.5964577     0.0522208
  C       -0.6915030     0.7929470     0.5540020
  C        2.9119880    -0.6669770    -0.0005940
  C       -1.6259000    -0.2196380    -0.0638170
  H        1.5906630    -0.3916430     1.7048170
  H        0.9378800    -1.4511620     0.4690430
  H       -0.7449460     0.6872940     1.6445860
  H       -1.0362610     1.7983420     0.2961770
  H        3.4930330     0.2441750     0.1549910
  H        3.4532110    -1.5066350     0.4428820
  H        2.8367130    -0.8315610    -1.0772290
  H       -3.4525110    -0.6329900    -0.1896390
units angstrom
no_reorient  #important for SAPT in psi4, default
symmetry c1  #important for SAPT in psi4, default
}

set PROPERTIES_ORIGIN ["COM"]
properties('MP2/aug-cc-pvtz', properties = ['dipole'])
--------------------------------------------------------------------------

    Molecular point group: c1
  Charge       = 0
  Multiplicity = 1
  Basis Set: AUG-CC-PVTZ
    Blend: AUG-CC-PVTZ
  Basis Set: (AUG-CC-PVTZ AUX)
    Blend: AUG-CC-PVTZ-JKFIT

    Orbital Energies [Eh]
    ---------------------

    Doubly Occupied:

       1A    -20.632674     2A    -20.570381     3A    -20.555774
       4A    -11.413393     5A    -11.345517     6A    -11.272033
       7A    -11.242989     8A    -11.218644     9A     -1.478291
      10A     -1.381541    11A     -1.374514    12A     -1.085393
      13A     -1.043072    14A     -0.904187    15A     -0.839671
      16A     -0.741842    17A     -0.719119    18A     -0.706482
      19A     -0.678900    20A     -0.649510    21A     -0.633443
      22A     -0.623209    23A     -0.598346    24A     -0.575959
      25A     -0.526407    26A     -0.517538    27A     -0.515088
      28A     -0.502204    29A     -0.488918    30A     -0.468789
      31A     -0.426322

  @DF-RHF Final Energy:  -418.76575223817707

   => Energetics <=

    Nuclear Repulsion Energy =            371.7854824788494739
    One-Electron Energy =               -1309.6421685696243458
    Two-Electron Energy =                 519.0909338525979138
    Total Energy =                       -418.7657522381770150
  Basis Set: (AUG-CC-PVTZ AUX)
    Blend: AUG-CC-PVTZ-RI
    Molecular point group: c1

    Geometry (in Angstrom), charge = 0, multiplicity = 1:

       Center              X                  Y                   Z               Mass
    ------------   -----------------  -----------------  -----------------  -----------------
         O            1.248938980401     1.370238739659    -0.761048251426    15.994914619570
         O           -2.857142019599     0.045820739659     0.275205748574    15.994914619570
         O           -1.240167019599    -1.188489260341    -0.722695251426    15.994914619570
         C            1.587019980401    -0.555244260341     0.645973748574    12.000000000000
         C            0.802867280401     0.580225439659     0.080839548574    12.000000000000
         C           -0.632210019599     0.776714739659     0.582620748574    12.000000000000
         C            2.971280980401    -0.683209260341     0.028024748574    12.000000000000
         C           -1.566607019599    -0.235870260341    -0.035198251426    12.000000000000
         H            1.649955980401    -0.407875260341     1.733435748574     1.007825032230
         H            0.997172980401    -1.467394260341     0.497661748574     1.007825032230
         H           -0.685653019599     0.671061739659     1.673204748574     1.007825032230
         H           -0.976968019599     1.782109739659     0.324795748574     1.007825032230
         H            3.552325980401     0.227942739659     0.183609748574     1.007825032230
         H            3.512503980401    -1.522867260341     0.471500748574     1.007825032230
         H            2.896005980401    -0.847793260341    -1.048610251426     1.007825032230
         H           -3.393218019599    -0.649222260341    -0.161020251426     1.007825032230

  Basis Set: AUG-CC-PVTZ
    Blend: AUG-CC-PVTZ
  Basis Set: (AUG-CC-PVTZ AUX)
    Blend: AUG-CC-PVTZ-JKFIT
	 Reference Energy          =    -418.7657522381770718 [Eh]
	 Singles Energy            =      -0.0000000000000000 [Eh]
	 Same-Spin Energy          =      -0.4085717224652551 [Eh]
	 Opposite-Spin Energy      =      -1.2874803462947400 [Eh]
	 Correlation Energy        =      -1.6960520687599949 [Eh]
	 Total Energy              =    -420.4618043069370401 [Eh]

	 ================> DF-SCS-MP2 Energies <==================
	-----------------------------------------------------------
	 SCS Same-Spin Scale       =       0.3333333333333333 [-]
	 SCS Opposite-Spin Scale   =       1.2000000000000000 [-]
	 SCS Same-Spin Energy      =      -0.1361905741550850 [Eh]
	 SCS Opposite-Spin Energy  =      -1.5449764155536878 [Eh]
	 SCS Correlation Energy    =      -1.6811669897087729 [Eh]
	 SCS Total Energy          =    -420.4469192278858714 [Eh]
	-----------------------------------------------------------

  Dipole Moment: [D]
     X:    -1.3692      Y:    -0.8598      Z:     2.6189     Total:     3.0777

*** Psi4 exiting successfully. Buy a developer a beer!
