                               Psi4 1.3.2 release

  ==> Input File <==

--------------------------------------------------------------------------
#psi4
#
memory 32 gb

molecule  {
0 1
  O        1.2197630    -1.3791890     0.7815710
  O       -2.8493200    -0.0743410    -0.2921690
  O       -1.2471260     1.2289340     0.6316900
  C        1.6098530     0.5514350    -0.6010430
  C        0.7540702    -0.5608207    -0.0462518
  C       -0.6155180    -0.7660970    -0.6108670
  C        2.9660570     0.6794250     0.0724790
  C       -1.5616300     0.2444870    -0.0131750
  H        1.7167540     0.3993790    -1.6843760
  H        0.9874206     1.4427517    -0.4663067
  H       -0.6366420    -0.6467360    -1.7011060
  H       -0.9720840    -1.7722110    -0.3761960
  H        3.5474250    -0.2360290    -0.0491480
  H        3.5302360     1.5116820    -0.3550310
  H        2.8465530     0.8548240     1.1430380
  H       -3.3901630     0.6286630     0.1252190
units angstrom
no_reorient  #important for SAPT in psi4, default
symmetry c1  #important for SAPT in psi4, default
}

set PROPERTIES_ORIGIN ["COM"]
properties('MP2/aug-cc-pvtz', properties = ['dipole'])
--------------------------------------------------------------------------

    Molecular point group: c1
  Charge       = 0
  Multiplicity = 1
  Basis Set: AUG-CC-PVTZ
    Blend: AUG-CC-PVTZ
  Basis Set: (AUG-CC-PVTZ AUX)
    Blend: AUG-CC-PVTZ-JKFIT

    Orbital Energies [Eh]
    ---------------------

    Doubly Occupied:

       1A    -20.634326     2A    -20.572848     3A    -20.553845
       4A    -11.415372     5A    -11.345555     6A    -11.273525
       7A    -11.242170     8A    -11.217395     9A     -1.481458
      10A     -1.379791    11A     -1.368651    12A     -1.090591
      13A     -1.043374    14A     -0.903874    15A     -0.842363
      16A     -0.743378    17A     -0.720586    18A     -0.710378
      19A     -0.681418    20A     -0.647135    21A     -0.632958
      22A     -0.622381    23A     -0.600381    24A     -0.575365
      25A     -0.525565    26A     -0.516654    27A     -0.511621
      28A     -0.503289    29A     -0.489303    30A     -0.467163
      31A     -0.426815

  @DF-RHF Final Energy:  -418.76156136389591

   => Energetics <=

    Nuclear Repulsion Energy =            372.4598851045212200
    One-Electron Energy =               -1310.9638422830755644
    Two-Electron Energy =                 519.7423958146584937
    Total Energy =                       -418.7615613638959076
  Basis Set: (AUG-CC-PVTZ AUX)
    Blend: AUG-CC-PVTZ-RI
    Molecular point group: c1

    Geometry (in Angstrom), charge = 0, multiplicity = 1:

       Center              X                  Y                   Z               Mass
    ------------   -----------------  -----------------  -----------------  -----------------
         O            1.223977761622    -1.382533826306     0.780233202539    15.994914619570
         O           -2.845105238378    -0.077685826306    -0.293506797461    15.994914619570
         O           -1.242911238378     1.225589173694     0.630352202539    15.994914619570
         C            1.614067761622     0.548090173694    -0.602380797461    12.000000000000
         C            0.758284961622    -0.564165526306    -0.047589597461    12.000000000000
         C           -0.611303238378    -0.769441826306    -0.612204797461    12.000000000000
         C            2.970271761622     0.676080173694     0.071141202539    12.000000000000
         C           -1.557415238378     0.241142173694    -0.014512797461    12.000000000000
         H            1.720968761622     0.396034173694    -1.685713797461     1.007825032230
         H            0.991635361622     1.439406873694    -0.467644497461     1.007825032230
         H           -0.632427238378    -0.650080826306    -1.702443797461     1.007825032230
         H           -0.967869238378    -1.775555826306    -0.377533797461     1.007825032230
         H            3.551639761622    -0.239373826306    -0.050485797461     1.007825032230
         H            3.534450761622     1.508337173694    -0.356368797461     1.007825032230
         H            2.850767761622     0.851479173694     1.141700202539     1.007825032230
         H           -3.385948238378     0.625318173694     0.123881202539     1.007825032230

  Basis Set: AUG-CC-PVTZ
    Blend: AUG-CC-PVTZ
  Basis Set: (AUG-CC-PVTZ AUX)
    Blend: AUG-CC-PVTZ-JKFIT
	 Reference Energy          =    -418.7615613638959076 [Eh]
	 Singles Energy            =      -0.0000000000000000 [Eh]
	 Same-Spin Energy          =      -0.4092928236174928 [Eh]
	 Opposite-Spin Energy      =      -1.2886863708499821 [Eh]
	 Correlation Energy        =      -1.6979791944674747 [Eh]
	 Total Energy              =    -420.4595405583633578 [Eh]

	 ================> DF-SCS-MP2 Energies <==================
	-----------------------------------------------------------
	 SCS Same-Spin Scale       =       0.3333333333333333 [-]
	 SCS Opposite-Spin Scale   =       1.2000000000000000 [-]
	 SCS Same-Spin Energy      =      -0.1364309412058309 [Eh]
	 SCS Opposite-Spin Energy  =      -1.5464236450199784 [Eh]
	 SCS Correlation Energy    =      -1.6828545862258093 [Eh]
	 SCS Total Energy          =    -420.4444159501217086 [Eh]
	-----------------------------------------------------------

  Dipole Moment: [D]
     X:    -1.4914      Y:     0.8287      Z:    -2.6115     Total:     3.1194

*** Psi4 exiting successfully. Buy a developer a beer!
