                               Psi4 1.3.2 release

  ==> Input File <==

--------------------------------------------------------------------------
#psi4
#
memory 32 gb

molecule  {
0 1
  O        1.2197630    -1.3791890     0.7815710
  O       -2.8493200    -0.0743410    -0.2921690
  O       -1.2471260     1.2289340     0.6316900
  C        1.6098530     0.5514350    -0.6010430
  C        0.7924890    -0.5949300    -0.0578730
  C       -0.6155180    -0.7660970    -0.6108670
  C        2.9660570     0.6794250     0.0724790
  C       -1.5545246     0.2252821    -0.0250261
  H        1.7167540     0.3993790    -1.6843760
  H        1.0152770     1.4637510    -0.4819620
  H       -0.6366420    -0.6467360    -1.7011060
  H       -0.9720840    -1.7722110    -0.3761960
  H        3.5474250    -0.2360290    -0.0491480
  H        3.5302360     1.5116820    -0.3550310
  H        2.8465530     0.8548240     1.1430380
  H       -3.4043244     0.6209696     0.1194763
units angstrom
no_reorient  #important for SAPT in psi4, default
symmetry c1  #important for SAPT in psi4, default
}

set PROPERTIES_ORIGIN ["COM"]
properties('MP2/aug-cc-pvtz', properties = ['dipole'])
--------------------------------------------------------------------------

    Molecular point group: c1
  Charge       = 0
  Multiplicity = 1
  Basis Set: AUG-CC-PVTZ
    Blend: AUG-CC-PVTZ
  Basis Set: (AUG-CC-PVTZ AUX)
    Blend: AUG-CC-PVTZ-JKFIT

    Orbital Energies [Eh]
    ---------------------

    Doubly Occupied:

       1A    -20.632653     2A    -20.567194     3A    -20.557870
       4A    -11.415219     5A    -11.345557     6A    -11.272612
       7A    -11.241587     8A    -11.217331     9A     -1.474592
      10A     -1.389913    11A     -1.364642    12A     -1.089449
      13A     -1.044890    14A     -0.903680    15A     -0.842043
      16A     -0.743128    17A     -0.718771    18A     -0.705763
      19A     -0.682017    20A     -0.648400    21A     -0.630665
      22A     -0.626924    23A     -0.595403    24A     -0.577712
      25A     -0.526720    26A     -0.518434    27A     -0.515456
      28A     -0.499156    29A     -0.487460    30A     -0.468592
      31A     -0.426113

  @DF-RHF Final Energy:  -418.76499811623148

   => Energetics <=

    Nuclear Repulsion Energy =            372.1783706466476929
    One-Electron Energy =               -1310.4268486436667445
    Two-Electron Energy =                 519.4834798807876268
    Total Energy =                       -418.7649981162314816
  Basis Set: (AUG-CC-PVTZ AUX)
    Blend: AUG-CC-PVTZ-RI
    Molecular point group: c1

    Geometry (in Angstrom), charge = 0, multiplicity = 1:

       Center              X                  Y                   Z               Mass
    ------------   -----------------  -----------------  -----------------  -----------------
         O            1.219151347299    -1.377136370762     0.782846213998    15.994914619570
         O           -2.849931652701    -0.072288370762    -0.290893786002    15.994914619570
         O           -1.247737652701     1.230986629238     0.632965213998    15.994914619570
         C            1.609241347299     0.553487629238    -0.599767786002    12.000000000000
         C            0.791877347299    -0.592877370762    -0.056597786002    12.000000000000
         C           -0.616129652701    -0.764044370762    -0.609591786002    12.000000000000
         C            2.965445347299     0.681477629238     0.073754213998    12.000000000000
         C           -1.555136252701     0.227334729238    -0.023750886002    12.000000000000
         H            1.716142347299     0.401431629238    -1.683100786002     1.007825032230
         H            1.014665347299     1.465803629238    -0.480686786002     1.007825032230
         H           -0.637253652701    -0.644683370762    -1.699830786002     1.007825032230
         H           -0.972695652701    -1.770158370762    -0.374920786002     1.007825032230
         H            3.546813347299    -0.233976370762    -0.047872786002     1.007825032230
         H            3.529624347299     1.513734629238    -0.353755786002     1.007825032230
         H            2.845941347299     0.856876629238     1.144313213998     1.007825032230
         H           -3.404936052701     0.623022229238     0.120751513998     1.007825032230

  Basis Set: AUG-CC-PVTZ
    Blend: AUG-CC-PVTZ
  Basis Set: (AUG-CC-PVTZ AUX)
    Blend: AUG-CC-PVTZ-JKFIT
	 Reference Energy          =    -418.7649981162314816 [Eh]
	 Singles Energy            =      -0.0000000000000000 [Eh]
	 Same-Spin Energy          =      -0.4087360837312237 [Eh]
	 Opposite-Spin Energy      =      -1.2875382099174884 [Eh]
	 Correlation Energy        =      -1.6962742936487121 [Eh]
	 Total Energy              =    -420.4612724098801664 [Eh]

	 ================> DF-SCS-MP2 Energies <==================
	-----------------------------------------------------------
	 SCS Same-Spin Scale       =       0.3333333333333333 [-]
	 SCS Opposite-Spin Scale   =       1.2000000000000000 [-]
	 SCS Same-Spin Energy      =      -0.1362453612437412 [Eh]
	 SCS Opposite-Spin Energy  =      -1.5450458519009860 [Eh]
	 SCS Correlation Energy    =      -1.6812912131447273 [Eh]
	 SCS Total Energy          =    -420.4462893293762136 [Eh]
	-----------------------------------------------------------

  Dipole Moment: [D]
     X:    -1.3280      Y:     0.6702      Z:    -2.6262     Total:     3.0182

*** Psi4 exiting successfully. Buy a developer a beer!
