                               Psi4 1.3.2 release

  ==> Input File <==

--------------------------------------------------------------------------
#psi4
#
memory 32 gb

molecule  {
0 1
  O        1.2197630    -1.3791890     0.7815710
  O       -2.8564306    -0.0551938    -0.2802281
  O       -1.2471260     1.2289340     0.6316900
  C        1.6098530     0.5514350    -0.6010430
  C        0.7924890    -0.5949300    -0.0578730
  C       -0.5952099    -0.7525810    -0.6009941
  C        2.9660570     0.6794250     0.0724790
  C       -1.5616300     0.2444870    -0.0131750
  H        1.7167540     0.3993790    -1.6843760
  H        1.0152770     1.4637510    -0.4819620
  H       -0.6366420    -0.6467360    -1.7011060
  H       -0.9720840    -1.7722110    -0.3761960
  H        3.5474250    -0.2360290    -0.0491480
  H        3.5302360     1.5116820    -0.3550310
  H        2.8465530     0.8548240     1.1430380
  H       -3.3901630     0.6286630     0.1252190
units angstrom
no_reorient  #important for SAPT in psi4, default
symmetry c1  #important for SAPT in psi4, default
}

set PROPERTIES_ORIGIN ["COM"]
properties('MP2/aug-cc-pvtz', properties = ['dipole'])
--------------------------------------------------------------------------

    Molecular point group: c1
  Charge       = 0
  Multiplicity = 1
  Basis Set: AUG-CC-PVTZ
    Blend: AUG-CC-PVTZ
  Basis Set: (AUG-CC-PVTZ AUX)
    Blend: AUG-CC-PVTZ-JKFIT

    Orbital Energies [Eh]
    ---------------------

    Doubly Occupied:

       1A    -20.630598     2A    -20.568640     3A    -20.557398
       4A    -11.413759     5A    -11.343616     6A    -11.273646
       7A    -11.241148     8A    -11.217102     9A     -1.481980
      10A     -1.390163    11A     -1.376184    12A     -1.088006
      13A     -1.042306    14A     -0.904189    15A     -0.844731
      16A     -0.744190    17A     -0.722038    18A     -0.707762
      19A     -0.680758    20A     -0.650106    21A     -0.632251
      22A     -0.628751    23A     -0.597676    24A     -0.574701
      25A     -0.524824    26A     -0.518570    27A     -0.515076
      28A     -0.502142    29A     -0.490460    30A     -0.467962
      31A     -0.427529

  @DF-RHF Final Energy:  -418.76812982015321

   => Energetics <=

    Nuclear Repulsion Energy =            372.6184334297591931
    One-Electron Energy =               -1311.2566024507170823
    Two-Electron Energy =                 519.8700392008046265
    Total Energy =                       -418.7681298201532627
  Basis Set: (AUG-CC-PVTZ AUX)
    Blend: AUG-CC-PVTZ-RI
    Molecular point group: c1

    Geometry (in Angstrom), charge = 0, multiplicity = 1:

       Center              X                  Y                   Z               Mass
    ------------   -----------------  -----------------  -----------------  -----------------
         O            1.218643182515    -1.383225801207     0.778904121947    15.994914619570
         O           -2.857550417485    -0.059230601207    -0.282894978053    15.994914619570
         O           -1.248245817485     1.224897198793     0.629023121947    15.994914619570
         C            1.608733182515     0.547398198793    -0.603709878053    12.000000000000
         C            0.791369182515    -0.598966801207    -0.060539878053    12.000000000000
         C           -0.596329717485    -0.756617801207    -0.603660978053    12.000000000000
         C            2.964937182515     0.675388198793     0.069812121947    12.000000000000
         C           -1.562749817485     0.240450198793    -0.015841878053    12.000000000000
         H            1.715634182515     0.395342198793    -1.687042878053     1.007825032230
         H            1.014157182515     1.459714198793    -0.484628878053     1.007825032230
         H           -0.637761817485    -0.650772801207    -1.703772878053     1.007825032230
         H           -0.973203817485    -1.776247801207    -0.378862878053     1.007825032230
         H            3.546305182515    -0.240065801207    -0.051814878053     1.007825032230
         H            3.529116182515     1.507645198793    -0.357697878053     1.007825032230
         H            2.845433182515     0.850787198793     1.140371121947     1.007825032230
         H           -3.391282817485     0.624626198793     0.122552121947     1.007825032230

  Basis Set: AUG-CC-PVTZ
    Blend: AUG-CC-PVTZ
  Basis Set: (AUG-CC-PVTZ AUX)
    Blend: AUG-CC-PVTZ-JKFIT
	 Reference Energy          =    -418.7681298201532059 [Eh]
	 Singles Energy            =      -0.0000000000000000 [Eh]
	 Same-Spin Energy          =      -0.4079544474471931 [Eh]
	 Opposite-Spin Energy      =      -1.2858223472797534 [Eh]
	 Correlation Energy        =      -1.6937767947269466 [Eh]
	 Total Energy              =    -420.4619066148801494 [Eh]

	 ================> DF-SCS-MP2 Energies <==================
	-----------------------------------------------------------
	 SCS Same-Spin Scale       =       0.3333333333333333 [-]
	 SCS Opposite-Spin Scale   =       1.2000000000000000 [-]
	 SCS Same-Spin Energy      =      -0.1359848158157310 [Eh]
	 SCS Opposite-Spin Energy  =      -1.5429868167357041 [Eh]
	 SCS Correlation Energy    =      -1.6789716325514352 [Eh]
	 SCS Total Energy          =    -420.4471014527046577 [Eh]
	-----------------------------------------------------------

  Dipole Moment: [D]
     X:    -1.3415      Y:     0.7454      Z:    -2.5843     Total:     3.0056

*** Psi4 exiting successfully. Buy a developer a beer!
