                               Psi4 1.3.2 release

  ==> Input File <==

--------------------------------------------------------------------------
#psi4
#
memory 32 gb

molecule  {
0 1
  O        1.2197630    -1.3791890     0.7815710
  O       -2.8493200    -0.0743410    -0.2921690
  O       -1.2471260     1.2289340     0.6316900
  C        1.6098530     0.5514350    -0.6010430
  C        0.7924890    -0.5949300    -0.0578730
  C       -0.6155180    -0.7660970    -0.6108670
  C        2.9660570     0.6794250     0.0724790
  C       -1.5586456     0.2400784    -0.0011415
  H        1.7167540     0.3993790    -1.6843760
  H        1.0152770     1.4637510    -0.4819620
  H       -0.6302660    -0.6538246    -1.7019636
  H       -0.9720840    -1.7722110    -0.3761960
  H        3.5474250    -0.2360290    -0.0491480
  H        3.5302360     1.5116820    -0.3550310
  H        2.8465530     0.8548240     1.1430380
  H       -3.3901630     0.6286630     0.1252190
units angstrom
no_reorient  #important for SAPT in psi4, default
symmetry c1  #important for SAPT in psi4, default
}

set PROPERTIES_ORIGIN ["COM"]
properties('MP2/aug-cc-pvtz', properties = ['dipole'])
--------------------------------------------------------------------------

    Molecular point group: c1
  Charge       = 0
  Multiplicity = 1
  Basis Set: AUG-CC-PVTZ
    Blend: AUG-CC-PVTZ
  Basis Set: (AUG-CC-PVTZ AUX)
    Blend: AUG-CC-PVTZ-JKFIT

    Orbital Energies [Eh]
    ---------------------

    Doubly Occupied:

       1A    -20.631636     2A    -20.571392     3A    -20.556694
       4A    -11.413353     5A    -11.343924     6A    -11.271215
       7A    -11.241390     8A    -11.217229     9A     -1.478694
      10A     -1.389027    11A     -1.377188    12A     -1.085103
      13A     -1.041993    14A     -0.901423    15A     -0.838725
      16A     -0.742530    17A     -0.719699    18A     -0.707818
      19A     -0.680471    20A     -0.647896    21A     -0.632418
      22A     -0.626143    23A     -0.599639    24A     -0.576552
      25A     -0.526014    26A     -0.518698    27A     -0.515259
      28A     -0.503738    29A     -0.491376    30A     -0.469368
      31A     -0.424497

  @DF-RHF Final Energy:  -418.76783564814343

   => Energetics <=

    Nuclear Repulsion Energy =            372.2742016474191473
    One-Electron Energy =               -1310.6018701288398915
    Two-Electron Energy =                 519.5598328332772553
    Total Energy =                       -418.7678356481434321
  Basis Set: (AUG-CC-PVTZ AUX)
    Blend: AUG-CC-PVTZ-RI
    Molecular point group: c1

    Geometry (in Angstrom), charge = 0, multiplicity = 1:

       Center              X                  Y                   Z               Mass
    ------------   -----------------  -----------------  -----------------  -----------------
         O            1.219399124569    -1.378671650470     0.780333976185    15.994914619570
         O           -2.849683875431    -0.073823650470    -0.293406023815    15.994914619570
         O           -1.247489875431     1.229451349530     0.630452976185    15.994914619570
         C            1.609489124569     0.551952349530    -0.602280023815    12.000000000000
         C            0.792125124569    -0.594412650470    -0.059110023815    12.000000000000
         C           -0.615881875431    -0.765579650470    -0.612104023815    12.000000000000
         C            2.965693124569     0.679942349530     0.071241976185    12.000000000000
         C           -1.559009475431     0.240595749530    -0.002378523815    12.000000000000
         H            1.716390124569     0.399896349530    -1.685613023815     1.007825032230
         H            1.014913124569     1.464268349530    -0.483199023815     1.007825032230
         H           -0.630629875431    -0.653307250470    -1.703200623815     1.007825032230
         H           -0.972447875431    -1.771693650470    -0.377433023815     1.007825032230
         H            3.547061124569    -0.235511650470    -0.050385023815     1.007825032230
         H            3.529872124569     1.512199349530    -0.356268023815     1.007825032230
         H            2.846189124569     0.855341349530     1.141800976185     1.007825032230
         H           -3.390526875431     0.629180349530     0.123981976185     1.007825032230

  Basis Set: AUG-CC-PVTZ
    Blend: AUG-CC-PVTZ
  Basis Set: (AUG-CC-PVTZ AUX)
    Blend: AUG-CC-PVTZ-JKFIT
	 Reference Energy          =    -418.7678356481434321 [Eh]
	 Singles Energy            =      -0.0000000000000000 [Eh]
	 Same-Spin Energy          =      -0.4081958247862189 [Eh]
	 Opposite-Spin Energy      =      -1.2865619802709163 [Eh]
	 Correlation Energy        =      -1.6947578050571352 [Eh]
	 Total Energy              =    -420.4625934532005544 [Eh]

	 ================> DF-SCS-MP2 Energies <==================
	-----------------------------------------------------------
	 SCS Same-Spin Scale       =       0.3333333333333333 [-]
	 SCS Opposite-Spin Scale   =       1.2000000000000000 [-]
	 SCS Same-Spin Energy      =      -0.1360652749287396 [Eh]
	 SCS Opposite-Spin Energy  =      -1.5438743763250995 [Eh]
	 SCS Correlation Energy    =      -1.6799396512538392 [Eh]
	 SCS Total Energy          =    -420.4477752993972786 [Eh]
	-----------------------------------------------------------

  Dipole Moment: [D]
     X:    -1.3161      Y:     0.7906      Z:    -2.5355     Total:     2.9641

*** Psi4 exiting successfully. Buy a developer a beer!
