                               Psi4 1.4a3.dev225

  ==> Input File <==

--------------------------------------------------------------------------
#psi4
#
memory 32 gb

molecule  {
0 1
  O        1.1896460     1.3864710    -0.7896670
  O       -2.9164350     0.0620530     0.2465870
  O       -1.2994600    -1.1722570    -0.7513140
  C        1.5277270    -0.5390120     0.6173550
  C        0.7330570     0.6116870     0.0446410
  C       -0.6915030     0.7929470     0.5540020
  C        2.9119880    -0.6669770    -0.0005940
  C       -1.5783455    -0.2300179    -0.0752550
  H        1.5906630    -0.3916430     1.7048170
  H        0.9378800    -1.4511620     0.4690430
  H       -0.7449460     0.6872940     1.6445860
  H       -1.0362610     1.7983420     0.2961770
  H        3.4930330     0.2441750     0.1549910
  H        3.4532110    -1.5066350     0.4428820
  H        2.8367130    -0.8315610    -1.0772290
  H       -3.4525110    -0.6329900    -0.1896390
units angstrom
no_reorient  #important for SAPT in psi4, default
symmetry c1  #important for SAPT in psi4, default
}

set PROPERTIES_ORIGIN ["COM"]
properties('MP2/aug-cc-pvtz', properties = ['dipole'])
--------------------------------------------------------------------------

    Molecular point group: c1
  Charge       = 0
  Multiplicity = 1
  Basis Set: AUG-CC-PVTZ
    Blend: AUG-CC-PVTZ
  Basis Set: (AUG-CC-PVTZ AUX)
    Blend: AUG-CC-PVTZ-JKFIT

    Orbital Energies [Eh]
    ---------------------

    Doubly Occupied:

       1A    -20.618269     2A    -20.578758     3A    -20.558722
       4A    -11.412935     5A    -11.346032     6A    -11.273331
       7A    -11.244577     8A    -11.219467     9A     -1.472292
      10A     -1.389758    11A     -1.375597    12A     -1.089530
      13A     -1.044609    14A     -0.900863    15A     -0.829416
      16A     -0.743191    17A     -0.718041    18A     -0.706103
      19A     -0.680000    20A     -0.646631    21A     -0.632528
      22A     -0.624664    23A     -0.605567    24A     -0.574146
      25A     -0.527409    26A     -0.520206    27A     -0.517904
      28A     -0.507916    29A     -0.493694    30A     -0.472789
      31A     -0.425787

  @DF-RHF Final Energy:  -418.76501604896418

   => Energetics <=

    Nuclear Repulsion Energy =            372.1229651915126055
    One-Electron Energy =               -1310.2745014925374107
    Two-Electron Energy =                 519.3865202520606772
    Total Energy =                       -418.7650160489641848
  Basis Set: (AUG-CC-PVTZ AUX)
    Blend: AUG-CC-PVTZ-RI
    Molecular point group: c1

    Geometry (in Angstrom), charge = 0, multiplicity = 1:

       Center              X                  Y                   Z               Mass
    ------------   -----------------  -----------------  -----------------  -----------------
         O            1.245109109038     1.369737282255    -0.759081695434    15.994914619570
         O           -2.860971890962     0.045319282255     0.277172304566    15.994914619570
         O           -1.243996890962    -1.188990717745    -0.720728695434    15.994914619570
         C            1.583190109038    -0.555745717745     0.647940304566    12.000000000000
         C            0.788520109038     0.594953282255     0.075226304566    12.000000000000
         C           -0.636039890962     0.776213282255     0.584587304566    12.000000000000
         C            2.967451109038    -0.683710717745     0.029991304566    12.000000000000
         C           -1.522882390962    -0.246751617745    -0.044669695434    12.000000000000
         H            1.646126109038    -0.408376717745     1.735402304566     1.007825032230
         H            0.993343109038    -1.467895717745     0.499628304566     1.007825032230
         H           -0.689482890962     0.670560282255     1.675171304566     1.007825032230
         H           -0.980797890962     1.781608282255     0.326762304566     1.007825032230
         H            3.548496109038     0.227441282255     0.185576304566     1.007825032230
         H            3.508674109038    -1.523368717745     0.473467304566     1.007825032230
         H            2.892176109038    -0.848294717745    -1.046643695434     1.007825032230
         H           -3.397047890962    -0.649723717745    -0.159053695434     1.007825032230

  Basis Set: AUG-CC-PVTZ
    Blend: AUG-CC-PVTZ
  Basis Set: (AUG-CC-PVTZ AUX)
    Blend: AUG-CC-PVTZ-JKFIT
	 Reference Energy          =    -418.7650160489641848 [Eh]
	 Singles Energy            =      -0.0000000000000000 [Eh]
	 Same-Spin Energy          =      -0.4081918559850986 [Eh]
	 Opposite-Spin Energy      =      -1.2870212680244948 [Eh]
	 Correlation Energy        =      -1.6952131240095933 [Eh]
	 Total Energy              =    -420.4602291729737544 [Eh]

	 ================> DF-SCS-MP2 Energies <==================
	-----------------------------------------------------------
	 SCS Same-Spin Scale       =       0.3333333333333333 [-]
	 SCS Opposite-Spin Scale   =       1.2000000000000000 [-]
	 SCS Same-Spin Energy      =      -0.1360639519950329 [Eh]
	 SCS Opposite-Spin Energy  =      -1.5444255216293936 [Eh]
	 SCS Correlation Energy    =      -1.6804894736244265 [Eh]
	 SCS Total Energy          =    -420.4455055225886326 [Eh]
	-----------------------------------------------------------

  Dipole Moment: [D]
     X:    -0.9832      Y:    -0.8892      Z:     2.4862     Total:     2.8175

*** Psi4 exiting successfully. Buy a developer a beer!
