                               Psi4 1.3.2 release

  ==> Input File <==

--------------------------------------------------------------------------
#psi4
#
memory 32 gb

molecule  {
0 1
  O        1.2197630    -1.3791890     0.7815710
  O       -2.8493200    -0.0743410    -0.2921690
  O       -1.2471260     1.2289340     0.6316900
  C        1.6098530     0.5514350    -0.6010430
  C        0.8120748    -0.6114634    -0.0639327
  C       -0.6155180    -0.7660970    -0.6108670
  C        2.9660570     0.6794250     0.0724790
  C       -1.5616300     0.2444870    -0.0131750
  H        1.7167540     0.3993790    -1.6843760
  H        1.0294790     1.4738354    -0.4898452
  H       -0.6366420    -0.6467360    -1.7011060
  H       -0.9720840    -1.7722110    -0.3761960
  H        3.5474250    -0.2360290    -0.0491480
  H        3.5302360     1.5116820    -0.3550310
  H        2.8465530     0.8548240     1.1430380
  H       -3.3901630     0.6286630     0.1252190
units angstrom
no_reorient  #important for SAPT in psi4, default
symmetry c1  #important for SAPT in psi4, default
}

set PROPERTIES_ORIGIN ["COM"]
properties('MP2/aug-cc-pvtz', properties = ['dipole'])
--------------------------------------------------------------------------

    Molecular point group: c1
  Charge       = 0
  Multiplicity = 1
  Basis Set: AUG-CC-PVTZ
    Blend: AUG-CC-PVTZ
  Basis Set: (AUG-CC-PVTZ AUX)
    Blend: AUG-CC-PVTZ-JKFIT

    Orbital Energies [Eh]
    ---------------------

    Doubly Occupied:

       1A    -20.632128     2A    -20.569175     3A    -20.558272
       4A    -11.412424     5A    -11.343564     6A    -11.270025
       7A    -11.240943     8A    -11.217027     9A     -1.478554
      10A     -1.398032    11A     -1.375154    12A     -1.082521
      13A     -1.041156    14A     -0.900624    15A     -0.838331
      16A     -0.742722    17A     -0.719328    18A     -0.706181
      19A     -0.680851    20A     -0.648792    21A     -0.632064
      22A     -0.628267    23A     -0.597626    24A     -0.577545
      25A     -0.526738    26A     -0.521328    27A     -0.515761
      28A     -0.502516    29A     -0.491196    30A     -0.468899
      31A     -0.422930

  @DF-RHF Final Energy:  -418.76874494939966

   => Energetics <=

    Nuclear Repulsion Energy =            372.1407127149249732
    One-Electron Energy =               -1310.3375659559126234
    Two-Electron Energy =                 519.4281082915879324
    Total Energy =                       -418.7687449493996610
  Basis Set: (AUG-CC-PVTZ AUX)
    Blend: AUG-CC-PVTZ-RI
    Molecular point group: c1

    Geometry (in Angstrom), charge = 0, multiplicity = 1:

       Center              X                  Y                   Z               Mass
    ------------   -----------------  -----------------  -----------------  -----------------
         O            1.217614473311    -1.377567013206     0.782265937465    15.994914619570
         O           -2.851468526689    -0.072719013206    -0.291474062535    15.994914619570
         O           -1.249274526689     1.230555986794     0.632384937465    15.994914619570
         C            1.607704473311     0.553056986794    -0.600348062535    12.000000000000
         C            0.809926273311    -0.609841413206    -0.063237762535    12.000000000000
         C           -0.617666526689    -0.764475013206    -0.610172062535    12.000000000000
         C            2.963908473311     0.681046986794     0.073173937465    12.000000000000
         C           -1.563778526689     0.246108986794    -0.012480062535    12.000000000000
         H            1.714605473311     0.401000986794    -1.683681062535     1.007825032230
         H            1.027330473311     1.475457386794    -0.489150262535     1.007825032230
         H           -0.638790526689    -0.645114013206    -1.700411062535     1.007825032230
         H           -0.974232526689    -1.770589013206    -0.375501062535     1.007825032230
         H            3.545276473311    -0.234407013206    -0.048453062535     1.007825032230
         H            3.528087473311     1.513303986794    -0.354336062535     1.007825032230
         H            2.844404473311     0.856445986794     1.143732937465     1.007825032230
         H           -3.392311526689     0.630284986794     0.125913937465     1.007825032230

  Basis Set: AUG-CC-PVTZ
    Blend: AUG-CC-PVTZ
  Basis Set: (AUG-CC-PVTZ AUX)
    Blend: AUG-CC-PVTZ-JKFIT
	 Reference Energy          =    -418.7687449493996610 [Eh]
	 Singles Energy            =      -0.0000000000000000 [Eh]
	 Same-Spin Energy          =      -0.4078198433594700 [Eh]
	 Opposite-Spin Energy      =      -1.2857792085822721 [Eh]
	 Correlation Energy        =      -1.6935990519417421 [Eh]
	 Total Energy              =    -420.4623440013414211 [Eh]

	 ================> DF-SCS-MP2 Energies <==================
	-----------------------------------------------------------
	 SCS Same-Spin Scale       =       0.3333333333333333 [-]
	 SCS Opposite-Spin Scale   =       1.2000000000000000 [-]
	 SCS Same-Spin Energy      =      -0.1359399477864900 [Eh]
	 SCS Opposite-Spin Energy  =      -1.5429350502987265 [Eh]
	 SCS Correlation Energy    =      -1.6788749980852165 [Eh]
	 SCS Total Energy          =    -420.4476199474848954 [Eh]
	-----------------------------------------------------------

  Dipole Moment: [D]
     X:    -1.2714      Y:     0.7571      Z:    -2.5288     Total:     2.9299

*** Psi4 exiting successfully. Buy a developer a beer!
