                               Psi4 1.4a3.dev225

  ==> Input File <==

--------------------------------------------------------------------------
#psi4
#
memory 32 gb

molecule  {
0 1
  O        1.1896460     1.3864710    -0.7896670
  O       -2.9164350     0.0620530     0.2465870
  O       -1.2994600    -1.1722570    -0.7513140
  C        1.5277270    -0.5390120     0.6173550
  C        0.7330570     0.6116870     0.0446410
  C       -0.6915030     0.7929470     0.5540020
  C        2.9119880    -0.6669770    -0.0005940
  C       -1.6568401    -0.2531671    -0.0842745
  H        1.5906630    -0.3916430     1.7048170
  H        0.9378800    -1.4511620     0.4690430
  H       -0.7449460     0.6872940     1.6445860
  H       -1.0362610     1.7983420     0.2961770
  H        3.4930330     0.2441750     0.1549910
  H        3.4532110    -1.5066350     0.4428820
  H        2.8367130    -0.8315610    -1.0772290
  H       -3.4525110    -0.6329900    -0.1896390
units angstrom
no_reorient  #important for SAPT in psi4, default
symmetry c1  #important for SAPT in psi4, default
}

set PROPERTIES_ORIGIN ["COM"]
properties('MP2/aug-cc-pvtz', properties = ['dipole'])
--------------------------------------------------------------------------

    Molecular point group: c1
  Charge       = 0
  Multiplicity = 1
  Basis Set: AUG-CC-PVTZ
    Blend: AUG-CC-PVTZ
  Basis Set: (AUG-CC-PVTZ AUX)
    Blend: AUG-CC-PVTZ-JKFIT

    Orbital Energies [Eh]
    ---------------------

    Doubly Occupied:

       1A    -20.637974     2A    -20.573549     3A    -20.553638
       4A    -11.411051     5A    -11.340769     6A    -11.268003
       7A    -11.240526     8A    -11.216501     9A     -1.492621
      10A     -1.396168    11A     -1.384053    12A     -1.075833
      13A     -1.033534    14A     -0.898265    15A     -0.840997
      16A     -0.742715    17A     -0.723230    18A     -0.709258
      19A     -0.679414    20A     -0.650528    21A     -0.634245
      22A     -0.624055    23A     -0.599169    24A     -0.575719
      25A     -0.524066    26A     -0.517457    27A     -0.514947
      28A     -0.509587    29A     -0.490782    30A     -0.465705
      31A     -0.420953

  @DF-RHF Final Energy:  -418.76762918440960

   => Energetics <=

    Nuclear Repulsion Energy =            371.8241271017186591
    One-Electron Energy =               -1309.6928865029999542
    Two-Electron Energy =                 519.1011302168717521
    Total Energy =                       -418.7676291844095431
  Basis Set: (AUG-CC-PVTZ AUX)
    Blend: AUG-CC-PVTZ-RI
    Molecular point group: c1

    Geometry (in Angstrom), charge = 0, multiplicity = 1:

       Center              X                  Y                   Z               Mass
    ------------   -----------------  -----------------  -----------------  -----------------
         O            1.253225927283     1.372131050092    -0.758149024369    15.994914619570
         O           -2.852855072717     0.047713050092     0.278104975631    15.994914619570
         O           -1.235880072717    -1.186596949908    -0.719796024369    15.994914619570
         C            1.591306927283    -0.553351949908     0.648872975631    12.000000000000
         C            0.796636927283     0.597347050092     0.076158975631    12.000000000000
         C           -0.627923072717     0.778607050092     0.585519975631    12.000000000000
         C            2.975567927283    -0.681316949908     0.030923975631    12.000000000000
         C           -1.593260172717    -0.267507049908    -0.052756524369    12.000000000000
         H            1.654242927283    -0.405982949908     1.736334975631     1.007825032230
         H            1.001459927283    -1.465501949908     0.500560975631     1.007825032230
         H           -0.681366072717     0.672954050092     1.676103975631     1.007825032230
         H           -0.972681072717     1.784002050092     0.327694975631     1.007825032230
         H            3.556612927283     0.229835050092     0.186508975631     1.007825032230
         H            3.516790927283    -1.520974949908     0.474399975631     1.007825032230
         H            2.900292927283    -0.845900949908    -1.045711024369     1.007825032230
         H           -3.388931072717    -0.647329949908    -0.158121024369     1.007825032230

  Basis Set: AUG-CC-PVTZ
    Blend: AUG-CC-PVTZ
  Basis Set: (AUG-CC-PVTZ AUX)
    Blend: AUG-CC-PVTZ-JKFIT
	 Reference Energy          =    -418.7676291844095999 [Eh]
	 Singles Energy            =      -0.0000000000000000 [Eh]
	 Same-Spin Energy          =      -0.4073950162929333 [Eh]
	 Opposite-Spin Energy      =      -1.2851382934635120 [Eh]
	 Correlation Energy        =      -1.6925333097564454 [Eh]
	 Total Energy              =    -420.4601624941660702 [Eh]

	 ================> DF-SCS-MP2 Energies <==================
	-----------------------------------------------------------
	 SCS Same-Spin Scale       =       0.3333333333333333 [-]
	 SCS Opposite-Spin Scale   =       1.2000000000000000 [-]
	 SCS Same-Spin Energy      =      -0.1357983387643111 [Eh]
	 SCS Opposite-Spin Energy  =      -1.5421659521562143 [Eh]
	 SCS Correlation Energy    =      -1.6779642909205255 [Eh]
	 SCS Total Energy          =    -420.4455934753300994 [Eh]
	-----------------------------------------------------------

  Dipole Moment: [D]
     X:    -1.6764      Y:    -0.9789      Z:     2.4781     Total:     3.1479

*** Psi4 exiting successfully. Buy a developer a beer!
