                               Psi4 1.3.2 release

  ==> Input File <==

--------------------------------------------------------------------------
#psi4
#
memory 32 gb

molecule  {
0 1
  O        1.2197630    -1.3791890     0.7815710
  O       -2.8493200    -0.0743410    -0.2921690
  O       -1.2471260     1.2289340     0.6316900
  C        1.6098530     0.5514350    -0.6010430
  C        0.7925476    -0.5206470    -0.0867584
  C       -0.6155180    -0.7660970    -0.6108670
  C        2.9660570     0.6794250     0.0724790
  C       -1.5616300     0.2444870    -0.0131750
  H        1.7167540     0.3993790    -1.6843760
  H        1.0152770     1.4637510    -0.4819620
  H       -0.6366420    -0.6467360    -1.7011060
  H       -1.0211177    -1.7594022    -0.4027592
  H        3.5474250    -0.2360290    -0.0491480
  H        3.5302360     1.5116820    -0.3550310
  H        2.8465530     0.8548240     1.1430380
  H       -3.3901630     0.6286630     0.1252190
units angstrom
no_reorient  #important for SAPT in psi4, default
symmetry c1  #important for SAPT in psi4, default
}

set PROPERTIES_ORIGIN ["COM"]
properties('MP2/aug-cc-pvtz', properties = ['dipole'])
--------------------------------------------------------------------------

    Molecular point group: c1
  Charge       = 0
  Multiplicity = 1
  Basis Set: AUG-CC-PVTZ
    Blend: AUG-CC-PVTZ
  Basis Set: (AUG-CC-PVTZ AUX)
    Blend: AUG-CC-PVTZ-JKFIT

    Orbital Energies [Eh]
    ---------------------

    Doubly Occupied:

       1A    -20.633367     2A    -20.571124     3A    -20.550673
       4A    -11.413519     5A    -11.350532     6A    -11.274942
       7A    -11.244675     8A    -11.220576     9A     -1.480258
      10A     -1.377814    11A     -1.345121    12A     -1.094333
      13A     -1.049644    14A     -0.913447    15A     -0.841047
      16A     -0.743768    17A     -0.719801    18A     -0.708561
      19A     -0.677732    20A     -0.651048    21A     -0.637641
      22A     -0.617254    23A     -0.599783    24A     -0.568694
      25A     -0.529350    26A     -0.516710    27A     -0.513547
      28A     -0.500491    29A     -0.483087    30A     -0.459996
      31A     -0.431461

  @DF-RHF Final Energy:  -418.75051814058867

   => Energetics <=

    Nuclear Repulsion Energy =            372.1626235681520143
    One-Electron Energy =               -1310.3862909912256782
    Two-Electron Energy =                 519.4731492824849965
    Total Energy =                       -418.7505181405887242
  Basis Set: (AUG-CC-PVTZ AUX)
    Blend: AUG-CC-PVTZ-RI
    Molecular point group: c1

    Geometry (in Angstrom), charge = 0, multiplicity = 1:

       Center              X                  Y                   Z               Mass
    ------------   -----------------  -----------------  -----------------  -----------------
         O            1.220182881262    -1.386981640717     0.784788481810    15.994914619570
         O           -2.848900118738    -0.082133640717    -0.288951518190    15.994914619570
         O           -1.246706118738     1.221141359283     0.634907481810    15.994914619570
         C            1.610272881262     0.543642359283    -0.597825518190    12.000000000000
         C            0.792967481262    -0.528439640717    -0.083540918190    12.000000000000
         C           -0.615098118738    -0.773889640717    -0.607649518190    12.000000000000
         C            2.966476881262     0.671632359283     0.075696481810    12.000000000000
         C           -1.561210118738     0.236694359283    -0.009957518190    12.000000000000
         H            1.717173881262     0.391586359283    -1.681158518190     1.007825032230
         H            1.015696881262     1.455958359283    -0.478744518190     1.007825032230
         H           -0.636222118738    -0.654528640717    -1.697888518190     1.007825032230
         H           -1.020697818738    -1.767194840717    -0.399541718190     1.007825032230
         H            3.547844881262    -0.243821640717    -0.045930518190     1.007825032230
         H            3.530655881262     1.503889359283    -0.351813518190     1.007825032230
         H            2.846972881262     0.847031359283     1.146255481810     1.007825032230
         H           -3.389743118738     0.620870359283     0.128436481810     1.007825032230

  Basis Set: AUG-CC-PVTZ
    Blend: AUG-CC-PVTZ
  Basis Set: (AUG-CC-PVTZ AUX)
    Blend: AUG-CC-PVTZ-JKFIT
	 Reference Energy          =    -418.7505181405886674 [Eh]
	 Singles Energy            =      -0.0000000000000000 [Eh]
	 Same-Spin Energy          =      -0.4106815716792923 [Eh]
	 Opposite-Spin Energy      =      -1.2913151529683928 [Eh]
	 Correlation Energy        =      -1.7019967246476853 [Eh]
	 Total Energy              =    -420.4525148652363669 [Eh]

	 ================> DF-SCS-MP2 Energies <==================
	-----------------------------------------------------------
	 SCS Same-Spin Scale       =       0.3333333333333333 [-]
	 SCS Opposite-Spin Scale   =       1.2000000000000000 [-]
	 SCS Same-Spin Energy      =      -0.1368938572264308 [Eh]
	 SCS Opposite-Spin Energy  =      -1.5495781835620714 [Eh]
	 SCS Correlation Energy    =      -1.6864720407885021 [Eh]
	 SCS Total Energy          =    -420.4369901813771548 [Eh]
	-----------------------------------------------------------

  Dipole Moment: [D]
     X:    -1.3033      Y:     1.0310      Z:    -2.7437     Total:     3.2077

*** Psi4 exiting successfully. Buy a developer a beer!
