                               Psi4 1.3.2 release

  ==> Input File <==

--------------------------------------------------------------------------
#psi4
#
memory 32 gb

molecule  {
0 1
  O        1.2197630    -1.3791890     0.7815710
  O       -2.8493200    -0.0743410    -0.2921690
  O       -1.2471260     1.2289340     0.6316900
  C        1.6098530     0.5514350    -0.6010430
  C        0.7924890    -0.5949300    -0.0578730
  C       -0.6155180    -0.7660970    -0.6108670
  C        2.9660570     0.6794250     0.0724790
  C       -1.5099938     0.4061163     0.0927008
  H        1.7167540     0.3993790    -1.6843760
  H        1.0152770     1.4637510    -0.4819620
  H       -0.6366420    -0.6467360    -1.7011060
  H       -0.9720840    -1.7722110    -0.3761960
  H        3.5474250    -0.2360290    -0.0491480
  H        3.5302360     1.5116820    -0.3550310
  H        2.8465530     0.8548240     1.1430380
  H       -3.3901630     0.6286630     0.1252190
units angstrom
no_reorient  #important for SAPT in psi4, default
symmetry c1  #important for SAPT in psi4, default
}

set PROPERTIES_ORIGIN ["COM"]
properties('MP2/aug-cc-pvtz', properties = ['dipole'])
--------------------------------------------------------------------------

    Molecular point group: c1
  Charge       = 0
  Multiplicity = 1
  Basis Set: AUG-CC-PVTZ
    Blend: AUG-CC-PVTZ
  Basis Set: (AUG-CC-PVTZ AUX)
    Blend: AUG-CC-PVTZ-JKFIT

    Orbital Energies [Eh]
    ---------------------

    Doubly Occupied:

       1A    -20.608137     2A    -20.595964     3A    -20.551755
       4A    -11.395687     5A    -11.336643     6A    -11.262477
       7A    -11.243821     8A    -11.219226     9A     -1.598213
      10A     -1.384180    11A     -1.371859    12A     -1.073875
      13A     -1.022622    14A     -0.889691    15A     -0.807156
      16A     -0.762485    17A     -0.749580    18A     -0.722487
      19A     -0.708702    20A     -0.656649    21A     -0.639229
      22A     -0.624600    23A     -0.605198    24A     -0.576708
      25A     -0.529054    26A     -0.525096    27A     -0.517707
      28A     -0.516036    29A     -0.494117    30A     -0.452534
      31A     -0.412296

  @DF-RHF Final Energy:  -418.68609017651647

   => Energetics <=

    Nuclear Repulsion Energy =            373.7711188205839790
    One-Electron Energy =               -1313.2068560213758701
    Two-Electron Energy =                 520.7496470242754185
    Total Energy =                       -418.6860901765164726
  Basis Set: (AUG-CC-PVTZ AUX)
    Blend: AUG-CC-PVTZ-RI
    Molecular point group: c1

    Geometry (in Angstrom), charge = 0, multiplicity = 1:

       Center              X                  Y                   Z               Mass
    ------------   -----------------  -----------------  -----------------  -----------------
         O            1.214423606069    -1.395902539154     0.770622664657    15.994914619570
         O           -2.854659393931    -0.091054539154    -0.303117335343    15.994914619570
         O           -1.252465393931     1.212220460846     0.620741664657    15.994914619570
         C            1.604513606069     0.534721460846    -0.611991335343    12.000000000000
         C            0.787149606069    -0.611643539154    -0.068821335343    12.000000000000
         C           -0.620857393931    -0.782810539154    -0.621815335343    12.000000000000
         C            2.960717606069     0.662711460846     0.061530664657    12.000000000000
         C           -1.515333193931     0.389402760846     0.081752464657    12.000000000000
         H            1.711414606069     0.382665460846    -1.695324335343     1.007825032230
         H            1.009937606069     1.447037460846    -0.492910335343     1.007825032230
         H           -0.641981393931    -0.663449539154    -1.712054335343     1.007825032230
         H           -0.977423393931    -1.788924539154    -0.387144335343     1.007825032230
         H            3.542085606069    -0.252742539154    -0.060096335343     1.007825032230
         H            3.524896606069     1.494968460846    -0.365979335343     1.007825032230
         H            2.841213606069     0.838110460846     1.132089664657     1.007825032230
         H           -3.395502393931     0.611949460846     0.114270664657     1.007825032230

  Basis Set: AUG-CC-PVTZ
    Blend: AUG-CC-PVTZ
  Basis Set: (AUG-CC-PVTZ AUX)
    Blend: AUG-CC-PVTZ-JKFIT
	 Reference Energy          =    -418.6860901765164726 [Eh]
	 Singles Energy            =      -0.0000000000000000 [Eh]
	 Same-Spin Energy          =      -0.4054632329137606 [Eh]
	 Opposite-Spin Energy      =      -1.2815791589187397 [Eh]
	 Correlation Energy        =      -1.6870423918325004 [Eh]
	 Total Energy              =    -420.3731325683489786 [Eh]

	 ================> DF-SCS-MP2 Energies <==================
	-----------------------------------------------------------
	 SCS Same-Spin Scale       =       0.3333333333333333 [-]
	 SCS Opposite-Spin Scale   =       1.2000000000000000 [-]
	 SCS Same-Spin Energy      =      -0.1351544109712535 [Eh]
	 SCS Opposite-Spin Energy  =      -1.5378949907024877 [Eh]
	 SCS Correlation Energy    =      -1.6730494016737412 [Eh]
	 SCS Total Energy          =    -420.3591395781901952 [Eh]
	-----------------------------------------------------------

  Dipole Moment: [D]
     X:    -0.6819      Y:     1.9270      Z:    -1.8183     Total:     2.7358

*** Psi4 exiting successfully. Buy a developer a beer!
