                               Psi4 1.3.2 release

  ==> Input File <==

--------------------------------------------------------------------------
#psi4
#
memory 32 gb

molecule  {
0 1
  O        1.2197630    -1.3791890     0.7815710
  O       -2.8493200    -0.0743410    -0.2921690
  O       -1.2471260     1.2289340     0.6316900
  C        1.6098530     0.5514350    -0.6010430
  C        0.8622093    -0.7229012     0.0791030
  C       -0.6155180    -0.7660970    -0.6108670
  C        2.9660570     0.6794250     0.0724790
  C       -1.5616300     0.2444870    -0.0131750
  H        1.7167540     0.3993790    -1.6843760
  H        1.0152770     1.4637510    -0.4819620
  H       -0.6366420    -0.6467360    -1.7011060
  H       -0.9720840    -1.7722110    -0.3761960
  H        3.5474250    -0.2360290    -0.0491480
  H        3.5302360     1.5116820    -0.3550310
  H        2.8465530     0.8548240     1.1430380
  H       -3.3901630     0.6286630     0.1252190
units angstrom
no_reorient  #important for SAPT in psi4, default
symmetry c1  #important for SAPT in psi4, default
}

set PROPERTIES_ORIGIN ["COM"]
properties('MP2/aug-cc-pvtz', properties = ['dipole'])
--------------------------------------------------------------------------

    Molecular point group: c1
  Charge       = 0
  Multiplicity = 1
  Basis Set: AUG-CC-PVTZ
    Blend: AUG-CC-PVTZ
  Basis Set: (AUG-CC-PVTZ AUX)
    Blend: AUG-CC-PVTZ-JKFIT

    Orbital Energies [Eh]
    ---------------------

    Doubly Occupied:

       1A    -20.624810     2A    -20.576220     3A    -20.561388
       4A    -11.403206     5A    -11.330598     6A    -11.253484
       7A    -11.229760     8A    -11.212139     9A     -1.550877
      10A     -1.470857    11A     -1.367818    12A     -1.055231
      13A     -1.025197    14A     -0.874819    15A     -0.826230
      16A     -0.755182    17A     -0.717583    18A     -0.712829
      19A     -0.696796    20A     -0.661342    21A     -0.648930
      22A     -0.645595    23A     -0.592823    24A     -0.586695
      25A     -0.570776    26A     -0.538145    27A     -0.512262
      28A     -0.497735    29A     -0.487484    30A     -0.463457
      31A     -0.370336

  @DF-RHF Final Energy:  -418.69524249745626

   => Energetics <=

    Nuclear Repulsion Energy =            373.4091866605926953
    One-Electron Energy =               -1312.5676501501843632
    Two-Electron Energy =                 520.4632209921353478
    Total Energy =                       -418.6952424974563201
  Basis Set: (AUG-CC-PVTZ AUX)
    Blend: AUG-CC-PVTZ-RI
    Molecular point group: c1

    Geometry (in Angstrom), charge = 0, multiplicity = 1:

       Center              X                  Y                   Z               Mass
    ------------   -----------------  -----------------  -----------------  -----------------
         O            1.212553600325    -1.365956089052     0.767406715142    15.994914619570
         O           -2.856529399675    -0.061108089052    -0.306333284858    15.994914619570
         O           -1.254335399675     1.242166910948     0.617525715142    15.994914619570
         C            1.602643600325     0.564667910948    -0.615207284858    12.000000000000
         C            0.854999900325    -0.709668289052     0.064938715142    12.000000000000
         C           -0.622727399675    -0.752864089052    -0.625031284858    12.000000000000
         C            2.958847600325     0.692657910948     0.058314715142    12.000000000000
         C           -1.568839399675     0.257719910948    -0.027339284858    12.000000000000
         H            1.709544600325     0.412611910948    -1.698540284858     1.007825032230
         H            1.008067600325     1.476983910948    -0.496126284858     1.007825032230
         H           -0.643851399675    -0.633503089052    -1.715270284858     1.007825032230
         H           -0.979293399675    -1.758978089052    -0.390360284858     1.007825032230
         H            3.540215600325    -0.222796089052    -0.063312284858     1.007825032230
         H            3.523026600325     1.524914910948    -0.369195284858     1.007825032230
         H            2.839343600325     0.868056910948     1.128873715142     1.007825032230
         H           -3.397372399675     0.641895910948     0.111054715142     1.007825032230

  Basis Set: AUG-CC-PVTZ
    Blend: AUG-CC-PVTZ
  Basis Set: (AUG-CC-PVTZ AUX)
    Blend: AUG-CC-PVTZ-JKFIT
	 Reference Energy          =    -418.6952424974562632 [Eh]
	 Singles Energy            =      -0.0000000000000000 [Eh]
	 Same-Spin Energy          =      -0.4039576266985490 [Eh]
	 Opposite-Spin Energy      =      -1.2772298253748473 [Eh]
	 Correlation Energy        =      -1.6811874520733963 [Eh]
	 Total Energy              =    -420.3764299495296655 [Eh]

	 ================> DF-SCS-MP2 Energies <==================
	-----------------------------------------------------------
	 SCS Same-Spin Scale       =       0.3333333333333333 [-]
	 SCS Opposite-Spin Scale   =       1.2000000000000000 [-]
	 SCS Same-Spin Energy      =      -0.1346525422328496 [Eh]
	 SCS Opposite-Spin Energy  =      -1.5326757904498167 [Eh]
	 SCS Correlation Energy    =      -1.6673283326826664 [Eh]
	 SCS Total Energy          =    -420.3625708301389068 [Eh]
	-----------------------------------------------------------

  Dipole Moment: [D]
     X:    -0.8122      Y:    -0.0073      Z:    -1.8012     Total:     1.9758

*** Psi4 exiting successfully. Buy a developer a beer!
