                               Psi4 1.3.2 release

  ==> Input File <==

--------------------------------------------------------------------------
#psi4
#
memory 32 gb

molecule  {
0 1
  O        1.2197630    -1.3791890     0.7815710
  O       -2.8493200    -0.0743410    -0.2921690
  O       -1.2471260     1.2289340     0.6316900
  C        1.5997903     0.5548482    -0.6088221
  C        0.7924890    -0.5949300    -0.0578730
  C       -0.6136699    -0.7555180    -0.6186876
  C        2.9660570     0.6794250     0.0724790
  C       -1.5616300     0.2444870    -0.0131750
  H        1.7167540     0.3993790    -1.6843760
  H        1.0152770     1.4637510    -0.4819620
  H       -0.6366420    -0.6467360    -1.7011060
  H       -0.9720840    -1.7722110    -0.3761960
  H        3.5474250    -0.2360290    -0.0491480
  H        3.5302360     1.5116820    -0.3550310
  H        2.8465530     0.8548240     1.1430380
  H       -3.3901630     0.6286630     0.1252190
units angstrom
no_reorient  #important for SAPT in psi4, default
symmetry c1  #important for SAPT in psi4, default
}

set PROPERTIES_ORIGIN ["COM"]
properties('MP2/aug-cc-pvtz', properties = ['dipole'])
--------------------------------------------------------------------------

    Molecular point group: c1
  Charge       = 0
  Multiplicity = 1
  Basis Set: AUG-CC-PVTZ
    Blend: AUG-CC-PVTZ
  Basis Set: (AUG-CC-PVTZ AUX)
    Blend: AUG-CC-PVTZ-JKFIT

    Orbital Energies [Eh]
    ---------------------

    Doubly Occupied:

       1A    -20.632910     2A    -20.570290     3A    -20.557640
       4A    -11.413305     5A    -11.344465     6A    -11.270942
       7A    -11.240403     8A    -11.217470     9A     -1.479563
      10A     -1.389256    11A     -1.376052    12A     -1.085646
      13A     -1.040391    14A     -0.901717    15A     -0.839647
      16A     -0.743490    17A     -0.720077    18A     -0.707927
      19A     -0.681614    20A     -0.647119    21A     -0.632997
      22A     -0.626428    23A     -0.598866    24A     -0.576573
      25A     -0.524458    26A     -0.517943    27A     -0.513954
      28A     -0.503425    29A     -0.492071    30A     -0.469578
      31A     -0.424809

  @DF-RHF Final Energy:  -418.76740612603720

   => Energetics <=

    Nuclear Repulsion Energy =            372.2533166418488122
    One-Electron Energy =               -1310.5593928850948942
    Two-Electron Energy =                 519.5386701172088806
    Total Energy =                       -418.7674061260371445
  Basis Set: (AUG-CC-PVTZ AUX)
    Blend: AUG-CC-PVTZ-RI
    Molecular point group: c1

    Geometry (in Angstrom), charge = 0, multiplicity = 1:

       Center              X                  Y                   Z               Mass
    ------------   -----------------  -----------------  -----------------  -----------------
         O            1.220612542192    -1.380635966588     0.783183968934    15.994914619570
         O           -2.848470457808    -0.075787966588    -0.290556031066    15.994914619570
         O           -1.246276457808     1.227487033412     0.633302968934    15.994914619570
         C            1.600639842192     0.553401233412    -0.607209131066    12.000000000000
         C            0.793338542192    -0.596376966588    -0.056260031066    12.000000000000
         C           -0.612820357808    -0.756964966588    -0.617074631066    12.000000000000
         C            2.966906542192     0.677978033412     0.074091968934    12.000000000000
         C           -1.560780457808     0.243040033412    -0.011562031066    12.000000000000
         H            1.717603542192     0.397932033412    -1.682763031066     1.007825032230
         H            1.016126542192     1.462304033412    -0.480349031066     1.007825032230
         H           -0.635792457808    -0.648182966588    -1.699493031066     1.007825032230
         H           -0.971234457808    -1.773657966588    -0.374583031066     1.007825032230
         H            3.548274542192    -0.237475966588    -0.047535031066     1.007825032230
         H            3.531085542192     1.510235033412    -0.353418031066     1.007825032230
         H            2.847402542192     0.853377033412     1.144650968934     1.007825032230
         H           -3.389313457808     0.627216033412     0.126831968934     1.007825032230

  Basis Set: AUG-CC-PVTZ
    Blend: AUG-CC-PVTZ
  Basis Set: (AUG-CC-PVTZ AUX)
    Blend: AUG-CC-PVTZ-JKFIT
	 Reference Energy          =    -418.7674061260372014 [Eh]
	 Singles Energy            =      -0.0000000000000000 [Eh]
	 Same-Spin Energy          =      -0.4082155167610524 [Eh]
	 Opposite-Spin Energy      =      -1.2866392386192085 [Eh]
	 Correlation Energy        =      -1.6948547553802609 [Eh]
	 Total Energy              =    -420.4622608814174782 [Eh]

	 ================> DF-SCS-MP2 Energies <==================
	-----------------------------------------------------------
	 SCS Same-Spin Scale       =       0.3333333333333333 [-]
	 SCS Opposite-Spin Scale   =       1.2000000000000000 [-]
	 SCS Same-Spin Energy      =      -0.1360718389203508 [Eh]
	 SCS Opposite-Spin Energy  =      -1.5439670863430501 [Eh]
	 SCS Correlation Energy    =      -1.6800389252634009 [Eh]
	 SCS Total Energy          =    -420.4474450513005763 [Eh]
	-----------------------------------------------------------

  Dipole Moment: [D]
     X:    -1.3514      Y:     0.7753      Z:    -2.5625     Total:     2.9989

*** Psi4 exiting successfully. Buy a developer a beer!
