                               Psi4 1.4a3.dev225

  ==> Input File <==

--------------------------------------------------------------------------
#psi4
#
memory 32 gb

molecule  {
0 1
  O        1.1896460     1.3864710    -0.7896670
  O       -2.9164350     0.0620530     0.2465870
  O       -1.2994600    -1.1722570    -0.7513140
  C        1.5277270    -0.5390120     0.6173550
  C        0.7593503     0.5736137     0.0635905
  C       -0.6915030     0.7929470     0.5540020
  C        2.9119880    -0.6669770    -0.0005940
  C       -1.6259000    -0.2196380    -0.0638170
  H        1.5906630    -0.3916430     1.7048170
  H        0.9378800    -1.4511620     0.4690430
  H       -0.7449460     0.6872940     1.6445860
  H       -1.0362610     1.7983420     0.2961770
  H        3.4930330     0.2441750     0.1549910
  H        3.4532110    -1.5066350     0.4428820
  H        2.8367130    -0.8315610    -1.0772290
  H       -3.4525110    -0.6329900    -0.1896390
units angstrom
no_reorient  #important for SAPT in psi4, default
symmetry c1  #important for SAPT in psi4, default
}

set PROPERTIES_ORIGIN ["COM"]
properties('MP2/aug-cc-pvtz', properties = ['dipole'])
--------------------------------------------------------------------------

    Molecular point group: c1
  Charge       = 0
  Multiplicity = 1
  Basis Set: AUG-CC-PVTZ
    Blend: AUG-CC-PVTZ
  Basis Set: (AUG-CC-PVTZ AUX)
    Blend: AUG-CC-PVTZ-JKFIT

    Orbital Energies [Eh]
    ---------------------

    Doubly Occupied:

       1A    -20.632215     2A    -20.569944     3A    -20.554291
       4A    -11.412681     5A    -11.347263     6A    -11.272441
       7A    -11.243951     8A    -11.220083     9A     -1.477827
      10A     -1.376517    11A     -1.368182    12A     -1.088102
      13A     -1.044744    14A     -0.908521    15A     -0.838940
      16A     -0.741486    17A     -0.718811    18A     -0.705866
      19A     -0.677323    20A     -0.650026    21A     -0.636003
      22A     -0.620054    23A     -0.598128    24A     -0.574381
      25A     -0.527253    26A     -0.517761    27A     -0.515153
      28A     -0.500903    29A     -0.486419    30A     -0.467166
      31A     -0.427954

  @DF-RHF Final Energy:  -418.76123682790546

   => Energetics <=

    Nuclear Repulsion Energy =            371.7259195804272167
    One-Electron Energy =               -1309.5335395183876699
    Two-Electron Energy =                 519.0463831100549896
    Total Energy =                       -418.7612368279054635
  Basis Set: (AUG-CC-PVTZ AUX)
    Blend: AUG-CC-PVTZ-RI
    Molecular point group: c1

    Geometry (in Angstrom), charge = 0, multiplicity = 1:

       Center              X                  Y                   Z               Mass
    ------------   -----------------  -----------------  -----------------  -----------------
         O            1.247307646212     1.372600947964    -0.762223947441    15.994914619570
         O           -2.858773353788     0.048182947964     0.274030052559    15.994914619570
         O           -1.241798353788    -1.186127052036    -0.723870947441    15.994914619570
         C            1.585388646212    -0.552882052036     0.644798052559    12.000000000000
         C            0.817011946212     0.559743647964     0.091033552559    12.000000000000
         C           -0.633841353788     0.779076947964     0.581445052559    12.000000000000
         C            2.969649646212    -0.680847052036     0.026849052559    12.000000000000
         C           -1.568238353788    -0.233508052036    -0.036373947441    12.000000000000
         H            1.648324646212    -0.405513052036     1.732260052559     1.007825032230
         H            0.995541646212    -1.465032052036     0.496486052559     1.007825032230
         H           -0.687284353788     0.673423947964     1.672029052559     1.007825032230
         H           -0.978599353788     1.784471947964     0.323620052559     1.007825032230
         H            3.550694646212     0.230304947964     0.182434052559     1.007825032230
         H            3.510872646212    -1.520505052036     0.470325052559     1.007825032230
         H            2.894374646212    -0.845431052036    -1.049785947441     1.007825032230
         H           -3.394849353788    -0.646860052036    -0.162195947441     1.007825032230

  Basis Set: AUG-CC-PVTZ
    Blend: AUG-CC-PVTZ
  Basis Set: (AUG-CC-PVTZ AUX)
    Blend: AUG-CC-PVTZ-JKFIT
	 Reference Energy          =    -418.7612368279054635 [Eh]
	 Singles Energy            =      -0.0000000000000000 [Eh]
	 Same-Spin Energy          =      -0.4091958190430101 [Eh]
	 Opposite-Spin Energy      =      -1.2886583066459951 [Eh]
	 Correlation Energy        =      -1.6978541256890052 [Eh]
	 Total Energy              =    -420.4590909535944547 [Eh]

	 ================> DF-SCS-MP2 Energies <==================
	-----------------------------------------------------------
	 SCS Same-Spin Scale       =       0.3333333333333333 [-]
	 SCS Opposite-Spin Scale   =       1.2000000000000000 [-]
	 SCS Same-Spin Energy      =      -0.1363986063476700 [Eh]
	 SCS Opposite-Spin Energy  =      -1.5463899679751940 [Eh]
	 SCS Correlation Energy    =      -1.6827885743228641 [Eh]
	 SCS Total Energy          =    -420.4440254022283057 [Eh]
	-----------------------------------------------------------

  Dipole Moment: [D]
     X:    -1.2842      Y:    -0.9537      Z:     2.6716     Total:     3.1138

*** Psi4 exiting successfully. Buy a developer a beer!
