                               Psi4 1.3.2 release

  ==> Input File <==

--------------------------------------------------------------------------
#psi4
#
memory 32 gb

molecule  {
0 1
  O        1.2197630    -1.3791890     0.7815710
  O       -2.8493200    -0.0743410    -0.2921690
  O       -1.2471260     1.2289340     0.6316900
  C        1.6098530     0.5514350    -0.6010430
  C        0.7924890    -0.5949300    -0.0578730
  C       -0.6155180    -0.7660970    -0.6108670
  C        2.9660570     0.6794250     0.0724790
  C       -1.5616300     0.2444870    -0.0131750
  H        1.7167540     0.3993790    -1.6843760
  H        1.0152770     1.4637510    -0.4819620
  H       -0.6366420    -0.6467360    -1.7011060
  H       -0.9720840    -1.7722110    -0.3761960
  H        3.5474250    -0.2360290    -0.0491480
  H        3.5302360     1.5116820    -0.3550310
  H        2.8465530     0.8548240     1.1430380
  H       -3.3349904     0.5569480     0.0826403
units angstrom
no_reorient  #important for SAPT in psi4, default
symmetry c1  #important for SAPT in psi4, default
}

set PROPERTIES_ORIGIN ["COM"]
properties('MP2/aug-cc-pvtz', properties = ['dipole'])
--------------------------------------------------------------------------

    Molecular point group: c1
  Charge       = 0
  Multiplicity = 1
  Basis Set: AUG-CC-PVTZ
    Blend: AUG-CC-PVTZ
  Basis Set: (AUG-CC-PVTZ AUX)
    Blend: AUG-CC-PVTZ-JKFIT

    Orbital Energies [Eh]
    ---------------------

    Doubly Occupied:

       1A    -20.625731     2A    -20.572508     3A    -20.557271
       4A    -11.415484     5A    -11.344548     6A    -11.271868
       7A    -11.241737     8A    -11.217482     9A     -1.497355
      10A     -1.391155    11A     -1.384661    12A     -1.087121
      13A     -1.044096    14A     -0.908518    15A     -0.854251
      16A     -0.744029    17A     -0.729923    18A     -0.709882
      19A     -0.682622    20A     -0.650870    21A     -0.634552
      22A     -0.627980    23A     -0.603662    24A     -0.579020
      25A     -0.526675    26A     -0.519257    27A     -0.515736
      28A     -0.505130    29A     -0.492193    30A     -0.470417
      31A     -0.425308

  @DF-RHF Final Energy:  -418.76329447133702

   => Energetics <=

    Nuclear Repulsion Energy =            372.9034924502366835
    One-Electron Energy =               -1311.6714814749052493
    Two-Electron Energy =                 520.0046945533315466
    Total Energy =                       -418.7632944713370762
  Basis Set: (AUG-CC-PVTZ AUX)
    Blend: AUG-CC-PVTZ-RI
    Molecular point group: c1

    Geometry (in Angstrom), charge = 0, multiplicity = 1:

       Center              X                  Y                   Z               Mass
    ------------   -----------------  -----------------  -----------------  -----------------
         O            1.219283950585    -1.378566271896     0.781940644311    15.994914619570
         O           -2.849799049415    -0.073718271896    -0.291799355689    15.994914619570
         O           -1.247605049415     1.229556728104     0.632059644311    15.994914619570
         C            1.609373950585     0.552057728104    -0.600673355689    12.000000000000
         C            0.792009950585    -0.594307271896    -0.057503355689    12.000000000000
         C           -0.615997049415    -0.765474271896    -0.610497355689    12.000000000000
         C            2.965577950585     0.680047728104     0.072848644311    12.000000000000
         C           -1.562109049415     0.245109728104    -0.012805355689    12.000000000000
         H            1.716274950585     0.400001728104    -1.684006355689     1.007825032230
         H            1.014797950585     1.464373728104    -0.481592355689     1.007825032230
         H           -0.637121049415    -0.646113271896    -1.700736355689     1.007825032230
         H           -0.972563049415    -1.771588271896    -0.375826355689     1.007825032230
         H            3.546945950585    -0.235406271896    -0.048778355689     1.007825032230
         H            3.529756950585     1.512304728104    -0.354661355689     1.007825032230
         H            2.846073950585     0.855446728104     1.143407644311     1.007825032230
         H           -3.335469449415     0.557570728104     0.083009944311     1.007825032230

  Basis Set: AUG-CC-PVTZ
    Blend: AUG-CC-PVTZ
  Basis Set: (AUG-CC-PVTZ AUX)
    Blend: AUG-CC-PVTZ-JKFIT
	 Reference Energy          =    -418.7632944713370193 [Eh]
	 Singles Energy            =      -0.0000000000000000 [Eh]
	 Same-Spin Energy          =      -0.4069731428412849 [Eh]
	 Opposite-Spin Energy      =      -1.2838095589848479 [Eh]
	 Correlation Energy        =      -1.6907827018261328 [Eh]
	 Total Energy              =    -420.4540771731631708 [Eh]

	 ================> DF-SCS-MP2 Energies <==================
	-----------------------------------------------------------
	 SCS Same-Spin Scale       =       0.3333333333333333 [-]
	 SCS Opposite-Spin Scale   =       1.2000000000000000 [-]
	 SCS Same-Spin Energy      =      -0.1356577142804283 [Eh]
	 SCS Opposite-Spin Energy  =      -1.5405714707818174 [Eh]
	 SCS Correlation Energy    =      -1.6762291850622457 [Eh]
	 SCS Total Energy          =    -420.4395236563992739 [Eh]
	-----------------------------------------------------------

  Dipole Moment: [D]
     X:    -1.2450      Y:     0.7136      Z:    -2.5970     Total:     2.9671

*** Psi4 exiting successfully. Buy a developer a beer!
