                               Psi4 1.3.2 release

  ==> Input File <==

--------------------------------------------------------------------------
#psi4
#
memory 32 gb

molecule  {
0 1
  O        1.2197630    -1.3791890     0.7815710
  O       -2.8493200    -0.0743410    -0.2921690
  O       -1.2471260     1.2289340     0.6316900
  C        1.6098530     0.5514350    -0.6010430
  C        0.7916013    -0.5999706    -0.0700067
  C       -0.6155180    -0.7660970    -0.6108670
  C        2.9660570     0.6794250     0.0724790
  C       -1.5616300     0.2444870    -0.0131750
  H        1.7115954     0.3913196    -1.6837114
  H        1.0152770     1.4637510    -0.4819620
  H       -0.6366420    -0.6467360    -1.7011060
  H       -0.9720840    -1.7722110    -0.3761960
  H        3.5474250    -0.2360290    -0.0491480
  H        3.5302360     1.5116820    -0.3550310
  H        2.8465530     0.8548240     1.1430380
  H       -3.3901630     0.6286630     0.1252190
units angstrom
no_reorient  #important for SAPT in psi4, default
symmetry c1  #important for SAPT in psi4, default
}

set PROPERTIES_ORIGIN ["COM"]
properties('MP2/aug-cc-pvtz', properties = ['dipole'])
--------------------------------------------------------------------------

    Molecular point group: c1
  Charge       = 0
  Multiplicity = 1
  Basis Set: AUG-CC-PVTZ
    Blend: AUG-CC-PVTZ
  Basis Set: (AUG-CC-PVTZ AUX)
    Blend: AUG-CC-PVTZ-JKFIT

    Orbital Energies [Eh]
    ---------------------

    Doubly Occupied:

       1A    -20.633258     2A    -20.570637     3A    -20.556258
       4A    -11.413955     5A    -11.344279     6A    -11.271693
       7A    -11.241537     8A    -11.217254     9A     -1.479841
      10A     -1.385548    11A     -1.376018    12A     -1.086044
      13A     -1.042261    14A     -0.902363    15A     -0.840566
      16A     -0.742552    17A     -0.720003    18A     -0.707764
      19A     -0.680880    20A     -0.648166    21A     -0.632031
      22A     -0.625858    23A     -0.598827    24A     -0.576893
      25A     -0.525884    26A     -0.518202    27A     -0.514386
      28A     -0.502693    29A     -0.490664    30A     -0.468671
      31A     -0.425302

  @DF-RHF Final Energy:  -418.76712082499137

   => Energetics <=

    Nuclear Repulsion Energy =            372.1948136027826877
    One-Electron Energy =               -1310.4432934587912314
    Two-Electron Energy =                 519.4813590310171776
    Total Energy =                       -418.7671208249913661
  Basis Set: (AUG-CC-PVTZ AUX)
    Blend: AUG-CC-PVTZ-RI
    Molecular point group: c1

    Geometry (in Angstrom), charge = 0, multiplicity = 1:

       Center              X                  Y                   Z               Mass
    ------------   -----------------  -----------------  -----------------  -----------------
         O            1.219899696634    -1.378597866821     0.782819791702    15.994914619570
         O           -2.849183303366    -0.073749866821    -0.290920208298    15.994914619570
         O           -1.246989303366     1.229525133179     0.632938791702    15.994914619570
         C            1.609989696634     0.552026133179    -0.599794208298    12.000000000000
         C            0.791737996634    -0.599379466821    -0.068757908298    12.000000000000
         C           -0.615381303366    -0.765505866821    -0.609618208298    12.000000000000
         C            2.966193696634     0.680016133179     0.073727791702    12.000000000000
         C           -1.561493303366     0.245078133179    -0.011926208298    12.000000000000
         H            1.711732096634     0.391910733179    -1.682462608298     1.007825032230
         H            1.015413696634     1.464342133179    -0.480713208298     1.007825032230
         H           -0.636505303366    -0.646144866821    -1.699857208298     1.007825032230
         H           -0.971947303366    -1.771619866821    -0.374947208298     1.007825032230
         H            3.547561696634    -0.235437866821    -0.047899208298     1.007825032230
         H            3.530372696634     1.512273133179    -0.353782208298     1.007825032230
         H            2.846689696634     0.855415133179     1.144286791702     1.007825032230
         H           -3.390026303366     0.629254133179     0.126467791702     1.007825032230

  Basis Set: AUG-CC-PVTZ
    Blend: AUG-CC-PVTZ
  Basis Set: (AUG-CC-PVTZ AUX)
    Blend: AUG-CC-PVTZ-JKFIT
	 Reference Energy          =    -418.7671208249913661 [Eh]
	 Singles Energy            =      -0.0000000000000000 [Eh]
	 Same-Spin Energy          =      -0.4084076115141007 [Eh]
	 Opposite-Spin Energy      =      -1.2869542416540800 [Eh]
	 Correlation Energy        =      -1.6953618531681807 [Eh]
	 Total Energy              =    -420.4624826781595743 [Eh]

	 ================> DF-SCS-MP2 Energies <==================
	-----------------------------------------------------------
	 SCS Same-Spin Scale       =       0.3333333333333333 [-]
	 SCS Opposite-Spin Scale   =       1.2000000000000000 [-]
	 SCS Same-Spin Energy      =      -0.1361358705047002 [Eh]
	 SCS Opposite-Spin Energy  =      -1.5443450899848961 [Eh]
	 SCS Correlation Energy    =      -1.6804809604895963 [Eh]
	 SCS Total Energy          =    -420.4476017854809697 [Eh]
	-----------------------------------------------------------

  Dipole Moment: [D]
     X:    -1.3715      Y:     0.7892      Z:    -2.5717     Total:     3.0195

*** Psi4 exiting successfully. Buy a developer a beer!
