                               Psi4 1.3.2 release

  ==> Input File <==

--------------------------------------------------------------------------
#psi4
#
memory 32 gb

molecule  {
0 1
  O        1.2290657    -1.3739118     0.7816981
  O       -2.8493200    -0.0743410    -0.2921690
  O       -1.2471260     1.2289340     0.6316900
  C        1.6199135     0.5478328    -0.5933467
  C        0.7924890    -0.5949300    -0.0578730
  C       -0.6155180    -0.7660970    -0.6108670
  C        2.9660570     0.6794250     0.0724790
  C       -1.5616300     0.2444870    -0.0131750
  H        1.7167540     0.3993790    -1.6843760
  H        1.0152770     1.4637510    -0.4819620
  H       -0.6366420    -0.6467360    -1.7011060
  H       -0.9720840    -1.7722110    -0.3761960
  H        3.5474250    -0.2360290    -0.0491480
  H        3.5302360     1.5116820    -0.3550310
  H        2.8465530     0.8548240     1.1430380
  H       -3.3901630     0.6286630     0.1252190
units angstrom
no_reorient  #important for SAPT in psi4, default
symmetry c1  #important for SAPT in psi4, default
}

set PROPERTIES_ORIGIN ["COM"]
properties('MP2/aug-cc-pvtz', properties = ['dipole'])
--------------------------------------------------------------------------

    Molecular point group: c1
  Charge       = 0
  Multiplicity = 1
  Basis Set: AUG-CC-PVTZ
    Blend: AUG-CC-PVTZ
  Basis Set: (AUG-CC-PVTZ AUX)
    Blend: AUG-CC-PVTZ-JKFIT

    Orbital Energies [Eh]
    ---------------------

    Doubly Occupied:

       1A    -20.633144     2A    -20.570612     3A    -20.556217
       4A    -11.413730     5A    -11.343845     6A    -11.272194
       7A    -11.241370     8A    -11.216260     9A     -1.479773
      10A     -1.388847    11A     -1.376229    12A     -1.085219
      13A     -1.043384    14A     -0.901674    15A     -0.839681
      16A     -0.742087    17A     -0.719906    18A     -0.707637
      19A     -0.681046    20A     -0.648785    21A     -0.631431
      22A     -0.626303    23A     -0.598670    24A     -0.577614
      25A     -0.527831    26A     -0.518767    27A     -0.514848
      28A     -0.502571    29A     -0.489433    30A     -0.468368
      31A     -0.424528

  @DF-RHF Final Energy:  -418.76747381663836

   => Energetics <=

    Nuclear Repulsion Energy =            372.3015990570007716
    One-Electron Energy =               -1310.6541409582662254
    Two-Electron Energy =                 519.5850680846270961
    Total Energy =                       -418.7674738166383577
  Basis Set: (AUG-CC-PVTZ AUX)
    Blend: AUG-CC-PVTZ-RI
    Molecular point group: c1

    Geometry (in Angstrom), charge = 0, multiplicity = 1:

       Center              X                  Y                   Z               Mass
    ------------   -----------------  -----------------  -----------------  -----------------
         O            1.226743285996    -1.374266760239     0.780884602772    15.994914619570
         O           -2.851642414004    -0.074695960239    -0.292982497228    15.994914619570
         O           -1.249448414004     1.228579039761     0.630876502772    15.994914619570
         C            1.617591085996     0.547477839761    -0.594160197228    12.000000000000
         C            0.790166585996    -0.595284960239    -0.058686497228    12.000000000000
         C           -0.617840414004    -0.766451960239    -0.611680497228    12.000000000000
         C            2.963734585996     0.679070039761     0.071665502772    12.000000000000
         C           -1.563952414004     0.244132039761    -0.013988497228    12.000000000000
         H            1.714431585996     0.399024039761    -1.685189497228     1.007825032230
         H            1.012954585996     1.463396039761    -0.482775497228     1.007825032230
         H           -0.638964414004    -0.647090960239    -1.701919497228     1.007825032230
         H           -0.974406414004    -1.772565960239    -0.377009497228     1.007825032230
         H            3.545102585996    -0.236383960239    -0.049961497228     1.007825032230
         H            3.527913585996     1.511327039761    -0.355844497228     1.007825032230
         H            2.844230585996     0.854469039761     1.142224502772     1.007825032230
         H           -3.392485414004     0.628308039761     0.124405502772     1.007825032230

  Basis Set: AUG-CC-PVTZ
    Blend: AUG-CC-PVTZ
  Basis Set: (AUG-CC-PVTZ AUX)
    Blend: AUG-CC-PVTZ-JKFIT
	 Reference Energy          =    -418.7674738166383577 [Eh]
	 Singles Energy            =      -0.0000000000000000 [Eh]
	 Same-Spin Energy          =      -0.4083417256929857 [Eh]
	 Opposite-Spin Energy      =      -1.2866758667585958 [Eh]
	 Correlation Energy        =      -1.6950175924515816 [Eh]
	 Total Energy              =    -420.4624914090899210 [Eh]

	 ================> DF-SCS-MP2 Energies <==================
	-----------------------------------------------------------
	 SCS Same-Spin Scale       =       0.3333333333333333 [-]
	 SCS Opposite-Spin Scale   =       1.2000000000000000 [-]
	 SCS Same-Spin Energy      =      -0.1361139085643285 [Eh]
	 SCS Opposite-Spin Energy  =      -1.5440110401103149 [Eh]
	 SCS Correlation Energy    =      -1.6801249486746435 [Eh]
	 SCS Total Energy          =    -420.4475987653129891 [Eh]
	-----------------------------------------------------------

  Dipole Moment: [D]
     X:    -1.3763      Y:     0.7741      Z:    -2.5559     Total:     3.0043

*** Psi4 exiting successfully. Buy a developer a beer!
