                               Psi4 1.3.2 release

  ==> Input File <==

--------------------------------------------------------------------------
#psi4
#
memory 32 gb

molecule  {
0 1
  O        1.2197630    -1.3791890     0.7815710
  O       -2.8493200    -0.0743410    -0.2921690
  O       -1.2471260     1.2289340     0.6316900
  C        1.6098530     0.5514350    -0.6010430
  C        0.7882531    -0.5848109    -0.0503794
  C       -0.6155180    -0.7660970    -0.6108670
  C        2.9660570     0.6794250     0.0724790
  C       -1.5517399     0.2494486    -0.0060535
  H        1.7167540     0.3993790    -1.6843760
  H        1.0152770     1.4637510    -0.4819620
  H       -0.6366420    -0.6467360    -1.7011060
  H       -0.9720840    -1.7722110    -0.3761960
  H        3.5474250    -0.2360290    -0.0491480
  H        3.5302360     1.5116820    -0.3550310
  H        2.8465530     0.8548240     1.1430380
  H       -3.3901630     0.6286630     0.1252190
units angstrom
no_reorient  #important for SAPT in psi4, default
symmetry c1  #important for SAPT in psi4, default
}

set PROPERTIES_ORIGIN ["COM"]
properties('MP2/aug-cc-pvtz', properties = ['dipole'])
--------------------------------------------------------------------------

    Molecular point group: c1
  Charge       = 0
  Multiplicity = 1
  Basis Set: AUG-CC-PVTZ
    Blend: AUG-CC-PVTZ
  Basis Set: (AUG-CC-PVTZ AUX)
    Blend: AUG-CC-PVTZ-JKFIT

    Orbital Energies [Eh]
    ---------------------

    Doubly Occupied:

       1A    -20.629285     2A    -20.573051     3A    -20.556646
       4A    -11.412716     5A    -11.344373     6A    -11.271464
       7A    -11.241873     8A    -11.217588     9A     -1.477723
      10A     -1.387433    11A     -1.379020    12A     -1.085824
      13A     -1.042487    14A     -0.901394    15A     -0.836569
      16A     -0.742755    17A     -0.719605    18A     -0.707712
      19A     -0.680555    20A     -0.647320    21A     -0.632954
      22A     -0.625373    23A     -0.601000    24A     -0.576201
      25A     -0.526181    26A     -0.518650    27A     -0.515479
      28A     -0.505362    29A     -0.491930    30A     -0.469706
      31A     -0.425035

  @DF-RHF Final Energy:  -418.76756152137244

   => Energetics <=

    Nuclear Repulsion Energy =            372.3780155081137195
    One-Electron Energy =               -1310.8046312649964875
    Two-Electron Energy =                 519.6590542355103253
    Total Energy =                       -418.7675615213723859
  Basis Set: (AUG-CC-PVTZ AUX)
    Blend: AUG-CC-PVTZ-RI
    Molecular point group: c1

    Geometry (in Angstrom), charge = 0, multiplicity = 1:

       Center              X                  Y                   Z               Mass
    ------------   -----------------  -----------------  -----------------  -----------------
         O            1.219178424063    -1.380748524097     0.780059575155    15.994914619570
         O           -2.849904575937    -0.075900524097    -0.293680424845    15.994914619570
         O           -1.247710575937     1.227374475903     0.630178575155    15.994914619570
         C            1.609268424063     0.549875475903    -0.602554424845    12.000000000000
         C            0.787668524063    -0.586370424097    -0.051890824845    12.000000000000
         C           -0.616102575937    -0.767656524097    -0.612378424845    12.000000000000
         C            2.965472424063     0.677865475903     0.070967575155    12.000000000000
         C           -1.552324475937     0.247889075903    -0.007564924845    12.000000000000
         H            1.716169424063     0.397819475903    -1.685887424845     1.007825032230
         H            1.014692424063     1.462191475903    -0.483473424845     1.007825032230
         H           -0.637226575937    -0.648295524097    -1.702617424845     1.007825032230
         H           -0.972668575937    -1.773770524097    -0.377707424845     1.007825032230
         H            3.546840424063    -0.237588524097    -0.050659424845     1.007825032230
         H            3.529651424063     1.510122475903    -0.356542424845     1.007825032230
         H            2.845968424063     0.853264475903     1.141526575155     1.007825032230
         H           -3.390747575937     0.627103475903     0.123707575155     1.007825032230

  Basis Set: AUG-CC-PVTZ
    Blend: AUG-CC-PVTZ
  Basis Set: (AUG-CC-PVTZ AUX)
    Blend: AUG-CC-PVTZ-JKFIT
	 Reference Energy          =    -418.7675615213724427 [Eh]
	 Singles Energy            =      -0.0000000000000000 [Eh]
	 Same-Spin Energy          =      -0.4082237409007625 [Eh]
	 Opposite-Spin Energy      =      -1.2866308353396687 [Eh]
	 Correlation Energy        =      -1.6948545762404312 [Eh]
	 Total Energy              =    -420.4624160976129019 [Eh]

	 ================> DF-SCS-MP2 Energies <==================
	-----------------------------------------------------------
	 SCS Same-Spin Scale       =       0.3333333333333333 [-]
	 SCS Opposite-Spin Scale   =       1.2000000000000000 [-]
	 SCS Same-Spin Energy      =      -0.1360745803002542 [Eh]
	 SCS Opposite-Spin Energy  =      -1.5439570024076024 [Eh]
	 SCS Correlation Energy    =      -1.6800315827078565 [Eh]
	 SCS Total Energy          =    -420.4475931040802834 [Eh]
	-----------------------------------------------------------

  Dipole Moment: [D]
     X:    -1.2560      Y:     0.8406      Z:    -2.5270     Total:     2.9445

*** Psi4 exiting successfully. Buy a developer a beer!
