                               Psi4 1.3.2 release

  ==> Input File <==

--------------------------------------------------------------------------
#psi4
#
memory 32 gb

molecule  {
0 1
  O        1.2290155    -1.3738277     0.7818022
  O       -2.8493200    -0.0743410    -0.2921690
  O       -1.2471260     1.2289340     0.6316900
  C        1.6098530     0.5514350    -0.6010430
  C        0.7924890    -0.5949300    -0.0578730
  C       -0.6137295    -0.7554192    -0.6185663
  C        2.9660570     0.6794250     0.0724790
  C       -1.5616300     0.2444870    -0.0131750
  H        1.7167540     0.3993790    -1.6843760
  H        1.0152770     1.4637510    -0.4819620
  H       -0.6366420    -0.6467360    -1.7011060
  H       -0.9720840    -1.7722110    -0.3761960
  H        3.5474250    -0.2360290    -0.0491480
  H        3.5302360     1.5116820    -0.3550310
  H        2.8465530     0.8548240     1.1430380
  H       -3.3901630     0.6286630     0.1252190
units angstrom
no_reorient  #important for SAPT in psi4, default
symmetry c1  #important for SAPT in psi4, default
}

set PROPERTIES_ORIGIN ["COM"]
properties('MP2/aug-cc-pvtz', properties = ['dipole'])
--------------------------------------------------------------------------

    Molecular point group: c1
  Charge       = 0
  Multiplicity = 1
  Basis Set: AUG-CC-PVTZ
    Blend: AUG-CC-PVTZ
  Basis Set: (AUG-CC-PVTZ AUX)
    Blend: AUG-CC-PVTZ-JKFIT

    Orbital Energies [Eh]
    ---------------------

    Doubly Occupied:

       1A    -20.633173     2A    -20.570507     3A    -20.557137
       4A    -11.413612     5A    -11.344257     6A    -11.271877
       7A    -11.240470     8A    -11.216613     9A     -1.479813
      10A     -1.389098    11A     -1.376256    12A     -1.085777
      13A     -1.041733    14A     -0.901739    15A     -0.839601
      16A     -0.742877    17A     -0.720180    18A     -0.708075
      19A     -0.681699    20A     -0.647595    21A     -0.632102
      22A     -0.626406    23A     -0.598943    24A     -0.577041
      25A     -0.525115    26A     -0.518269    27A     -0.514728
      28A     -0.502976    29A     -0.490817    30A     -0.469173
      31A     -0.424738

  @DF-RHF Final Energy:  -418.76742165164092

   => Energetics <=

    Nuclear Repulsion Energy =            372.3044142589469629
    One-Electron Energy =               -1310.6588762389699241
    Two-Electron Energy =                 519.5870403283820451
    Total Energy =                       -418.7674216516409160
  Basis Set: (AUG-CC-PVTZ AUX)
    Blend: AUG-CC-PVTZ-RI
    Molecular point group: c1

    Geometry (in Angstrom), charge = 0, multiplicity = 1:

       Center              X                  Y                   Z               Mass
    ------------   -----------------  -----------------  -----------------  -----------------
         O            1.227555380135    -1.375670890527     0.782566353090    15.994914619570
         O           -2.850780119865    -0.076184190527    -0.291404846910    15.994914619570
         O           -1.248586119865     1.227090809473     0.632454153090    15.994914619570
         C            1.608392880135     0.549591809473    -0.600278846910    12.000000000000
         C            0.791028880135    -0.596773190527    -0.057108846910    12.000000000000
         C           -0.615189619865    -0.757262390527    -0.617802146910    12.000000000000
         C            2.964596880135     0.677581809473     0.073243153090    12.000000000000
         C           -1.563090119865     0.242643809473    -0.012410846910    12.000000000000
         H            1.715293880135     0.397535809473    -1.683611846910     1.007825032230
         H            1.013816880135     1.461907809473    -0.481197846910     1.007825032230
         H           -0.638102119865    -0.648579190527    -1.700341846910     1.007825032230
         H           -0.973544119865    -1.774054190527    -0.375431846910     1.007825032230
         H            3.545964880135    -0.237872190527    -0.048383846910     1.007825032230
         H            3.528775880135     1.509838809473    -0.354266846910     1.007825032230
         H            2.845092880135     0.852980809473     1.143802153090     1.007825032230
         H           -3.391623119865     0.626819809473     0.125983153090     1.007825032230

  Basis Set: AUG-CC-PVTZ
    Blend: AUG-CC-PVTZ
  Basis Set: (AUG-CC-PVTZ AUX)
    Blend: AUG-CC-PVTZ-JKFIT
	 Reference Energy          =    -418.7674216516409160 [Eh]
	 Singles Energy            =      -0.0000000000000000 [Eh]
	 Same-Spin Energy          =      -0.4083071075192650 [Eh]
	 Opposite-Spin Energy      =      -1.2867006802303014 [Eh]
	 Correlation Energy        =      -1.6950077877495664 [Eh]
	 Total Energy              =    -420.4624294393904620 [Eh]

	 ================> DF-SCS-MP2 Energies <==================
	-----------------------------------------------------------
	 SCS Same-Spin Scale       =       0.3333333333333333 [-]
	 SCS Opposite-Spin Scale   =       1.2000000000000000 [-]
	 SCS Same-Spin Energy      =      -0.1361023691730883 [Eh]
	 SCS Opposite-Spin Energy  =      -1.5440408162763617 [Eh]
	 SCS Correlation Energy    =      -1.6801431854494500 [Eh]
	 SCS Total Energy          =    -420.4475648370903400 [Eh]
	-----------------------------------------------------------

  Dipole Moment: [D]
     X:    -1.3780      Y:     0.7669      Z:    -2.5609     Total:     3.0075

*** Psi4 exiting successfully. Buy a developer a beer!
