                               Psi4 1.4a3.dev225

  ==> Input File <==

--------------------------------------------------------------------------
#psi4
#
memory 32 gb

molecule  {
0 1
  O        1.1896460     1.3864710    -0.7896670
  O       -2.9164350     0.0620530     0.2465870
  O       -1.2994600    -1.1722570    -0.7513140
  C        1.5277270    -0.5390120     0.6173550
  C        0.7330570     0.6116870     0.0446410
  C       -0.6915030     0.7929470     0.5540020
  C        2.9119880    -0.6669770    -0.0005940
  C       -1.6259000    -0.2196380    -0.0638170
  H        1.5906630    -0.3916430     1.7048170
  H        0.9378800    -1.4511620     0.4690430
  H       -0.7425101     0.6921096     1.5948781
  H       -1.0362610     1.7983420     0.2961770
  H        3.4930330     0.2441750     0.1549910
  H        3.4532110    -1.5066350     0.4428820
  H        2.8367130    -0.8315610    -1.0772290
  H       -3.4525110    -0.6329900    -0.1896390
units angstrom
no_reorient  #important for SAPT in psi4, default
symmetry c1  #important for SAPT in psi4, default
}

set PROPERTIES_ORIGIN ["COM"]
properties('MP2/aug-cc-pvtz', properties = ['dipole'])
--------------------------------------------------------------------------

    Molecular point group: c1
  Charge       = 0
  Multiplicity = 1
  Basis Set: AUG-CC-PVTZ
    Blend: AUG-CC-PVTZ
  Basis Set: (AUG-CC-PVTZ AUX)
    Blend: AUG-CC-PVTZ-JKFIT

    Orbital Energies [Eh]
    ---------------------

    Doubly Occupied:

       1A    -20.633103     2A    -20.570548     3A    -20.556408
       4A    -11.413644     5A    -11.344044     6A    -11.266186
       7A    -11.242290     8A    -11.217744     9A     -1.478640
      10A     -1.387865    11A     -1.375450    12A     -1.086981
      13A     -1.042857    14A     -0.901451    15A     -0.840940
      16A     -0.743794    17A     -0.719330    18A     -0.708788
      19A     -0.683765    20A     -0.649412    21A     -0.631965
      22A     -0.625327    23A     -0.599045    24A     -0.580348
      25A     -0.526444    26A     -0.517979    27A     -0.515527
      28A     -0.502998    29A     -0.490148    30A     -0.469594
      31A     -0.424364

  @DF-RHF Final Energy:  -418.76664238145383

   => Energetics <=

    Nuclear Repulsion Energy =            372.0872799559660393
    One-Electron Energy =               -1310.2138855890852938
    Two-Electron Energy =                 519.3599632516653628
    Total Energy =                       -418.7666423814538348
  Basis Set: (AUG-CC-PVTZ AUX)
    Blend: AUG-CC-PVTZ-RI
    Molecular point group: c1

    Geometry (in Angstrom), charge = 0, multiplicity = 1:

       Center              X                  Y                   Z               Mass
    ------------   -----------------  -----------------  -----------------  -----------------
         O            1.250005378257     1.368622115999    -0.759832760740    15.994914619570
         O           -2.856075621743     0.044204115999     0.276421239260    15.994914619570
         O           -1.239100621743    -1.190105884001    -0.721479760740    15.994914619570
         C            1.588086378257    -0.556860884001     0.647189239260    12.000000000000
         C            0.793416378257     0.593838115999     0.074475239260    12.000000000000
         C           -0.631143621743     0.775098115999     0.583836239260    12.000000000000
         C            2.972347378257    -0.684825884001     0.029240239260    12.000000000000
         C           -1.565540621743    -0.237486884001    -0.033982760740    12.000000000000
         H            1.651022378257    -0.409491884001     1.734651239260     1.007825032230
         H            0.998239378257    -1.469010884001     0.498877239260     1.007825032230
         H           -0.682150721743     0.674260715999     1.624712339260     1.007825032230
         H           -0.975901621743     1.780493115999     0.326011239260     1.007825032230
         H            3.553392378257     0.226326115999     0.184825239260     1.007825032230
         H            3.513570378257    -1.524483884001     0.472716239260     1.007825032230
         H            2.897072378257    -0.849409884001    -1.047394760740     1.007825032230
         H           -3.392151621743    -0.650838884001    -0.159804760740     1.007825032230

  Basis Set: AUG-CC-PVTZ
    Blend: AUG-CC-PVTZ
  Basis Set: (AUG-CC-PVTZ AUX)
    Blend: AUG-CC-PVTZ-JKFIT
	 Reference Energy          =    -418.7666423814538348 [Eh]
	 Singles Energy            =      -0.0000000000000000 [Eh]
	 Same-Spin Energy          =      -0.4081736112122380 [Eh]
	 Opposite-Spin Energy      =      -1.2865083120737013 [Eh]
	 Correlation Energy        =      -1.6946819232859394 [Eh]
	 Total Energy              =    -420.4613243047397759 [Eh]

	 ================> DF-SCS-MP2 Energies <==================
	-----------------------------------------------------------
	 SCS Same-Spin Scale       =       0.3333333333333333 [-]
	 SCS Opposite-Spin Scale   =       1.2000000000000000 [-]
	 SCS Same-Spin Energy      =      -0.1360578704040793 [Eh]
	 SCS Opposite-Spin Energy  =      -1.5438099744884415 [Eh]
	 SCS Correlation Energy    =      -1.6798678448925208 [Eh]
	 SCS Total Energy          =    -420.4465102263463336 [Eh]
	-----------------------------------------------------------

  Dipole Moment: [D]
     X:    -1.4288      Y:    -0.7967      Z:     2.5845     Total:     3.0587

*** Psi4 exiting successfully. Buy a developer a beer!
