                               Psi4 1.3.2 release

  ==> Input File <==

--------------------------------------------------------------------------
#psi4
#
memory 32 gb

molecule  {
0 1
  O        1.2197630    -1.3791890     0.7815710
  O       -2.8493200    -0.0743410    -0.2921690
  O       -1.2471260     1.2289340     0.6316900
  C        1.6098530     0.5514350    -0.6010430
  C        0.8098938    -0.5864668    -0.1073610
  C       -0.6155180    -0.7660970    -0.6108670
  C        2.9660570     0.6794250     0.0724790
  C       -1.5616300     0.2444870    -0.0131750
  H        1.7167540     0.3993790    -1.6843760
  H        1.0152770     1.4637510    -0.4819620
  H       -0.5988625    -0.6405408    -1.7004874
  H       -0.9720840    -1.7722110    -0.3761960
  H        3.5474250    -0.2360290    -0.0491480
  H        3.5302360     1.5116820    -0.3550310
  H        2.8465530     0.8548240     1.1430380
  H       -3.3901630     0.6286630     0.1252190
units angstrom
no_reorient  #important for SAPT in psi4, default
symmetry c1  #important for SAPT in psi4, default
}

set PROPERTIES_ORIGIN ["COM"]
properties('MP2/aug-cc-pvtz', properties = ['dipole'])
--------------------------------------------------------------------------

    Molecular point group: c1
  Charge       = 0
  Multiplicity = 1
  Basis Set: AUG-CC-PVTZ
    Blend: AUG-CC-PVTZ
  Basis Set: (AUG-CC-PVTZ AUX)
    Blend: AUG-CC-PVTZ-JKFIT

    Orbital Energies [Eh]
    ---------------------

    Doubly Occupied:

       1A    -20.633515     2A    -20.570746     3A    -20.553832
       4A    -11.414396     5A    -11.346542     6A    -11.272884
       7A    -11.243240     8A    -11.218919     9A     -1.479949
      10A     -1.377587    11A     -1.365533    12A     -1.089233
      13A     -1.045435    14A     -0.907719    15A     -0.841912
      16A     -0.741556    17A     -0.720015    18A     -0.707884
      19A     -0.679500    20A     -0.648351    21A     -0.633957
      22A     -0.621582    23A     -0.599409    24A     -0.574593
      25A     -0.527126    26A     -0.517658    27A     -0.513139
      28A     -0.500821    29A     -0.487567    30A     -0.465902
      31A     -0.428622

  @DF-RHF Final Energy:  -418.76090624553905

   => Energetics <=

    Nuclear Repulsion Energy =            371.9827671636462014
    One-Electron Energy =               -1310.0290990655626047
    Two-Electron Energy =                 519.2854256563772424
    Total Energy =                       -418.7609062455391040
  Basis Set: (AUG-CC-PVTZ AUX)
    Blend: AUG-CC-PVTZ-RI
    Molecular point group: c1

    Geometry (in Angstrom), charge = 0, multiplicity = 1:

       Center              X                  Y                   Z               Mass
    ------------   -----------------  -----------------  -----------------  -----------------
         O            1.217635240743    -1.380118037265     0.786682852622    15.994914619570
         O           -2.851447759257    -0.075270037265    -0.287057147378    15.994914619570
         O           -1.249253759257     1.228004962735     0.636801852622    15.994914619570
         C            1.607725240743     0.550505962735    -0.595931147378    12.000000000000
         C            0.807766040743    -0.587395837265    -0.102249147378    12.000000000000
         C           -0.617645759257    -0.767026037265    -0.605755147378    12.000000000000
         C            2.963929240743     0.678495962735     0.077590852622    12.000000000000
         C           -1.563757759257     0.243557962735    -0.008063147378    12.000000000000
         H            1.714626240743     0.398449962735    -1.679264147378     1.007825032230
         H            1.013149240743     1.462821962735    -0.476850147378     1.007825032230
         H           -0.600990259257    -0.641469837265    -1.695375547378     1.007825032230
         H           -0.974211759257    -1.773140037265    -0.371084147378     1.007825032230
         H            3.545297240743    -0.236958037265    -0.044036147378     1.007825032230
         H            3.528108240743     1.510752962735    -0.349919147378     1.007825032230
         H            2.844425240743     0.853894962735     1.148149852622     1.007825032230
         H           -3.392290759257     0.627733962735     0.130330852622     1.007825032230

  Basis Set: AUG-CC-PVTZ
    Blend: AUG-CC-PVTZ
  Basis Set: (AUG-CC-PVTZ AUX)
    Blend: AUG-CC-PVTZ-JKFIT
	 Reference Energy          =    -418.7609062455390472 [Eh]
	 Singles Energy            =      -0.0000000000000000 [Eh]
	 Same-Spin Energy          =      -0.4093803446188332 [Eh]
	 Opposite-Spin Energy      =      -1.2889680379493356 [Eh]
	 Correlation Energy        =      -1.6983483825681689 [Eh]
	 Total Energy              =    -420.4592546281072032 [Eh]

	 ================> DF-SCS-MP2 Energies <==================
	-----------------------------------------------------------
	 SCS Same-Spin Scale       =       0.3333333333333333 [-]
	 SCS Opposite-Spin Scale   =       1.2000000000000000 [-]
	 SCS Same-Spin Energy      =      -0.1364601148729444 [Eh]
	 SCS Opposite-Spin Energy  =      -1.5467616455392026 [Eh]
	 SCS Correlation Energy    =      -1.6832217604121471 [Eh]
	 SCS Total Energy          =    -420.4441280059511996 [Eh]
	-----------------------------------------------------------

  Dipole Moment: [D]
     X:    -1.3007      Y:     0.9146      Z:    -2.6481     Total:     3.0888

*** Psi4 exiting successfully. Buy a developer a beer!
