                               Psi4 1.3.2 release

  ==> Input File <==

--------------------------------------------------------------------------
#psi4
#
memory 32 gb

molecule  {
0 1
  O        1.2197630    -1.3791890     0.7815710
  O       -2.8493200    -0.0743410    -0.2921690
  O       -1.2471260     1.2289340     0.6316900
  C        1.6098530     0.5514350    -0.6010430
  C        0.7924890    -0.5949300    -0.0578730
  C       -0.6155180    -0.7660970    -0.6108670
  C        2.9660570     0.6794250     0.0724790
  C       -1.5414991     0.1866045    -0.0489687
  H        1.7167540     0.3993790    -1.6843760
  H        1.0152770     1.4637510    -0.4819620
  H       -0.6366420    -0.6467360    -1.7011060
  H       -0.9720840    -1.7722110    -0.3761960
  H        3.5474250    -0.2360290    -0.0491480
  H        3.5302360     1.5116820    -0.3550310
  H        2.8465530     0.8548240     1.1430380
  H       -3.4321356     0.6049498     0.1076165
units angstrom
no_reorient  #important for SAPT in psi4, default
symmetry c1  #important for SAPT in psi4, default
}

set PROPERTIES_ORIGIN ["COM"]
properties('MP2/aug-cc-pvtz', properties = ['dipole'])
--------------------------------------------------------------------------

    Molecular point group: c1
  Charge       = 0
  Multiplicity = 1
  Basis Set: AUG-CC-PVTZ
    Blend: AUG-CC-PVTZ
  Basis Set: (AUG-CC-PVTZ AUX)
    Blend: AUG-CC-PVTZ-JKFIT

    Orbital Energies [Eh]
    ---------------------

    Doubly Occupied:

       1A    -20.632398     2A    -20.560688     3A    -20.560073
       4A    -11.419032     5A    -11.348593     6A    -11.274808
       7A    -11.242218     8A    -11.217725     9A     -1.466928
      10A     -1.391974    11A     -1.340682    12A     -1.099799
      13A     -1.049661    14A     -0.907672    15A     -0.846396
      16A     -0.745326    17A     -0.719840    18A     -0.700939
      19A     -0.684971    20A     -0.649876    21A     -0.628636
      22A     -0.627873    23A     -0.586241    24A     -0.578436
      25A     -0.528037    26A     -0.519018    27A     -0.516240
      28A     -0.495707    29A     -0.475981    30A     -0.465376
      31A     -0.428794

  @DF-RHF Final Energy:  -418.75334136592653

   => Energetics <=

    Nuclear Repulsion Energy =            372.0538718309420005
    One-Electron Energy =               -1310.1945518732827622
    Two-Electron Energy =                 519.3873386764142879
    Total Energy =                       -418.7533413659265307
  Basis Set: (AUG-CC-PVTZ AUX)
    Blend: AUG-CC-PVTZ-RI
    Molecular point group: c1

    Geometry (in Angstrom), charge = 0, multiplicity = 1:

       Center              X                  Y                   Z               Mass
    ------------   -----------------  -----------------  -----------------  -----------------
         O            1.218045960722    -1.372997746487     0.785425021860    15.994914619570
         O           -2.851037039278    -0.068149746487    -0.288314978140    15.994914619570
         O           -1.248843039278     1.235125253513     0.635544021860    15.994914619570
         C            1.608135960722     0.557626253513    -0.597188978140    12.000000000000
         C            0.790771960722    -0.588738746487    -0.054018978140    12.000000000000
         C           -0.617235039278    -0.759905746487    -0.607012978140    12.000000000000
         C            2.964339960722     0.685616253513     0.076333021860    12.000000000000
         C           -1.543216139278     0.192795753513    -0.045114678140    12.000000000000
         H            1.715036960722     0.405570253513    -1.680521978140     1.007825032230
         H            1.013559960722     1.469942253513    -0.478107978140     1.007825032230
         H           -0.638359039278    -0.640544746487    -1.697251978140     1.007825032230
         H           -0.973801039278    -1.766019746487    -0.372341978140     1.007825032230
         H            3.545707960722    -0.229837746487    -0.045293978140     1.007825032230
         H            3.528518960722     1.517873253513    -0.351176978140     1.007825032230
         H            2.844835960722     0.861015253513     1.146892021860     1.007825032230
         H           -3.433852639278     0.611141053513     0.111470521860     1.007825032230

  Basis Set: AUG-CC-PVTZ
    Blend: AUG-CC-PVTZ
  Basis Set: (AUG-CC-PVTZ AUX)
    Blend: AUG-CC-PVTZ-JKFIT
	 Reference Energy          =    -418.7533413659265307 [Eh]
	 Singles Energy            =      -0.0000000000000000 [Eh]
	 Same-Spin Energy          =      -0.4099371162261595 [Eh]
	 Opposite-Spin Energy      =      -1.2897783189786463 [Eh]
	 Correlation Energy        =      -1.6997154352048058 [Eh]
	 Total Energy              =    -420.4530568011313107 [Eh]

	 ================> DF-SCS-MP2 Energies <==================
	-----------------------------------------------------------
	 SCS Same-Spin Scale       =       0.3333333333333333 [-]
	 SCS Opposite-Spin Scale   =       1.2000000000000000 [-]
	 SCS Same-Spin Energy      =      -0.1366457054087198 [Eh]
	 SCS Opposite-Spin Energy  =      -1.5477339827743755 [Eh]
	 SCS Correlation Energy    =      -1.6843796881830952 [Eh]
	 SCS Total Energy          =    -420.4377210541096019 [Eh]
	-----------------------------------------------------------

  Dipole Moment: [D]
     X:    -1.2931      Y:     0.4546      Z:    -2.7584     Total:     3.0801

*** Psi4 exiting successfully. Buy a developer a beer!
