                               Psi4 1.3.2 release

  ==> Input File <==

--------------------------------------------------------------------------
#psi4
#
memory 32 gb

molecule  {
0 1
  O        1.2197630    -1.3791890     0.7815710
  O       -2.8493200    -0.0743410    -0.2921690
  O       -1.2062860     1.2181331     0.6268589
  C        1.6098530     0.5514350    -0.6010430
  C        0.7924890    -0.5949300    -0.0578730
  C       -0.5751803    -0.7385714    -0.5912380
  C        2.9660570     0.6794250     0.0724790
  C       -1.5616300     0.2444870    -0.0131750
  H        1.7167540     0.3993790    -1.6843760
  H        1.0152770     1.4637510    -0.4819620
  H       -0.6366420    -0.6467360    -1.7011060
  H       -0.9720840    -1.7722110    -0.3761960
  H        3.5474250    -0.2360290    -0.0491480
  H        3.5302360     1.5116820    -0.3550310
  H        2.8465530     0.8548240     1.1430380
  H       -3.3901630     0.6286630     0.1252190
units angstrom
no_reorient  #important for SAPT in psi4, default
symmetry c1  #important for SAPT in psi4, default
}

set PROPERTIES_ORIGIN ["COM"]
properties('MP2/aug-cc-pvtz', properties = ['dipole'])
--------------------------------------------------------------------------

    Molecular point group: c1
  Charge       = 0
  Multiplicity = 1
  Basis Set: AUG-CC-PVTZ
    Blend: AUG-CC-PVTZ
  Basis Set: (AUG-CC-PVTZ AUX)
    Blend: AUG-CC-PVTZ-JKFIT

    Orbital Energies [Eh]
    ---------------------

    Doubly Occupied:

       1A    -20.638194     2A    -20.569885     3A    -20.555737
       4A    -11.414659     5A    -11.340562     6A    -11.271618
       7A    -11.239223     8A    -11.215855     9A     -1.480467
      10A     -1.389482    11A     -1.379275    12A     -1.087867
      13A     -1.040138    14A     -0.903283    15A     -0.841831
      16A     -0.744222    17A     -0.722661    18A     -0.707863
      19A     -0.679947    20A     -0.650409    21A     -0.632643
      22A     -0.628726    23A     -0.596988    24A     -0.570363
      25A     -0.522232    26A     -0.516934    27A     -0.513427
      28A     -0.503198    29A     -0.490363    30A     -0.466060
      31A     -0.427644

  @DF-RHF Final Energy:  -418.76371760601916

   => Energetics <=

    Nuclear Repulsion Energy =            373.2870715871683274
    One-Electron Energy =               -1312.6180704306127609
    Two-Electron Energy =                 520.5672812374251635
    Total Energy =                       -418.7637176060192132
  Basis Set: (AUG-CC-PVTZ AUX)
    Blend: AUG-CC-PVTZ-RI
    Molecular point group: c1

    Geometry (in Angstrom), charge = 0, multiplicity = 1:

       Center              X                  Y                   Z               Mass
    ------------   -----------------  -----------------  -----------------  -----------------
         O            1.209962923948    -1.380546704112     0.780206982510    15.994914619570
         O           -2.859120076052    -0.075698704112    -0.293533017490    15.994914619570
         O           -1.216086076052     1.216775395888     0.625494882510    15.994914619570
         C            1.600052923948     0.550077295888    -0.602407017490    12.000000000000
         C            0.782688923948    -0.596287704112    -0.059237017490    12.000000000000
         C           -0.584980376052    -0.739929104112    -0.592602017490    12.000000000000
         C            2.956256923948     0.678067295888     0.071114982510    12.000000000000
         C           -1.571430076052     0.243129295888    -0.014539017490    12.000000000000
         H            1.706953923948     0.398021295888    -1.685740017490     1.007825032230
         H            1.005476923948     1.462393295888    -0.483326017490     1.007825032230
         H           -0.646442076052    -0.648093704112    -1.702470017490     1.007825032230
         H           -0.981884076052    -1.773568704112    -0.377560017490     1.007825032230
         H            3.537624923948    -0.237386704112    -0.050512017490     1.007825032230
         H            3.520435923948     1.510324295888    -0.356395017490     1.007825032230
         H            2.836752923948     0.853466295888     1.141673982510     1.007825032230
         H           -3.399963076052     0.627305295888     0.123854982510     1.007825032230

  Basis Set: AUG-CC-PVTZ
    Blend: AUG-CC-PVTZ
  Basis Set: (AUG-CC-PVTZ AUX)
    Blend: AUG-CC-PVTZ-JKFIT
	 Reference Energy          =    -418.7637176060191564 [Eh]
	 Singles Energy            =      -0.0000000000000000 [Eh]
	 Same-Spin Energy          =      -0.4087014213906834 [Eh]
	 Opposite-Spin Energy      =      -1.2872183355113092 [Eh]
	 Correlation Energy        =      -1.6959197569019926 [Eh]
	 Total Energy              =    -420.4596373629211712 [Eh]

	 ================> DF-SCS-MP2 Energies <==================
	-----------------------------------------------------------
	 SCS Same-Spin Scale       =       0.3333333333333333 [-]
	 SCS Opposite-Spin Scale   =       1.2000000000000000 [-]
	 SCS Same-Spin Energy      =      -0.1362338071302278 [Eh]
	 SCS Opposite-Spin Energy  =      -1.5446620026135709 [Eh]
	 SCS Correlation Energy    =      -1.6808958097437987 [Eh]
	 SCS Total Energy          =    -420.4446134157629444 [Eh]
	-----------------------------------------------------------

  Dipole Moment: [D]
     X:    -1.5538      Y:     0.8177      Z:    -2.5544     Total:     3.0996

*** Psi4 exiting successfully. Buy a developer a beer!
