                               Psi4 1.3.2 release

  ==> Input File <==

--------------------------------------------------------------------------
#psi4
#
memory 32 gb

molecule  {
0 1
  O        1.2197630    -1.3791890     0.7815710
  O       -2.8529245    -0.0647792    -0.2862090
  O       -1.2471260     1.2289340     0.6316900
  C        1.6098530     0.5514350    -0.6010430
  C        0.7924890    -0.5949300    -0.0578730
  C       -0.6053276    -0.7593772    -0.6059531
  C        2.9660570     0.6794250     0.0724790
  C       -1.5616300     0.2444870    -0.0131750
  H        1.7167540     0.3993790    -1.6843760
  H        1.0152770     1.4637510    -0.4819620
  H       -0.6366420    -0.6467360    -1.7011060
  H       -0.9720840    -1.7722110    -0.3761960
  H        3.5474250    -0.2360290    -0.0491480
  H        3.5302360     1.5116820    -0.3550310
  H        2.8465530     0.8548240     1.1430380
  H       -3.3901630     0.6286630     0.1252190
units angstrom
no_reorient  #important for SAPT in psi4, default
symmetry c1  #important for SAPT in psi4, default
}

set PROPERTIES_ORIGIN ["COM"]
properties('MP2/aug-cc-pvtz', properties = ['dipole'])
--------------------------------------------------------------------------

    Molecular point group: c1
  Charge       = 0
  Multiplicity = 1
  Basis Set: AUG-CC-PVTZ
    Blend: AUG-CC-PVTZ
  Basis Set: (AUG-CC-PVTZ AUX)
    Blend: AUG-CC-PVTZ-JKFIT

    Orbital Energies [Eh]
    ---------------------

    Doubly Occupied:

       1A    -20.631751     2A    -20.569512     3A    -20.557058
       4A    -11.413567     5A    -11.343839     6A    -11.272430
       7A    -11.241200     8A    -11.217110     9A     -1.480717
      10A     -1.389576    11A     -1.376088    12A     -1.086508
      13A     -1.042151    14A     -0.902867    15A     -0.842220
      16A     -0.743351    17A     -0.720944    18A     -0.707659
      19A     -0.680804    20A     -0.649170    21A     -0.632251
      22A     -0.627553    23A     -0.598179    24A     -0.575932
      25A     -0.525447    26A     -0.518527    27A     -0.515111
      28A     -0.502552    29A     -0.490646    30A     -0.468452
      31A     -0.426129

  @DF-RHF Final Energy:  -418.76835484840831

   => Energetics <=

    Nuclear Repulsion Energy =            372.4325199058634439
    One-Electron Energy =               -1310.9031479030670653
    Two-Electron Energy =                 519.7022731487952569
    Total Energy =                       -418.7683548484083076
  Basis Set: (AUG-CC-PVTZ AUX)
    Blend: AUG-CC-PVTZ-RI
    Molecular point group: c1

    Geometry (in Angstrom), charge = 0, multiplicity = 1:

       Center              X                  Y                   Z               Mass
    ------------   -----------------  -----------------  -----------------  -----------------
         O            1.219206165066    -1.381201868162     0.780241265731    15.994914619570
         O           -2.853481334934    -0.066792068162    -0.287538734269    15.994914619570
         O           -1.247682834934     1.226921131838     0.630360265731    15.994914619570
         C            1.609296165066     0.549422131838    -0.602372734269    12.000000000000
         C            0.791932165066    -0.596942868162    -0.059202734269    12.000000000000
         C           -0.605884434934    -0.761390068162    -0.607282834269    12.000000000000
         C            2.965500165066     0.677412131838     0.071149265731    12.000000000000
         C           -1.562186834934     0.242474131838    -0.014504734269    12.000000000000
         H            1.716197165066     0.397366131838    -1.685705734269     1.007825032230
         H            1.014720165066     1.461738131838    -0.483291734269     1.007825032230
         H           -0.637198834934    -0.648748868162    -1.702435734269     1.007825032230
         H           -0.972640834934    -1.774223868162    -0.377525734269     1.007825032230
         H            3.546868165066    -0.238041868162    -0.050477734269     1.007825032230
         H            3.529679165066     1.509669131838    -0.356360734269     1.007825032230
         H            2.845996165066     0.852811131838     1.141708265731     1.007825032230
         H           -3.390719834934     0.626650131838     0.123889265731     1.007825032230

  Basis Set: AUG-CC-PVTZ
    Blend: AUG-CC-PVTZ
  Basis Set: (AUG-CC-PVTZ AUX)
    Blend: AUG-CC-PVTZ-JKFIT
	 Reference Energy          =    -418.7683548484083076 [Eh]
	 Singles Energy            =      -0.0000000000000000 [Eh]
	 Same-Spin Energy          =      -0.4080841221974890 [Eh]
	 Opposite-Spin Energy      =      -1.2861800320074748 [Eh]
	 Correlation Energy        =      -1.6942641542049639 [Eh]
	 Total Energy              =    -420.4626190026132804 [Eh]

	 ================> DF-SCS-MP2 Energies <==================
	-----------------------------------------------------------
	 SCS Same-Spin Scale       =       0.3333333333333333 [-]
	 SCS Opposite-Spin Scale   =       1.2000000000000000 [-]
	 SCS Same-Spin Energy      =      -0.1360280407324963 [Eh]
	 SCS Opposite-Spin Energy  =      -1.5434160384089697 [Eh]
	 SCS Correlation Energy    =      -1.6794440791414660 [Eh]
	 SCS Total Energy          =    -420.4477989275497976 [Eh]
	-----------------------------------------------------------

  Dipole Moment: [D]
     X:    -1.3459      Y:     0.7639      Z:    -2.5710     Total:     3.0009

*** Psi4 exiting successfully. Buy a developer a beer!
