                               Psi4 1.3.2 release

  ==> Input File <==

--------------------------------------------------------------------------
#psi4
#
memory 32 gb

molecule  {
0 1
  O        1.2197630    -1.3791890     0.7815710
  O       -2.8493200    -0.0743410    -0.2921690
  O       -1.2471260     1.2289340     0.6316900
  C        1.6098530     0.5514350    -0.6010430
  C        0.7924890    -0.5949300    -0.0578730
  C       -0.6155180    -0.7660970    -0.6108670
  C        2.9660570     0.6794250     0.0724790
  C       -1.6243753     0.3115080     0.0264634
  H        1.7167540     0.3993790    -1.6843760
  H        1.0152770     1.4637510    -0.4819620
  H       -0.6366420    -0.6467360    -1.7011060
  H       -0.9720840    -1.7722110    -0.3761960
  H        3.5474250    -0.2360290    -0.0491480
  H        3.5302360     1.5116820    -0.3550310
  H        2.8465530     0.8548240     1.1430380
  H       -3.3901630     0.6286630     0.1252190
units angstrom
no_reorient  #important for SAPT in psi4, default
symmetry c1  #important for SAPT in psi4, default
}

set PROPERTIES_ORIGIN ["COM"]
properties('MP2/aug-cc-pvtz', properties = ['dipole'])
--------------------------------------------------------------------------

    Molecular point group: c1
  Charge       = 0
  Multiplicity = 1
  Basis Set: AUG-CC-PVTZ
    Blend: AUG-CC-PVTZ
  Basis Set: (AUG-CC-PVTZ AUX)
    Blend: AUG-CC-PVTZ-JKFIT

    Orbital Energies [Eh]
    ---------------------

    Doubly Occupied:

       1A    -20.643183     2A    -20.576893     3A    -20.550271
       4A    -11.408918     5A    -11.336668     6A    -11.262534
       7A    -11.237890     8A    -11.214723     9A     -1.507957
      10A     -1.416307    11A     -1.382053    12A     -1.070072
      13A     -1.025170    14A     -0.895397    15A     -0.841488
      16A     -0.747072    17A     -0.726233    18A     -0.713081
      19A     -0.682712    20A     -0.651202    21A     -0.637204
      22A     -0.621717    23A     -0.599847    24A     -0.573673
      25A     -0.525023    26A     -0.520546    27A     -0.516154
      28A     -0.510661    29A     -0.489874    30A     -0.458083
      31A     -0.416975

  @DF-RHF Final Energy:  -418.76110436717124

   => Energetics <=

    Nuclear Repulsion Energy =            372.2549095203659704
    One-Electron Energy =               -1310.5128674741117720
    Two-Electron Energy =                 519.4968535865745025
    Total Energy =                       -418.7611043671712423
  Basis Set: (AUG-CC-PVTZ AUX)
    Blend: AUG-CC-PVTZ-RI
    Molecular point group: c1

    Geometry (in Angstrom), charge = 0, multiplicity = 1:

       Center              X                  Y                   Z               Mass
    ------------   -----------------  -----------------  -----------------  -----------------
         O            1.226251347672    -1.386119466489     0.777472013998    15.994914619570
         O           -2.842831652328    -0.081271466489    -0.296267986002    15.994914619570
         O           -1.240637652328     1.222003533511     0.627591013998    15.994914619570
         C            1.616341347672     0.544504533511    -0.605141986002    12.000000000000
         C            0.798977347672    -0.601860466489    -0.061971986002    12.000000000000
         C           -0.609029652328    -0.773027466489    -0.614965986002    12.000000000000
         C            2.972545347672     0.672494533511     0.068380013998    12.000000000000
         C           -1.617886952328     0.304577533511     0.022364413998    12.000000000000
         H            1.723242347672     0.392448533511    -1.688474986002     1.007825032230
         H            1.021765347672     1.456820533511    -0.486060986002     1.007825032230
         H           -0.630153652328    -0.653666466489    -1.705204986002     1.007825032230
         H           -0.965595652328    -1.779141466489    -0.380294986002     1.007825032230
         H            3.553913347672    -0.242959466489    -0.053246986002     1.007825032230
         H            3.536724347672     1.504751533511    -0.359129986002     1.007825032230
         H            2.853041347672     0.847893533511     1.138939013998     1.007825032230
         H           -3.383674652328     0.621732533511     0.121120013998     1.007825032230

  Basis Set: AUG-CC-PVTZ
    Blend: AUG-CC-PVTZ
  Basis Set: (AUG-CC-PVTZ AUX)
    Blend: AUG-CC-PVTZ-JKFIT
	 Reference Energy          =    -418.7611043671712423 [Eh]
	 Singles Energy            =      -0.0000000000000000 [Eh]
	 Same-Spin Energy          =      -0.4069179935480087 [Eh]
	 Opposite-Spin Energy      =      -1.2838392206787952 [Eh]
	 Correlation Energy        =      -1.6907572142268039 [Eh]
	 Total Energy              =    -420.4518615813980205 [Eh]

	 ================> DF-SCS-MP2 Energies <==================
	-----------------------------------------------------------
	 SCS Same-Spin Scale       =       0.3333333333333333 [-]
	 SCS Opposite-Spin Scale   =       1.2000000000000000 [-]
	 SCS Same-Spin Energy      =      -0.1356393311826696 [Eh]
	 SCS Opposite-Spin Energy  =      -1.5406070648145542 [Eh]
	 SCS Correlation Energy    =      -1.6762463959972238 [Eh]
	 SCS Total Energy          =    -420.4373507631684674 [Eh]
	-----------------------------------------------------------

  Dipole Moment: [D]
     X:    -1.8620      Y:     1.1670      Z:    -2.3470     Total:     3.2152

*** Psi4 exiting successfully. Buy a developer a beer!
