                               Psi4 1.3.2 release

  ==> Input File <==

--------------------------------------------------------------------------
#psi4
#
memory 32 gb

molecule  {
0 1
  O        1.2197630    -1.3791890     0.7815710
  O       -2.8631468    -0.0359552    -0.2682059
  O       -1.2471260     1.2289340     0.6316900
  C        1.6098530     0.5514350    -0.6010430
  C        0.7924890    -0.5949300    -0.0578730
  C       -0.5751962    -0.7387614    -0.5909421
  C        2.9660570     0.6794250     0.0724790
  C       -1.5616300     0.2444870    -0.0131750
  H        1.7167540     0.3993790    -1.6843760
  H        1.0152770     1.4637510    -0.4819620
  H       -0.6366420    -0.6467360    -1.7011060
  H       -0.9720840    -1.7722110    -0.3761960
  H        3.5474250    -0.2360290    -0.0491480
  H        3.5302360     1.5116820    -0.3550310
  H        2.8465530     0.8548240     1.1430380
  H       -3.3901630     0.6286630     0.1252190
units angstrom
no_reorient  #important for SAPT in psi4, default
symmetry c1  #important for SAPT in psi4, default
}

set PROPERTIES_ORIGIN ["COM"]
properties('MP2/aug-cc-pvtz', properties = ['dipole'])
--------------------------------------------------------------------------

    Molecular point group: c1
  Charge       = 0
  Multiplicity = 1
  Basis Set: AUG-CC-PVTZ
    Blend: AUG-CC-PVTZ
  Basis Set: (AUG-CC-PVTZ AUX)
    Blend: AUG-CC-PVTZ-JKFIT

    Orbital Energies [Eh]
    ---------------------

    Doubly Occupied:

       1A    -20.628217     2A    -20.566914     3A    -20.558092
       4A    -11.414265     5A    -11.343099     6A    -11.276210
       7A    -11.241045     8A    -11.217083     9A     -1.484718
      10A     -1.391365    11A     -1.376469    12A     -1.091166
      13A     -1.042596    14A     -0.907256    15A     -0.849690
      16A     -0.746560    17A     -0.723962    18A     -0.707836
      19A     -0.680924    20A     -0.651968    21A     -0.632420
      22A     -0.630778    23A     -0.596444    24A     -0.572280
      25A     -0.523533    26A     -0.518524    27A     -0.514945
      28A     -0.501273    29A     -0.490016    30A     -0.466900
      31A     -0.430131

  @DF-RHF Final Energy:  -418.76538199740747

   => Energetics <=

    Nuclear Repulsion Energy =            373.0048772124508218
    One-Electron Energy =               -1311.9871624850588887
    Two-Electron Energy =                 520.2169032752005933
    Total Energy =                       -418.7653819974075304
  Basis Set: (AUG-CC-PVTZ AUX)
    Blend: AUG-CC-PVTZ-RI
    Molecular point group: c1

    Geometry (in Angstrom), charge = 0, multiplicity = 1:

       Center              X                  Y                   Z               Mass
    ------------   -----------------  -----------------  -----------------  -----------------
         O            1.217499344580    -1.387306506095     0.776207652977    15.994914619570
         O           -2.865410455420    -0.044072706095    -0.273569247023    15.994914619570
         O           -1.249389655420     1.220816493905     0.626326652977    15.994914619570
         C            1.607589344580     0.543317493905    -0.606406347023    12.000000000000
         C            0.790225344580    -0.603047506095    -0.063236347023    12.000000000000
         C           -0.577459855420    -0.746878906095    -0.596305447023    12.000000000000
         C            2.963793344580     0.671307493905     0.067115652977    12.000000000000
         C           -1.563893655420     0.236369493905    -0.018538347023    12.000000000000
         H            1.714490344580     0.391261493905    -1.689739347023     1.007825032230
         H            1.013013344580     1.455633493905    -0.487325347023     1.007825032230
         H           -0.638905655420    -0.654853506095    -1.706469347023     1.007825032230
         H           -0.974347655420    -1.780328506095    -0.381559347023     1.007825032230
         H            3.545161344580    -0.244146506095    -0.054511347023     1.007825032230
         H            3.527972344580     1.503564493905    -0.360394347023     1.007825032230
         H            2.844289344580     0.846706493905     1.137674652977     1.007825032230
         H           -3.392426655420     0.620545493905     0.119855652977     1.007825032230

  Basis Set: AUG-CC-PVTZ
    Blend: AUG-CC-PVTZ
  Basis Set: (AUG-CC-PVTZ AUX)
    Blend: AUG-CC-PVTZ-JKFIT
	 Reference Energy          =    -418.7653819974074736 [Eh]
	 Singles Energy            =      -0.0000000000000000 [Eh]
	 Same-Spin Energy          =      -0.4077657287539630 [Eh]
	 Opposite-Spin Energy      =      -1.2852557306728034 [Eh]
	 Correlation Energy        =      -1.6930214594267663 [Eh]
	 Total Energy              =    -420.4584034568342190 [Eh]

	 ================> DF-SCS-MP2 Energies <==================
	-----------------------------------------------------------
	 SCS Same-Spin Scale       =       0.3333333333333333 [-]
	 SCS Opposite-Spin Scale   =       1.2000000000000000 [-]
	 SCS Same-Spin Energy      =      -0.1359219095846543 [Eh]
	 SCS Opposite-Spin Energy  =      -1.5423068768073640 [Eh]
	 SCS Correlation Energy    =      -1.6782287863920184 [Eh]
	 SCS Total Energy          =    -420.4436107837994996 [Eh]
	-----------------------------------------------------------

  Dipole Moment: [D]
     X:    -1.3309      Y:     0.7080      Z:    -2.6108     Total:     3.0148

*** Psi4 exiting successfully. Buy a developer a beer!
