                               Psi4 1.3.2 release

  ==> Input File <==

--------------------------------------------------------------------------
#psi4
#
memory 32 gb

molecule  {
0 1
  O        1.2197630    -1.3791890     0.7815710
  O       -2.8493200    -0.0743410    -0.2921690
  O       -1.2471260     1.2289340     0.6316900
  C        1.6098530     0.5514350    -0.6010430
  C        0.7924890    -0.5949300    -0.0578730
  C       -0.6155180    -0.7660970    -0.6108670
  C        2.9660570     0.6794250     0.0724790
  C       -1.5616300     0.2444870    -0.0131750
  H        1.7167540     0.3993790    -1.6843760
  H        1.0152770     1.4637510    -0.4819620
  H       -0.6366420    -0.6467360    -1.7011060
  H       -0.9720840    -1.7722110    -0.3761960
  H        3.5474250    -0.2360290    -0.0491480
  H        3.5302360     1.5116820    -0.3550310
  H        2.8465530     0.8548240     1.1430380
  H       -3.5005082     0.7720930     0.2103764
units angstrom
no_reorient  #important for SAPT in psi4, default
symmetry c1  #important for SAPT in psi4, default
}

set PROPERTIES_ORIGIN ["COM"]
properties('MP2/aug-cc-pvtz', properties = ['dipole'])
--------------------------------------------------------------------------

    Molecular point group: c1
  Charge       = 0
  Multiplicity = 1
  Basis Set: AUG-CC-PVTZ
    Blend: AUG-CC-PVTZ
  Basis Set: (AUG-CC-PVTZ AUX)
    Blend: AUG-CC-PVTZ-JKFIT

    Orbital Energies [Eh]
    ---------------------

    Doubly Occupied:

       1A    -20.640829     2A    -20.566576     3A    -20.555770
       4A    -11.409523     5A    -11.343160     6A    -11.270331
       7A    -11.240384     8A    -11.216468     9A     -1.459413
      10A     -1.387561    11A     -1.359034    12A     -1.082188
      13A     -1.038897    14A     -0.895456    15A     -0.815930
      16A     -0.740347    17A     -0.703716    18A     -0.697829
      19A     -0.677951    20A     -0.643202    21A     -0.628301
      22A     -0.622630    23A     -0.582353    24A     -0.573830
      25A     -0.524912    26A     -0.516769    27A     -0.514020
      28A     -0.499194    29A     -0.487900    30A     -0.465968
      31A     -0.423406

  @DF-RHF Final Energy:  -418.73304228603860

   => Energetics <=

    Nuclear Repulsion Energy =            371.2028480037652685
    One-Electron Energy =               -1308.7040880061024382
    Two-Electron Energy =                 518.7681977162985731
    Total Energy =                       -418.7330422860386534
  Basis Set: (AUG-CC-PVTZ AUX)
    Blend: AUG-CC-PVTZ-RI
    Molecular point group: c1

    Geometry (in Angstrom), charge = 0, multiplicity = 1:

       Center              X                  Y                   Z               Mass
    ------------   -----------------  -----------------  -----------------  -----------------
         O            1.220721406853    -1.380434720659     0.780831307083    15.994914619570
         O           -2.848361593147    -0.075586720659    -0.292908692917    15.994914619570
         O           -1.246167593147     1.227688279341     0.630950307083    15.994914619570
         C            1.610811406853     0.550189279341    -0.601782692917    12.000000000000
         C            0.793447406853    -0.596175720659    -0.058612692917    12.000000000000
         C           -0.614559593147    -0.767342720659    -0.611606692917    12.000000000000
         C            2.967015406853     0.678179279341     0.071739307083    12.000000000000
         C           -1.560671593147     0.243241279341    -0.013914692917    12.000000000000
         H            1.717712406853     0.398133279341    -1.685115692917     1.007825032230
         H            1.016235406853     1.462505279341    -0.482701692917     1.007825032230
         H           -0.635683593147    -0.647981720659    -1.701845692917     1.007825032230
         H           -0.971125593147    -1.773456720659    -0.376935692917     1.007825032230
         H            3.548383406853    -0.237274720659    -0.049887692917     1.007825032230
         H            3.531194406853     1.510436279341    -0.355770692917     1.007825032230
         H            2.847511406853     0.853578279341     1.142298307083     1.007825032230
         H           -3.499549793147     0.770847279341     0.209636707083     1.007825032230

  Basis Set: AUG-CC-PVTZ
    Blend: AUG-CC-PVTZ
  Basis Set: (AUG-CC-PVTZ AUX)
    Blend: AUG-CC-PVTZ-JKFIT
	 Reference Energy          =    -418.7330422860385966 [Eh]
	 Singles Energy            =      -0.0000000000000000 [Eh]
	 Same-Spin Energy          =      -0.4107674834130772 [Eh]
	 Opposite-Spin Energy      =      -1.2930052957418057 [Eh]
	 Correlation Energy        =      -1.7037727791548829 [Eh]
	 Total Energy              =    -420.4368150651934570 [Eh]

	 ================> DF-SCS-MP2 Energies <==================
	-----------------------------------------------------------
	 SCS Same-Spin Scale       =       0.3333333333333333 [-]
	 SCS Opposite-Spin Scale   =       1.2000000000000000 [-]
	 SCS Same-Spin Energy      =      -0.1369224944710257 [Eh]
	 SCS Opposite-Spin Energy  =      -1.5516063548901669 [Eh]
	 SCS Correlation Energy    =      -1.6885288493611925 [Eh]
	 SCS Total Energy          =    -420.4215711353998017 [Eh]
	-----------------------------------------------------------

  Dipole Moment: [D]
     X:    -1.5203      Y:     0.9259      Z:    -2.4723     Total:     3.0464

*** Psi4 exiting successfully. Buy a developer a beer!
