                               Psi4 1.3.2 release

  ==> Input File <==

--------------------------------------------------------------------------
#psi4
#
memory 32 gb

molecule  {
0 1
  O        1.2197630    -1.3791890     0.7815710
  O       -2.8493200    -0.0743410    -0.2921690
  O       -1.2471260     1.2289340     0.6316900
  C        1.6098530     0.5514350    -0.6010430
  C        0.7352489    -0.5432552    -0.0406938
  C       -0.6155180    -0.7660970    -0.6108670
  C        2.9660570     0.6794250     0.0724790
  C       -1.5616300     0.2444870    -0.0131750
  H        1.7167540     0.3993790    -1.6843760
  H        0.9737746     1.4318431    -0.4585395
  H       -0.6366420    -0.6467360    -1.7011060
  H       -0.9720840    -1.7722110    -0.3761960
  H        3.5474250    -0.2360290    -0.0491480
  H        3.5302360     1.5116820    -0.3550310
  H        2.8465530     0.8548240     1.1430380
  H       -3.3901630     0.6286630     0.1252190
units angstrom
no_reorient  #important for SAPT in psi4, default
symmetry c1  #important for SAPT in psi4, default
}

set PROPERTIES_ORIGIN ["COM"]
properties('MP2/aug-cc-pvtz', properties = ['dipole'])
--------------------------------------------------------------------------

    Molecular point group: c1
  Charge       = 0
  Multiplicity = 1
  Basis Set: AUG-CC-PVTZ
    Blend: AUG-CC-PVTZ
  Basis Set: (AUG-CC-PVTZ AUX)
    Blend: AUG-CC-PVTZ-JKFIT

    Orbital Energies [Eh]
    ---------------------

    Doubly Occupied:

       1A    -20.635025     2A    -20.574097     3A    -20.552502
       4A    -11.416346     5A    -11.346579     6A    -11.274562
       7A    -11.242760     8A    -11.217573     9A     -1.482427
      10A     -1.380608    11A     -1.359525    12A     -1.093496
      13A     -1.043978    14A     -0.905021    15A     -0.843627
      16A     -0.744073    17A     -0.720863    18A     -0.711914
      19A     -0.681793    20A     -0.646532    21A     -0.633418
      22A     -0.620647    23A     -0.601211    24A     -0.573894
      25A     -0.525995    26A     -0.515937    27A     -0.510523
      28A     -0.503134    29A     -0.488432    30A     -0.465036
      31A     -0.427261

  @DF-RHF Final Energy:  -418.75616381658119

   => Energetics <=

    Nuclear Repulsion Energy =            372.5586732219549049
    One-Electron Energy =               -1311.1520948979189143
    Two-Electron Energy =                 519.8372578593828166
    Total Energy =                       -418.7561638165811928
  Basis Set: (AUG-CC-PVTZ AUX)
    Blend: AUG-CC-PVTZ-RI
    Molecular point group: c1

    Geometry (in Angstrom), charge = 0, multiplicity = 1:

       Center              X                  Y                   Z               Mass
    ------------   -----------------  -----------------  -----------------  -----------------
         O            1.226042508404    -1.384255468808     0.779591016549    15.994914619570
         O           -2.843040491596    -0.079407468808    -0.294148983451    15.994914619570
         O           -1.240846491596     1.223867531192     0.629710016549    15.994914619570
         C            1.616132508404     0.546368531192    -0.603022983451    12.000000000000
         C            0.741528408404    -0.548321668808    -0.042673783451    12.000000000000
         C           -0.609238491596    -0.771163468808    -0.612846983451    12.000000000000
         C            2.972336508404     0.674358531192     0.070499016549    12.000000000000
         C           -1.555350491596     0.239420531192    -0.015154983451    12.000000000000
         H            1.723033508404     0.394312531192    -1.686355983451     1.007825032230
         H            0.980054108404     1.426776631192    -0.460519483451     1.007825032230
         H           -0.630362491596    -0.651802468808    -1.703085983451     1.007825032230
         H           -0.965804491596    -1.777277468808    -0.378175983451     1.007825032230
         H            3.553704508404    -0.241095468808    -0.051127983451     1.007825032230
         H            3.536515508404     1.506615531192    -0.357010983451     1.007825032230
         H            2.852832508404     0.849757531192     1.141058016549     1.007825032230
         H           -3.383883491596     0.623596531192     0.123239016549     1.007825032230

  Basis Set: AUG-CC-PVTZ
    Blend: AUG-CC-PVTZ
  Basis Set: (AUG-CC-PVTZ AUX)
    Blend: AUG-CC-PVTZ-JKFIT
	 Reference Energy          =    -418.7561638165811928 [Eh]
	 Singles Energy            =      -0.0000000000000000 [Eh]
	 Same-Spin Energy          =      -0.4099317562649256 [Eh]
	 Opposite-Spin Energy      =      -1.2899778010525902 [Eh]
	 Correlation Energy        =      -1.6999095573175158 [Eh]
	 Total Energy              =    -420.4560733738987324 [Eh]

	 ================> DF-SCS-MP2 Energies <==================
	-----------------------------------------------------------
	 SCS Same-Spin Scale       =       0.3333333333333333 [-]
	 SCS Opposite-Spin Scale   =       1.2000000000000000 [-]
	 SCS Same-Spin Energy      =      -0.1366439187549752 [Eh]
	 SCS Opposite-Spin Energy  =      -1.5479733612631081 [Eh]
	 SCS Correlation Energy    =      -1.6846172800180834 [Eh]
	 SCS Total Energy          =    -420.4407810965992667 [Eh]
	-----------------------------------------------------------

  Dipole Moment: [D]
     X:    -1.5548      Y:     0.8493      Z:    -2.6356     Total:     3.1757

*** Psi4 exiting successfully. Buy a developer a beer!
