                               Psi4 1.4a3.dev225

  ==> Input File <==

--------------------------------------------------------------------------
#psi4
#
memory 32 gb

molecule  {
0 1
  O        1.1896460     1.3864710    -0.7896670
  O       -2.9164350     0.0620530     0.2465870
  O       -1.2994600    -1.1722570    -0.7513140
  C        1.5277270    -0.5390120     0.6173550
  C        0.7330570     0.6116870     0.0446410
  C       -0.6915030     0.7929470     0.5540020
  C        2.9119880    -0.6669770    -0.0005940
  C       -1.6734545    -0.2092581    -0.0523790
  H        1.5906630    -0.3916430     1.7048170
  H        0.9378800    -1.4511620     0.4690430
  H       -0.7449460     0.6872940     1.6445860
  H       -1.0362610     1.7983420     0.2961770
  H        3.4930330     0.2441750     0.1549910
  H        3.4532110    -1.5066350     0.4428820
  H        2.8367130    -0.8315610    -1.0772290
  H       -3.4525110    -0.6329900    -0.1896390
units angstrom
no_reorient  #important for SAPT in psi4, default
symmetry c1  #important for SAPT in psi4, default
}

set PROPERTIES_ORIGIN ["COM"]
properties('MP2/aug-cc-pvtz', properties = ['dipole'])
--------------------------------------------------------------------------

    Molecular point group: c1
  Charge       = 0
  Multiplicity = 1
  Basis Set: AUG-CC-PVTZ
    Blend: AUG-CC-PVTZ
  Basis Set: (AUG-CC-PVTZ AUX)
    Blend: AUG-CC-PVTZ-JKFIT

    Orbital Energies [Eh]
    ---------------------

    Doubly Occupied:

       1A    -20.647447     2A    -20.562395     3A    -20.554818
       4A    -11.415035     5A    -11.342853     6A    -11.270738
       7A    -11.239906     8A    -11.215966     9A     -1.498973
      10A     -1.386105    11A     -1.364345    12A     -1.079754
      13A     -1.038428    14A     -0.903920    15A     -0.851715
      16A     -0.744150    17A     -0.723113    18A     -0.706609
      19A     -0.682946    20A     -0.652895    21A     -0.630585
      22A     -0.626601    23A     -0.588963    24A     -0.579198
      25A     -0.524516    26A     -0.515351    27A     -0.512848
      28A     -0.496728    29A     -0.484110    30A     -0.464252
      31A     -0.423213

  @DF-RHF Final Energy:  -418.76381272356690

   => Energetics <=

    Nuclear Repulsion Energy =            371.5826624812327168
    One-Electron Energy =               -1309.2359947938621190
    Two-Electron Energy =                 518.8895195890625018
    Total Energy =                       -418.7638127235668435
  Basis Set: (AUG-CC-PVTZ AUX)
    Blend: AUG-CC-PVTZ-RI
    Molecular point group: c1

    Geometry (in Angstrom), charge = 0, multiplicity = 1:

       Center              X                  Y                   Z               Mass
    ------------   -----------------  -----------------  -----------------  -----------------
         O            1.254943957122     1.367590592885    -0.761447212732    15.994914619570
         O           -2.851137042878     0.043172592885     0.274806787268    15.994914619570
         O           -1.234162042878    -1.191137407115    -0.723094212732    15.994914619570
         C            1.593024957122    -0.557892407115     0.645574787268    12.000000000000
         C            0.798354957122     0.592806592885     0.072860787268    12.000000000000
         C           -0.626205042878     0.774066592885     0.582221787268    12.000000000000
         C            2.977285957122    -0.685857407115     0.027625787268    12.000000000000
         C           -1.608156542878    -0.228138507115    -0.024159212732    12.000000000000
         H            1.655960957122    -0.410523407115     1.733036787268     1.007825032230
         H            1.003177957122    -1.470042407115     0.497262787268     1.007825032230
         H           -0.679648042878     0.668413592885     1.672805787268     1.007825032230
         H           -0.970963042878     1.779461592885     0.324396787268     1.007825032230
         H            3.558330957122     0.225294592885     0.183210787268     1.007825032230
         H            3.518508957122    -1.525515407115     0.471101787268     1.007825032230
         H            2.902010957122    -0.850441407115    -1.049009212732     1.007825032230
         H           -3.387213042878    -0.651870407115    -0.161419212732     1.007825032230

  Basis Set: AUG-CC-PVTZ
    Blend: AUG-CC-PVTZ
  Basis Set: (AUG-CC-PVTZ AUX)
    Blend: AUG-CC-PVTZ-JKFIT
	 Reference Energy          =    -418.7638127235669003 [Eh]
	 Singles Energy            =      -0.0000000000000000 [Eh]
	 Same-Spin Energy          =      -0.4083728861180156 [Eh]
	 Opposite-Spin Energy      =      -1.2868270870306542 [Eh]
	 Correlation Energy        =      -1.6951999731486698 [Eh]
	 Total Energy              =    -420.4590126967155470 [Eh]

	 ================> DF-SCS-MP2 Energies <==================
	-----------------------------------------------------------
	 SCS Same-Spin Scale       =       0.3333333333333333 [-]
	 SCS Opposite-Spin Scale   =       1.2000000000000000 [-]
	 SCS Same-Spin Energy      =      -0.1361242953726718 [Eh]
	 SCS Opposite-Spin Energy  =      -1.5441925044367850 [Eh]
	 SCS Correlation Energy    =      -1.6803167998094568 [Eh]
	 SCS Total Energy          =    -420.4441295233763753 [Eh]
	-----------------------------------------------------------

  Dipole Moment: [D]
     X:    -1.8573      Y:    -0.6978      Z:     2.6818     Total:     3.3359

*** Psi4 exiting successfully. Buy a developer a beer!
