                               Psi4 1.3.2 release

  ==> Input File <==

--------------------------------------------------------------------------
#psi4
#
memory 32 gb

molecule  {
0 1
  O        1.2197630    -1.3791890     0.7815710
  O       -2.8493200    -0.0743410    -0.2921690
  O       -1.2471260     1.2289340     0.6316900
  C        1.6098530     0.5514350    -0.6010430
  C        0.7924890    -0.5949300    -0.0578730
  C       -0.6155180    -0.7660970    -0.6108670
  C        2.9660570     0.6794250     0.0724790
  C       -1.5852904     0.3014956     0.0218540
  H        1.7167540     0.3993790    -1.6843760
  H        1.0152770     1.4637510    -0.4819620
  H       -0.6366420    -0.6467360    -1.7011060
  H       -0.9720840    -1.7722110    -0.3761960
  H        3.5474250    -0.2360290    -0.0491480
  H        3.5302360     1.5116820    -0.3550310
  H        2.8465530     0.8548240     1.1430380
  H       -3.3467079     0.6504493     0.1416774
units angstrom
no_reorient  #important for SAPT in psi4, default
symmetry c1  #important for SAPT in psi4, default
}

set PROPERTIES_ORIGIN ["COM"]
properties('MP2/aug-cc-pvtz', properties = ['dipole'])
--------------------------------------------------------------------------

    Molecular point group: c1
  Charge       = 0
  Multiplicity = 1
  Basis Set: AUG-CC-PVTZ
    Blend: AUG-CC-PVTZ
  Basis Set: (AUG-CC-PVTZ AUX)
    Blend: AUG-CC-PVTZ-JKFIT

    Orbital Energies [Eh]
    ---------------------

    Doubly Occupied:

       1A    -20.634210     2A    -20.580188     3A    -20.552985
       4A    -11.408995     5A    -11.339369     6A    -11.265906
       7A    -11.240119     8A    -11.216375     9A     -1.500671
      10A     -1.407623    11A     -1.384750    12A     -1.074980
      13A     -1.031347    14A     -0.895674    15A     -0.832156
      16A     -0.745958    17A     -0.724407    18A     -0.713778
      19A     -0.680580    20A     -0.650172    21A     -0.638189
      22A     -0.623580    23A     -0.604076    24A     -0.574781
      25A     -0.524862    26A     -0.522483    27A     -0.517652
      28A     -0.512577    29A     -0.492667    30A     -0.464672
      31A     -0.419669

  @DF-RHF Final Energy:  -418.76363288856817

   => Energetics <=

    Nuclear Repulsion Energy =            372.5118678532158469
    One-Electron Energy =               -1311.0001015794380237
    Two-Electron Energy =                 519.7246008376540658
    Total Energy =                       -418.7636328885681678
  Basis Set: (AUG-CC-PVTZ AUX)
    Blend: AUG-CC-PVTZ-RI
    Molecular point group: c1

    Geometry (in Angstrom), charge = 0, multiplicity = 1:

       Center              X                  Y                   Z               Mass
    ------------   -----------------  -----------------  -----------------  -----------------
         O            1.221832341434    -1.385273328887     0.777805719287    15.994914619570
         O           -2.847250658566    -0.080425328887    -0.295934280713    15.994914619570
         O           -1.245056658566     1.222849671113     0.627924719287    15.994914619570
         C            1.611922341434     0.545350671113    -0.604808280713    12.000000000000
         C            0.794558341434    -0.601014328887    -0.061638280713    12.000000000000
         C           -0.613448658566    -0.772181328887    -0.614632280713    12.000000000000
         C            2.968126341434     0.673340671113     0.068713719287    12.000000000000
         C           -1.583221058566     0.295411271113     0.018088719287    12.000000000000
         H            1.718823341434     0.393294671113    -1.688141280713     1.007825032230
         H            1.017346341434     1.457666671113    -0.485727280713     1.007825032230
         H           -0.634572658566    -0.652820328887    -1.704871280713     1.007825032230
         H           -0.970014658566    -1.778295328887    -0.379961280713     1.007825032230
         H            3.549494341434    -0.242113328887    -0.052913280713     1.007825032230
         H            3.532305341434     1.505597671113    -0.358796280713     1.007825032230
         H            2.848622341434     0.848739671113     1.139272719287     1.007825032230
         H           -3.344638558566     0.644364971113     0.137912119287     1.007825032230

  Basis Set: AUG-CC-PVTZ
    Blend: AUG-CC-PVTZ
  Basis Set: (AUG-CC-PVTZ AUX)
    Blend: AUG-CC-PVTZ-JKFIT
	 Reference Energy          =    -418.7636328885681678 [Eh]
	 Singles Energy            =      -0.0000000000000000 [Eh]
	 Same-Spin Energy          =      -0.4071831411960772 [Eh]
	 Opposite-Spin Energy      =      -1.2844821200732182 [Eh]
	 Correlation Energy        =      -1.6916652612692953 [Eh]
	 Total Energy              =    -420.4552981498374606 [Eh]

	 ================> DF-SCS-MP2 Energies <==================
	-----------------------------------------------------------
	 SCS Same-Spin Scale       =       0.3333333333333333 [-]
	 SCS Opposite-Spin Scale   =       1.2000000000000000 [-]
	 SCS Same-Spin Energy      =      -0.1357277137320257 [Eh]
	 SCS Opposite-Spin Energy  =      -1.5413785440878618 [Eh]
	 SCS Correlation Energy    =      -1.6771062578198874 [Eh]
	 SCS Total Energy          =    -420.4407391463880685 [Eh]
	-----------------------------------------------------------

  Dipole Moment: [D]
     X:    -1.4413      Y:     1.1405      Z:    -2.3416     Total:     2.9768

*** Psi4 exiting successfully. Buy a developer a beer!
