                               Psi4 1.3.2 release

  ==> Input File <==

--------------------------------------------------------------------------
#psi4
#
memory 32 gb

molecule  {
0 1
  O        1.2197630    -1.3791890     0.7815710
  O       -2.8493200    -0.0743410    -0.2921690
  O       -1.2471260     1.2289340     0.6316900
  C        1.6098530     0.5514350    -0.6010430
  C        0.7733687    -0.6036018    -0.0090587
  C       -0.6155180    -0.7660970    -0.6108670
  C        2.9660570     0.6794250     0.0724790
  C       -1.5616300     0.2444870    -0.0131750
  H        1.7167540     0.3993790    -1.6843760
  H        1.0152770     1.4637510    -0.4819620
  H       -0.6743958    -0.6530766    -1.7003963
  H       -0.9720840    -1.7722110    -0.3761960
  H        3.5474250    -0.2360290    -0.0491480
  H        3.5302360     1.5116820    -0.3550310
  H        2.8465530     0.8548240     1.1430380
  H       -3.3901630     0.6286630     0.1252190
units angstrom
no_reorient  #important for SAPT in psi4, default
symmetry c1  #important for SAPT in psi4, default
}

set PROPERTIES_ORIGIN ["COM"]
properties('MP2/aug-cc-pvtz', properties = ['dipole'])
--------------------------------------------------------------------------

    Molecular point group: c1
  Charge       = 0
  Multiplicity = 1
  Basis Set: AUG-CC-PVTZ
    Blend: AUG-CC-PVTZ
  Basis Set: (AUG-CC-PVTZ AUX)
    Blend: AUG-CC-PVTZ-JKFIT

    Orbital Energies [Eh]
    ---------------------

    Doubly Occupied:

       1A    -20.632308     2A    -20.570109     3A    -20.559780
       4A    -11.412520     5A    -11.342062     6A    -11.270019
       7A    -11.238982     8A    -11.215279     9A     -1.479182
      10A     -1.410954    11A     -1.376162    12A     -1.081815
      13A     -1.038100    14A     -0.895658    15A     -0.837626
      16A     -0.744293    17A     -0.719908    18A     -0.707283
      19A     -0.682827    20A     -0.648632    21A     -0.634270
      22A     -0.628387    23A     -0.597782    24A     -0.577704
      25A     -0.526445    26A     -0.525555    27A     -0.515330
      28A     -0.503470    29A     -0.491591    30A     -0.469970
      31A     -0.418195

  @DF-RHF Final Energy:  -418.76794539503408

   => Energetics <=

    Nuclear Repulsion Energy =            372.5091553108716198
    One-Electron Energy =               -1311.0498055569228200
    Two-Electron Energy =                 519.7727048510171244
    Total Energy =                       -418.7679453950340758
  Basis Set: (AUG-CC-PVTZ AUX)
    Blend: AUG-CC-PVTZ-RI
    Molecular point group: c1

    Geometry (in Angstrom), charge = 0, multiplicity = 1:

       Center              X                  Y                   Z               Mass
    ------------   -----------------  -----------------  -----------------  -----------------
         O            1.222068134528    -1.378237305787     0.776517006761    15.994914619570
         O           -2.847014865472    -0.073389305787    -0.297222993239    15.994914619570
         O           -1.244820865472     1.229885694213     0.626636006761    15.994914619570
         C            1.612158134528     0.552386694213    -0.606096993239    12.000000000000
         C            0.775673834528    -0.602650105787    -0.014112693239    12.000000000000
         C           -0.613212865472    -0.765145305787    -0.615920993239    12.000000000000
         C            2.968362134528     0.680376694213     0.067425006761    12.000000000000
         C           -1.559324865472     0.245438694213    -0.018228993239    12.000000000000
         H            1.719059134528     0.400330694213    -1.689429993239     1.007825032230
         H            1.017582134528     1.464702694213    -0.487015993239     1.007825032230
         H           -0.672090665472    -0.652124905787    -1.705450293239     1.007825032230
         H           -0.969778865472    -1.771259305787    -0.381249993239     1.007825032230
         H            3.549730134528    -0.235077305787    -0.054201993239     1.007825032230
         H            3.532541134528     1.512633694213    -0.360084993239     1.007825032230
         H            2.848858134528     0.855775694213     1.137984006761     1.007825032230
         H           -3.387857865472     0.629614694213     0.120165006761     1.007825032230

  Basis Set: AUG-CC-PVTZ
    Blend: AUG-CC-PVTZ
  Basis Set: (AUG-CC-PVTZ AUX)
    Blend: AUG-CC-PVTZ-JKFIT
	 Reference Energy          =    -418.7679453950340758 [Eh]
	 Singles Energy            =      -0.0000000000000000 [Eh]
	 Same-Spin Energy          =      -0.4073980208830872 [Eh]
	 Opposite-Spin Energy      =      -1.2848377091808432 [Eh]
	 Correlation Energy        =      -1.6922357300639304 [Eh]
	 Total Energy              =    -420.4601811250980177 [Eh]

	 ================> DF-SCS-MP2 Energies <==================
	-----------------------------------------------------------
	 SCS Same-Spin Scale       =       0.3333333333333333 [-]
	 SCS Opposite-Spin Scale   =       1.2000000000000000 [-]
	 SCS Same-Spin Energy      =      -0.1357993402943624 [Eh]
	 SCS Opposite-Spin Energy  =      -1.5418052510170117 [Eh]
	 SCS Correlation Energy    =      -1.6776045913113742 [Eh]
	 SCS Total Energy          =    -420.4455499863454406 [Eh]
	-----------------------------------------------------------

  Dipole Moment: [D]
     X:    -1.4065      Y:     0.6395      Z:    -2.4523     Total:     2.8984

*** Psi4 exiting successfully. Buy a developer a beer!
