                               Psi4 1.3.2 release

  ==> Input File <==

--------------------------------------------------------------------------
#psi4
#
memory 32 gb

molecule  {
0 1
  O        1.2197630    -1.3791890     0.7815710
  O       -2.8339244    -0.1123383    -0.3157922
  O       -1.2471260     1.2289340     0.6316900
  C        1.6098530     0.5514350    -0.6010430
  C        0.7924890    -0.5949300    -0.0578730
  C       -0.6569924    -0.7922014    -0.6300637
  C        2.9660570     0.6794250     0.0724790
  C       -1.5616300     0.2444870    -0.0131750
  H        1.7167540     0.3993790    -1.6843760
  H        1.0152770     1.4637510    -0.4819620
  H       -0.6366420    -0.6467360    -1.7011060
  H       -0.9720840    -1.7722110    -0.3761960
  H        3.5474250    -0.2360290    -0.0491480
  H        3.5302360     1.5116820    -0.3550310
  H        2.8465530     0.8548240     1.1430380
  H       -3.3901630     0.6286630     0.1252190
units angstrom
no_reorient  #important for SAPT in psi4, default
symmetry c1  #important for SAPT in psi4, default
}

set PROPERTIES_ORIGIN ["COM"]
properties('MP2/aug-cc-pvtz', properties = ['dipole'])
--------------------------------------------------------------------------

    Molecular point group: c1
  Charge       = 0
  Multiplicity = 1
  Basis Set: AUG-CC-PVTZ
    Blend: AUG-CC-PVTZ
  Basis Set: (AUG-CC-PVTZ AUX)
    Blend: AUG-CC-PVTZ-JKFIT

    Orbital Energies [Eh]
    ---------------------

    Doubly Occupied:

       1A    -20.637170     2A    -20.573969     3A    -20.555430
       4A    -11.413196     5A    -11.344577     6A    -11.267099
       7A    -11.241449     8A    -11.217139     9A     -1.475446
      10A     -1.386783    11A     -1.376106    12A     -1.079783
      13A     -1.041253    14A     -0.897907    15A     -0.830122
      16A     -0.741137    17A     -0.715856    18A     -0.706175
      19A     -0.682433    20A     -0.644897    21A     -0.632164
      22A     -0.621462    23A     -0.598587    24A     -0.581827
      25A     -0.527886    26A     -0.518027    27A     -0.515083
      28A     -0.504422    29A     -0.491318    30A     -0.470504
      31A     -0.418027

  @DF-RHF Final Energy:  -418.75893546954018

   => Energetics <=

    Nuclear Repulsion Energy =            371.5762672227477879
    One-Electron Energy =               -1309.2559409783759747
    Two-Electron Energy =                 518.9207382860879534
    Total Energy =                       -418.7589354695402335
  Basis Set: (AUG-CC-PVTZ AUX)
    Blend: AUG-CC-PVTZ-RI
    Molecular point group: c1

    Geometry (in Angstrom), charge = 0, multiplicity = 1:

       Center              X                  Y                   Z               Mass
    ------------   -----------------  -----------------  -----------------  -----------------
         O            1.221929817427    -1.371252531081     0.786811928455    15.994914619570
         O           -2.831757582573    -0.104401831081    -0.310551271545    15.994914619570
         O           -1.244959182573     1.236870468919     0.636930928455    15.994914619570
         C            1.612019817427     0.559371468919    -0.595802071545    12.000000000000
         C            0.794655817427    -0.586993531081    -0.052632071545    12.000000000000
         C           -0.654825582573    -0.784264931081    -0.624822771545    12.000000000000
         C            2.968223817427     0.687361468919     0.077719928455    12.000000000000
         C           -1.559463182573     0.252423468919    -0.007934071545    12.000000000000
         H            1.718920817427     0.407315468919    -1.679135071545     1.007825032230
         H            1.017443817427     1.471687468919    -0.476721071545     1.007825032230
         H           -0.634475182573    -0.638799531081    -1.695865071545     1.007825032230
         H           -0.969917182573    -1.764274531081    -0.370955071545     1.007825032230
         H            3.549591817427    -0.228092531081    -0.043907071545     1.007825032230
         H            3.532402817427     1.519618468919    -0.349790071545     1.007825032230
         H            2.848719817427     0.862760468919     1.148278928455     1.007825032230
         H           -3.387996182573     0.636599468919     0.130459928455     1.007825032230

  Basis Set: AUG-CC-PVTZ
    Blend: AUG-CC-PVTZ
  Basis Set: (AUG-CC-PVTZ AUX)
    Blend: AUG-CC-PVTZ-JKFIT
	 Reference Energy          =    -418.7589354695401767 [Eh]
	 Singles Energy            =      -0.0000000000000000 [Eh]
	 Same-Spin Energy          =      -0.4090811679469430 [Eh]
	 Opposite-Spin Energy      =      -1.2887071159763974 [Eh]
	 Correlation Energy        =      -1.6977882839233405 [Eh]
	 Total Energy              =    -420.4567237534635069 [Eh]

	 ================> DF-SCS-MP2 Energies <==================
	-----------------------------------------------------------
	 SCS Same-Spin Scale       =       0.3333333333333333 [-]
	 SCS Opposite-Spin Scale   =       1.2000000000000000 [-]
	 SCS Same-Spin Energy      =      -0.1363603893156477 [Eh]
	 SCS Opposite-Spin Energy  =      -1.5464485391716769 [Eh]
	 SCS Correlation Energy    =      -1.6828089284873247 [Eh]
	 SCS Total Energy          =    -420.4417443980274811 [Eh]
	-----------------------------------------------------------

  Dipole Moment: [D]
     X:    -1.3587      Y:     0.8540      Z:    -2.5053     Total:     2.9752

*** Psi4 exiting successfully. Buy a developer a beer!
