                               Psi4 1.3.2 release

  ==> Input File <==

--------------------------------------------------------------------------
#psi4
#
memory 32 gb

molecule  {
0 1
  O        1.2197630    -1.3791890     0.7815710
  O       -2.8493200    -0.0743410    -0.2921690
  O       -1.2471260     1.2289340     0.6316900
  C        1.6098530     0.5514350    -0.6010430
  C        0.8520793    -0.6113868    -0.0086794
  C       -0.6155180    -0.7660970    -0.6108670
  C        2.9473286     0.6165210     0.1174454
  C       -1.5616300     0.2444870    -0.0131750
  H        1.7167540     0.3993790    -1.6843760
  H        1.0152770     1.4637510    -0.4819620
  H       -0.6366420    -0.6467360    -1.7011060
  H       -0.9720840    -1.7722110    -0.3761960
  H        3.5474250    -0.2360290    -0.0491480
  H        3.5302360     1.5116820    -0.3550310
  H        2.8465530     0.8548240     1.1430380
  H       -3.3901630     0.6286630     0.1252190
units angstrom
no_reorient  #important for SAPT in psi4, default
symmetry c1  #important for SAPT in psi4, default
}

set PROPERTIES_ORIGIN ["COM"]
properties('MP2/aug-cc-pvtz', properties = ['dipole'])
--------------------------------------------------------------------------

    Molecular point group: c1
  Charge       = 0
  Multiplicity = 1
  Basis Set: AUG-CC-PVTZ
    Blend: AUG-CC-PVTZ
  Basis Set: (AUG-CC-PVTZ AUX)
    Blend: AUG-CC-PVTZ-JKFIT

    Orbital Energies [Eh]
    ---------------------

    Doubly Occupied:

       1A    -20.628568     2A    -20.565815     3A    -20.562404
       4A    -11.407662     5A    -11.339434     6A    -11.263156
       7A    -11.240798     8A    -11.218570     9A     -1.475089
      10A     -1.435544    11A     -1.372078    12A     -1.076097
      13A     -1.037074    14A     -0.896834    15A     -0.831644
      16A     -0.743469    17A     -0.717290    18A     -0.702274
      19A     -0.681157    20A     -0.649627    21A     -0.641223
      22A     -0.634135    23A     -0.596737    24A     -0.574538
      25A     -0.543627    26A     -0.525521    27A     -0.512456
      28A     -0.505308    29A     -0.493345    30A     -0.467860
      31A     -0.408082

  @DF-RHF Final Energy:  -418.75842345490884

   => Energetics <=

    Nuclear Repulsion Energy =            372.9373774826867134
    One-Electron Energy =               -1311.8967674329505826
    Two-Electron Energy =                 520.2009664953550327
    Total Energy =                       -418.7584234549087796
  Basis Set: (AUG-CC-PVTZ AUX)
    Blend: AUG-CC-PVTZ-RI
    Molecular point group: c1

    Geometry (in Angstrom), charge = 0, multiplicity = 1:

       Center              X                  Y                   Z               Mass
    ------------   -----------------  -----------------  -----------------  -----------------
         O            1.215537734108    -1.370982699566     0.771834149513    15.994914619570
         O           -2.853545265892    -0.066134699566    -0.301905850487    15.994914619570
         O           -1.251351265892     1.237140300434     0.621953149513    15.994914619570
         C            1.605627734108     0.559641300434    -0.610779850487    12.000000000000
         C            0.847854034108    -0.603180499566    -0.018416250487    12.000000000000
         C           -0.619743265892    -0.757890699566    -0.620603850487    12.000000000000
         C            2.943103334108     0.624727300434     0.107708549513    12.000000000000
         C           -1.565855265892     0.252693300434    -0.022911850487    12.000000000000
         H            1.712528734108     0.407585300434    -1.694112850487     1.007825032230
         H            1.011051734108     1.471957300434    -0.491698850487     1.007825032230
         H           -0.640867265892    -0.638529699566    -1.710842850487     1.007825032230
         H           -0.976309265892    -1.764004699566    -0.385932850487     1.007825032230
         H            3.543199734108    -0.227822699566    -0.058884850487     1.007825032230
         H            3.526010734108     1.519888300434    -0.364767850487     1.007825032230
         H            2.842327734108     0.863030300434     1.133301149513     1.007825032230
         H           -3.394388265892     0.636869300434     0.115482149513     1.007825032230

  Basis Set: AUG-CC-PVTZ
    Blend: AUG-CC-PVTZ
  Basis Set: (AUG-CC-PVTZ AUX)
    Blend: AUG-CC-PVTZ-JKFIT
	 Reference Energy          =    -418.7584234549088364 [Eh]
	 Singles Energy            =      -0.0000000000000000 [Eh]
	 Same-Spin Energy          =      -0.4067459936428959 [Eh]
	 Opposite-Spin Energy      =      -1.2833557546008580 [Eh]
	 Correlation Energy        =      -1.6901017482437539 [Eh]
	 Total Energy              =    -420.4485252031525988 [Eh]

	 ================> DF-SCS-MP2 Energies <==================
	-----------------------------------------------------------
	 SCS Same-Spin Scale       =       0.3333333333333333 [-]
	 SCS Opposite-Spin Scale   =       1.2000000000000000 [-]
	 SCS Same-Spin Energy      =      -0.1355819978809653 [Eh]
	 SCS Opposite-Spin Energy  =      -1.5400269055210296 [Eh]
	 SCS Correlation Energy    =      -1.6756089034019950 [Eh]
	 SCS Total Energy          =    -420.4340323583108443 [Eh]
	-----------------------------------------------------------

  Dipole Moment: [D]
     X:    -0.9877      Y:     0.6247      Z:    -2.3478     Total:     2.6226

*** Psi4 exiting successfully. Buy a developer a beer!
