                               Psi4 1.3.2 release

  ==> Input File <==

--------------------------------------------------------------------------
#psi4
#
memory 32 gb

molecule  {
0 1
  O        1.2197630    -1.3791890     0.7815710
  O       -2.8493200    -0.0743410    -0.2921690
  O       -1.2471260     1.2289340     0.6316900
  C        1.6098530     0.5514350    -0.6010430
  C        0.7924890    -0.5949300    -0.0578730
  C       -0.6155180    -0.7660970    -0.6108670
  C        2.9660570     0.6794250     0.0724790
  C       -1.7516117     0.1974481    -0.0543369
  H        1.7167540     0.3993790    -1.6843760
  H        1.0152770     1.4637510    -0.4819620
  H       -0.6366420    -0.6467360    -1.7011060
  H       -0.9720840    -1.7722110    -0.3761960
  H        3.5474250    -0.2360290    -0.0491480
  H        3.5302360     1.5116820    -0.3550310
  H        2.8465530     0.8548240     1.1430380
  H       -3.3901630     0.6286630     0.1252190
units angstrom
no_reorient  #important for SAPT in psi4, default
symmetry c1  #important for SAPT in psi4, default
}

set PROPERTIES_ORIGIN ["COM"]
properties('MP2/aug-cc-pvtz', properties = ['dipole'])
--------------------------------------------------------------------------

    Molecular point group: c1
  Charge       = 0
  Multiplicity = 1
  Basis Set: AUG-CC-PVTZ
    Blend: AUG-CC-PVTZ
  Basis Set: (AUG-CC-PVTZ AUX)
    Blend: AUG-CC-PVTZ-JKFIT

    Orbital Energies [Eh]
    ---------------------

    Doubly Occupied:

       1A    -20.690843     2A    -20.549040     3A    -20.535295
       4A    -11.416856     5A    -11.337901     6A    -11.268032
       7A    -11.232099     8A    -11.210239     9A     -1.604801
      10A     -1.380825    11A     -1.306419    12A     -1.068734
      13A     -1.031740    14A     -0.937064    15A     -0.872636
      16A     -0.782911    17A     -0.736530    18A     -0.726477
      19A     -0.691451    20A     -0.655501    21A     -0.628622
      22A     -0.621878    23A     -0.580441    24A     -0.550184
      25A     -0.519526    26A     -0.508807    27A     -0.501503
      28A     -0.484273    29A     -0.454265    30A     -0.436983
      31A     -0.418411

  @DF-RHF Final Energy:  -418.70499415692092

   => Energetics <=

    Nuclear Repulsion Energy =            371.6526155317852727
    One-Electron Energy =               -1309.2346454859966798
    Two-Electron Energy =                 518.8770357972904321
    Total Energy =                       -418.7049941569209750
  Basis Set: (AUG-CC-PVTZ AUX)
    Blend: AUG-CC-PVTZ-RI
    Molecular point group: c1

    Geometry (in Angstrom), charge = 0, multiplicity = 1:

       Center              X                  Y                   Z               Mass
    ------------   -----------------  -----------------  -----------------  -----------------
         O            1.239408363989    -1.374324980279     0.785827255623    15.994914619570
         O           -2.829674636011    -0.069476980279    -0.287912744377    15.994914619570
         O           -1.227480636011     1.233798019721     0.635946255623    15.994914619570
         C            1.629498363989     0.556299019721    -0.596786744377    12.000000000000
         C            0.812134363989    -0.590065980279    -0.053616744377    12.000000000000
         C           -0.595872636011    -0.761232980279    -0.606610744377    12.000000000000
         C            2.985702363989     0.684289019721     0.076735255623    12.000000000000
         C           -1.731966336011     0.202312119721    -0.050080644377    12.000000000000
         H            1.736399363989     0.404243019721    -1.680119744377     1.007825032230
         H            1.034922363989     1.468615019721    -0.477705744377     1.007825032230
         H           -0.616996636011    -0.641871980279    -1.696849744377     1.007825032230
         H           -0.952438636011    -1.767346980279    -0.371939744377     1.007825032230
         H            3.567070363989    -0.231164980279    -0.044891744377     1.007825032230
         H            3.549881363989     1.516546019721    -0.350774744377     1.007825032230
         H            2.866198363989     0.859688019721     1.147294255623     1.007825032230
         H           -3.370517636011     0.633527019721     0.129475255623     1.007825032230

  Basis Set: AUG-CC-PVTZ
    Blend: AUG-CC-PVTZ
  Basis Set: (AUG-CC-PVTZ AUX)
    Blend: AUG-CC-PVTZ-JKFIT
	 Reference Energy          =    -418.7049941569209182 [Eh]
	 Singles Energy            =      -0.0000000000000000 [Eh]
	 Same-Spin Energy          =      -0.4092732682936100 [Eh]
	 Opposite-Spin Energy      =      -1.2874706679995427 [Eh]
	 Correlation Energy        =      -1.6967439362931527 [Eh]
	 Total Energy              =    -420.4017380932140782 [Eh]

	 ================> DF-SCS-MP2 Energies <==================
	-----------------------------------------------------------
	 SCS Same-Spin Scale       =       0.3333333333333333 [-]
	 SCS Opposite-Spin Scale   =       1.2000000000000000 [-]
	 SCS Same-Spin Energy      =      -0.1364244227645366 [Eh]
	 SCS Opposite-Spin Energy  =      -1.5449648015994513 [Eh]
	 SCS Correlation Energy    =      -1.6813892243639879 [Eh]
	 SCS Total Energy          =    -420.3863833812849293 [Eh]
	-----------------------------------------------------------

  Dipole Moment: [D]
     X:    -3.0257      Y:     0.2816      Z:    -2.9550     Total:     4.2386

*** Psi4 exiting successfully. Buy a developer a beer!
