                               Psi4 1.3.2 release

  ==> Input File <==

--------------------------------------------------------------------------
#psi4
#
memory 32 gb

molecule  {
0 1
  O        1.2011611    -1.3897320     0.7809169
  O       -2.8493200    -0.0743410    -0.2921690
  O       -1.2471260     1.2289340     0.6316900
  C        1.6098530     0.5514350    -0.6010430
  C        0.7924890    -0.5949300    -0.0578730
  C       -0.6187732    -0.7874127    -0.5953427
  C        2.9660570     0.6794250     0.0724790
  C       -1.5616300     0.2444870    -0.0131750
  H        1.7167540     0.3993790    -1.6843760
  H        1.0152770     1.4637510    -0.4819620
  H       -0.6366420    -0.6467360    -1.7011060
  H       -0.9720840    -1.7722110    -0.3761960
  H        3.5474250    -0.2360290    -0.0491480
  H        3.5302360     1.5116820    -0.3550310
  H        2.8465530     0.8548240     1.1430380
  H       -3.3901630     0.6286630     0.1252190
units angstrom
no_reorient  #important for SAPT in psi4, default
symmetry c1  #important for SAPT in psi4, default
}

set PROPERTIES_ORIGIN ["COM"]
properties('MP2/aug-cc-pvtz', properties = ['dipole'])
--------------------------------------------------------------------------

    Molecular point group: c1
  Charge       = 0
  Multiplicity = 1
  Basis Set: AUG-CC-PVTZ
    Blend: AUG-CC-PVTZ
  Basis Set: (AUG-CC-PVTZ AUX)
    Blend: AUG-CC-PVTZ-JKFIT

    Orbital Energies [Eh]
    ---------------------

    Doubly Occupied:

       1A    -20.632288     2A    -20.570161     3A    -20.555905
       4A    -11.413074     5A    -11.343679     6A    -11.270178
       7A    -11.242828     8A    -11.218138     9A     -1.478942
      10A     -1.388881    11A     -1.375569    12A     -1.083693
      13A     -1.042449    14A     -0.901586    15A     -0.839963
      16A     -0.742600    17A     -0.719124    18A     -0.706891
      19A     -0.679077    20A     -0.649775    21A     -0.632618
      22A     -0.626224    23A     -0.598126    24A     -0.576637
      25A     -0.527908    26A     -0.519006    27A     -0.515613
      28A     -0.502872    29A     -0.490806    30A     -0.468269
      31A     -0.424283

  @DF-RHF Final Energy:  -418.76724132111394

   => Energetics <=

    Nuclear Repulsion Energy =            372.1500714791669679
    One-Electron Energy =               -1310.3603014247614738
    Two-Electron Energy =                 519.4429886244805630
    Total Energy =                       -418.7672413211139428
  Basis Set: (AUG-CC-PVTZ AUX)
    Blend: AUG-CC-PVTZ-RI
    Molecular point group: c1

    Geometry (in Angstrom), charge = 0, multiplicity = 1:

       Center              X                  Y                   Z               Mass
    ------------   -----------------  -----------------  -----------------  -----------------
         O            1.204061727497    -1.386074763736     0.779401613573    15.994914619570
         O           -2.846419372503    -0.070683763736    -0.293684286427    15.994914619570
         O           -1.244225372503     1.232591236264     0.630174713573    15.994914619570
         C            1.612753627497     0.555092236264    -0.602558286427    12.000000000000
         C            0.795389627497    -0.591272763736    -0.059388286427    12.000000000000
         C           -0.615872572503    -0.783755463736    -0.596857986427    12.000000000000
         C            2.968957627497     0.683082236264     0.070963713573    12.000000000000
         C           -1.558729372503     0.248144236264    -0.014690286427    12.000000000000
         H            1.719654627497     0.403036236264    -1.685891286427     1.007825032230
         H            1.018177627497     1.467408236264    -0.483477286427     1.007825032230
         H           -0.633741372503    -0.643078763736    -1.702621286427     1.007825032230
         H           -0.969183372503    -1.768553763736    -0.377711286427     1.007825032230
         H            3.550325627497    -0.232371763736    -0.050663286427     1.007825032230
         H            3.533136627497     1.515339236264    -0.356546286427     1.007825032230
         H            2.849453627497     0.858481236264     1.141522713573     1.007825032230
         H           -3.387262372503     0.632320236264     0.123703713573     1.007825032230

  Basis Set: AUG-CC-PVTZ
    Blend: AUG-CC-PVTZ
  Basis Set: (AUG-CC-PVTZ AUX)
    Blend: AUG-CC-PVTZ-JKFIT
	 Reference Energy          =    -418.7672413211139428 [Eh]
	 Singles Energy            =      -0.0000000000000000 [Eh]
	 Same-Spin Energy          =      -0.4081282371288998 [Eh]
	 Opposite-Spin Energy      =      -1.2864463256292025 [Eh]
	 Correlation Energy        =      -1.6945745627581024 [Eh]
	 Total Energy              =    -420.4618158838720205 [Eh]

	 ================> DF-SCS-MP2 Energies <==================
	-----------------------------------------------------------
	 SCS Same-Spin Scale       =       0.3333333333333333 [-]
	 SCS Opposite-Spin Scale   =       1.2000000000000000 [-]
	 SCS Same-Spin Energy      =      -0.1360427457096333 [Eh]
	 SCS Opposite-Spin Energy  =      -1.5437355907550430 [Eh]
	 SCS Correlation Energy    =      -1.6797783364646763 [Eh]
	 SCS Total Energy          =    -420.4470196575786076 [Eh]
	-----------------------------------------------------------

  Dipole Moment: [D]
     X:    -1.2918      Y:     0.8133      Z:    -2.5497     Total:     2.9718

*** Psi4 exiting successfully. Buy a developer a beer!
