                               Psi4 1.3.2 release

  ==> Input File <==

--------------------------------------------------------------------------
#psi4
#
memory 32 gb

molecule  {
0 1
  O        1.2197630    -1.3791890     0.7815710
  O       -2.8493200    -0.0743410    -0.2921690
  O       -1.2471260     1.2289340     0.6316900
  C        1.6098530     0.5514350    -0.6010430
  C        0.7893125    -0.6145650    -0.1066468
  C       -0.6155180    -0.7660970    -0.6108670
  C        2.9660570     0.6794250     0.0724790
  C       -1.5616300     0.2444870    -0.0131750
  H        1.6960748     0.3672172    -1.6812230
  H        1.0152770     1.4637510    -0.4819620
  H       -0.6366420    -0.6467360    -1.7011060
  H       -0.9720840    -1.7722110    -0.3761960
  H        3.5474250    -0.2360290    -0.0491480
  H        3.5302360     1.5116820    -0.3550310
  H        2.8465530     0.8548240     1.1430380
  H       -3.3901630     0.6286630     0.1252190
units angstrom
no_reorient  #important for SAPT in psi4, default
symmetry c1  #important for SAPT in psi4, default
}

set PROPERTIES_ORIGIN ["COM"]
properties('MP2/aug-cc-pvtz', properties = ['dipole'])
--------------------------------------------------------------------------

    Molecular point group: c1
  Charge       = 0
  Multiplicity = 1
  Basis Set: AUG-CC-PVTZ
    Blend: AUG-CC-PVTZ
  Basis Set: (AUG-CC-PVTZ AUX)
    Blend: AUG-CC-PVTZ-JKFIT

    Orbital Energies [Eh]
    ---------------------

    Doubly Occupied:

       1A    -20.634354     2A    -20.571339     3A    -20.555028
       4A    -11.415529     5A    -11.345297     6A    -11.272949
       7A    -11.242528     8A    -11.217704     9A     -1.480753
      10A     -1.378907    11A     -1.371978    12A     -1.089021
      13A     -1.043037    14A     -0.904518    15A     -0.843109
      16A     -0.742294    17A     -0.720653    18A     -0.708301
      19A     -0.680827    20A     -0.647965    21A     -0.631810
      22A     -0.624070    23A     -0.599502    24A     -0.575670
      25A     -0.525846    26A     -0.517761    27A     -0.512518
      28A     -0.501557    29A     -0.489709    30A     -0.467362
      31A     -0.426771

  @DF-RHF Final Energy:  -418.76295701341286

   => Energetics <=

    Nuclear Repulsion Energy =            372.0067103687029544
    One-Electron Energy =               -1310.0619992327451655
    Two-Electron Energy =                 519.2923318506293526
    Total Energy =                       -418.7629570134129153
  Basis Set: (AUG-CC-PVTZ AUX)
    Blend: AUG-CC-PVTZ-RI
    Molecular point group: c1

    Geometry (in Angstrom), charge = 0, multiplicity = 1:

       Center              X                  Y                   Z               Mass
    ------------   -----------------  -----------------  -----------------  -----------------
         O            1.220271162689    -1.376879397488     0.786586989750    15.994914619570
         O           -2.848811837311    -0.072031397488    -0.287153010250    15.994914619570
         O           -1.246617837311     1.231243602512     0.636705989750    15.994914619570
         C            1.610361162689     0.553744602512    -0.596027010250    12.000000000000
         C            0.789820662689    -0.612255397488    -0.101630810250    12.000000000000
         C           -0.615009837311    -0.763787397488    -0.605851010250    12.000000000000
         C            2.966565162689     0.681734602512     0.077494989750    12.000000000000
         C           -1.561121837311     0.246796602512    -0.008159010250    12.000000000000
         H            1.696582962689     0.369526802512    -1.676207010250     1.007825032230
         H            1.015785162689     1.466060602512    -0.476946010250     1.007825032230
         H           -0.636133837311    -0.644426397488    -1.696090010250     1.007825032230
         H           -0.971575837311    -1.769901397488    -0.371180010250     1.007825032230
         H            3.547933162689    -0.233719397488    -0.044132010250     1.007825032230
         H            3.530744162689     1.513991602512    -0.350015010250     1.007825032230
         H            2.847061162689     0.857133602512     1.148053989750     1.007825032230
         H           -3.389654837311     0.630972602512     0.130234989750     1.007825032230

  Basis Set: AUG-CC-PVTZ
    Blend: AUG-CC-PVTZ
  Basis Set: (AUG-CC-PVTZ AUX)
    Blend: AUG-CC-PVTZ-JKFIT
	 Reference Energy          =    -418.7629570134128585 [Eh]
	 Singles Energy            =      -0.0000000000000000 [Eh]
	 Same-Spin Energy          =      -0.4090213675579356 [Eh]
	 Opposite-Spin Energy      =      -1.2882989594304377 [Eh]
	 Correlation Energy        =      -1.6973203269883732 [Eh]
	 Total Energy              =    -420.4602773404012055 [Eh]

	 ================> DF-SCS-MP2 Energies <==================
	-----------------------------------------------------------
	 SCS Same-Spin Scale       =       0.3333333333333333 [-]
	 SCS Opposite-Spin Scale   =       1.2000000000000000 [-]
	 SCS Same-Spin Energy      =      -0.1363404558526452 [Eh]
	 SCS Opposite-Spin Energy  =      -1.5459587513165252 [Eh]
	 SCS Correlation Energy    =      -1.6822992071691703 [Eh]
	 SCS Total Energy          =    -420.4452562205820527 [Eh]
	-----------------------------------------------------------

  Dipole Moment: [D]
     X:    -1.4316      Y:     0.8105      Z:    -2.6088     Total:     3.0841

*** Psi4 exiting successfully. Buy a developer a beer!
