                               Psi4 1.3.2 release

  ==> Input File <==

--------------------------------------------------------------------------
#psi4
#
memory 32 gb

molecule  {
0 1
  O        1.2197630    -1.3791890     0.7815710
  O       -2.8493200    -0.0743410    -0.2921690
  O       -1.2471260     1.2289340     0.6316900
  C        1.6098530     0.5514350    -0.6010430
  C        0.7924890    -0.5949300    -0.0578730
  C       -0.6155180    -0.7660970    -0.6108670
  C        2.9660570     0.6794250     0.0724790
  C       -1.5874481     0.1636724    -0.0661129
  H        1.7167540     0.3993790    -1.6843760
  H        1.0152770     1.4637510    -0.4819620
  H       -0.6366420    -0.6467360    -1.7011060
  H       -0.9720840    -1.7722110    -0.3761960
  H        3.5474250    -0.2360290    -0.0491480
  H        3.5302360     1.5116820    -0.3550310
  H        2.8465530     0.8548240     1.1430380
  H       -3.3901630     0.6286630     0.1252190
units angstrom
no_reorient  #important for SAPT in psi4, default
symmetry c1  #important for SAPT in psi4, default
}

set PROPERTIES_ORIGIN ["COM"]
properties('MP2/aug-cc-pvtz', properties = ['dipole'])
--------------------------------------------------------------------------

    Molecular point group: c1
  Charge       = 0
  Multiplicity = 1
  Basis Set: AUG-CC-PVTZ
    Blend: AUG-CC-PVTZ
  Basis Set: (AUG-CC-PVTZ AUX)
    Blend: AUG-CC-PVTZ-JKFIT

    Orbital Energies [Eh]
    ---------------------

    Doubly Occupied:

       1A    -20.648661     2A    -20.558768     3A    -20.550976
       4A    -11.420239     5A    -11.347846     6A    -11.274833
       7A    -11.240208     8A    -11.216217     9A     -1.494914
      10A     -1.390641    11A     -1.320377    12A     -1.096540
      13A     -1.048183    14A     -0.910992    15A     -0.856615
      16A     -0.748590    17A     -0.720497    18A     -0.709071
      19A     -0.688186    20A     -0.654789    21A     -0.631411
      22A     -0.627692    23A     -0.584248    24A     -0.573104
      25A     -0.527013    26A     -0.517099    27A     -0.513840
      28A     -0.492567    29A     -0.464426    30A     -0.458580
      31A     -0.427966

  @DF-RHF Final Energy:  -418.74599044779620

   => Energetics <=

    Nuclear Repulsion Energy =            371.9137938748664283
    One-Electron Energy =               -1309.8893860069513266
    Two-Electron Energy =                 519.2296016842886957
    Total Energy =                       -418.7459904477962027
  Basis Set: (AUG-CC-PVTZ AUX)
    Blend: AUG-CC-PVTZ-RI
    Molecular point group: c1

    Geometry (in Angstrom), charge = 0, multiplicity = 1:

       Center              X                  Y                   Z               Mass
    ------------   -----------------  -----------------  -----------------  -----------------
         O            1.222432850977    -1.370832367819     0.787044965524    15.994914619570
         O           -2.846650149023    -0.065984367819    -0.286695034476    15.994914619570
         O           -1.244456149023     1.237290632181     0.637163965524    15.994914619570
         C            1.612522850977     0.559791632181    -0.595569034476    12.000000000000
         C            0.795158850977    -0.586573367819    -0.052399034476    12.000000000000
         C           -0.612848149023    -0.757740367819    -0.605393034476    12.000000000000
         C            2.968726850977     0.687781632181     0.077952965524    12.000000000000
         C           -1.584778249023     0.172029032181    -0.060638934476    12.000000000000
         H            1.719423850977     0.407735632181    -1.678902034476     1.007825032230
         H            1.017946850977     1.472107632181    -0.476488034476     1.007825032230
         H           -0.633972149023    -0.638379367819    -1.695632034476     1.007825032230
         H           -0.969414149023    -1.763854367819    -0.370722034476     1.007825032230
         H            3.550094850977    -0.227672367819    -0.043674034476     1.007825032230
         H            3.532905850977     1.520038632181    -0.349557034476     1.007825032230
         H            2.849222850977     0.863180632181     1.148511965524     1.007825032230
         H           -3.387493149023     0.637019632181     0.130692965524     1.007825032230

  Basis Set: AUG-CC-PVTZ
    Blend: AUG-CC-PVTZ
  Basis Set: (AUG-CC-PVTZ AUX)
    Blend: AUG-CC-PVTZ-JKFIT
	 Reference Energy          =    -418.7459904477962027 [Eh]
	 Singles Energy            =      -0.0000000000000000 [Eh]
	 Same-Spin Energy          =      -0.4103499776144690 [Eh]
	 Opposite-Spin Energy      =      -1.2902013689025913 [Eh]
	 Correlation Energy        =      -1.7005513465170603 [Eh]
	 Total Energy              =    -420.4465417943132479 [Eh]

	 ================> DF-SCS-MP2 Energies <==================
	-----------------------------------------------------------
	 SCS Same-Spin Scale       =       0.3333333333333333 [-]
	 SCS Opposite-Spin Scale   =       1.2000000000000000 [-]
	 SCS Same-Spin Energy      =      -0.1367833258714897 [Eh]
	 SCS Opposite-Spin Energy  =      -1.5482416426831096 [Eh]
	 SCS Correlation Energy    =      -1.6850249685545993 [Eh]
	 SCS Total Energy          =    -420.4310154163508173 [Eh]
	-----------------------------------------------------------

  Dipole Moment: [D]
     X:    -1.6391      Y:     0.3112      Z:    -2.8650     Total:     3.3154

*** Psi4 exiting successfully. Buy a developer a beer!
