                               Psi4 1.3.2 release

  ==> Input File <==

--------------------------------------------------------------------------
#psi4
#
memory 32 gb

molecule  {
0 1
  O        1.2197630    -1.3791890     0.7815710
  O       -2.8493200    -0.0743410    -0.2921690
  O       -1.2471260     1.2289340     0.6316900
  C        1.6098530     0.5514350    -0.6010430
  C        0.7924890    -0.5949300    -0.0578730
  C       -0.6155180    -0.7660970    -0.6108670
  C        2.9660570     0.6794250     0.0724790
  C       -1.4988847     0.1774660    -0.0528134
  H        1.7167540     0.3993790    -1.6843760
  H        1.0152770     1.4637510    -0.4819620
  H       -0.6366420    -0.6467360    -1.7011060
  H       -0.9720840    -1.7722110    -0.3761960
  H        3.5474250    -0.2360290    -0.0491480
  H        3.5302360     1.5116820    -0.3550310
  H        2.8465530     0.8548240     1.1430380
  H       -3.3901630     0.6286630     0.1252190
units angstrom
no_reorient  #important for SAPT in psi4, default
symmetry c1  #important for SAPT in psi4, default
}

set PROPERTIES_ORIGIN ["COM"]
properties('MP2/aug-cc-pvtz', properties = ['dipole'])
--------------------------------------------------------------------------

    Molecular point group: c1
  Charge       = 0
  Multiplicity = 1
  Basis Set: AUG-CC-PVTZ
    Blend: AUG-CC-PVTZ
  Basis Set: (AUG-CC-PVTZ AUX)
    Blend: AUG-CC-PVTZ-JKFIT

    Orbital Energies [Eh]
    ---------------------

    Doubly Occupied:

       1A    -20.623230     2A    -20.565388     3A    -20.562897
       4A    -11.420895     5A    -11.351574     6A    -11.276389
       7A    -11.244653     8A    -11.219513     9A     -1.451703
      10A     -1.394724    11A     -1.338284    12A     -1.111227
      13A     -1.053784    14A     -0.908272    15A     -0.837562
      16A     -0.745448    17A     -0.721566    18A     -0.697270
      19A     -0.687579    20A     -0.649291    21A     -0.629681
      22A     -0.626930    23A     -0.591315    24A     -0.574579
      25A     -0.529985    26A     -0.521531    27A     -0.518761
      28A     -0.497669    29A     -0.477224    30A     -0.467390
      31A     -0.431288

  @DF-RHF Final Energy:  -418.74518808775838

   => Energetics <=

    Nuclear Repulsion Energy =            372.3320224985714049
    One-Electron Energy =               -1310.6992136124317767
    Two-Electron Energy =                 519.6220030261019929
    Total Energy =                       -418.7451880877583790
  Basis Set: (AUG-CC-PVTZ AUX)
    Blend: AUG-CC-PVTZ-RI
    Molecular point group: c1

    Geometry (in Angstrom), charge = 0, multiplicity = 1:

       Center              X                  Y                   Z               Mass
    ------------   -----------------  -----------------  -----------------  -----------------
         O            1.213274857676    -1.372258709811     0.785669716472    15.994914619570
         O           -2.855808142324    -0.067410709811    -0.288070283528    15.994914619570
         O           -1.253614142324     1.235864290189     0.635788716472    15.994914619570
         C            1.603364857676     0.558365290189    -0.596944283528    12.000000000000
         C            0.786000857676    -0.587999709811    -0.053774283528    12.000000000000
         C           -0.622006142324    -0.759166709811    -0.606768283528    12.000000000000
         C            2.959568857676     0.686355290189     0.076577716472    12.000000000000
         C           -1.505372842324     0.184396290189    -0.048714683528    12.000000000000
         H            1.710265857676     0.406309290189    -1.680277283528     1.007825032230
         H            1.008788857676     1.470681290189    -0.477863283528     1.007825032230
         H           -0.643130142324    -0.639805709811    -1.697007283528     1.007825032230
         H           -0.978572142324    -1.765280709811    -0.372097283528     1.007825032230
         H            3.540936857676    -0.229098709811    -0.045049283528     1.007825032230
         H            3.523747857676     1.518612290189    -0.350932283528     1.007825032230
         H            2.840064857676     0.861754290189     1.147136716472     1.007825032230
         H           -3.396651142324     0.635593290189     0.129317716472     1.007825032230

  Basis Set: AUG-CC-PVTZ
    Blend: AUG-CC-PVTZ
  Basis Set: (AUG-CC-PVTZ AUX)
    Blend: AUG-CC-PVTZ-JKFIT
	 Reference Energy          =    -418.7451880877583790 [Eh]
	 Singles Energy            =      -0.0000000000000000 [Eh]
	 Same-Spin Energy          =      -0.4108318220444845 [Eh]
	 Opposite-Spin Energy      =      -1.2916280993095395 [Eh]
	 Correlation Energy        =      -1.7024599213540239 [Eh]
	 Total Energy              =    -420.4476480091124131 [Eh]

	 ================> DF-SCS-MP2 Energies <==================
	-----------------------------------------------------------
	 SCS Same-Spin Scale       =       0.3333333333333333 [-]
	 SCS Opposite-Spin Scale   =       1.2000000000000000 [-]
	 SCS Same-Spin Energy      =      -0.1369439406814948 [Eh]
	 SCS Opposite-Spin Energy  =      -1.5499537191714474 [Eh]
	 SCS Correlation Energy    =      -1.6868976598529422 [Eh]
	 SCS Total Energy          =    -420.4320857476113247 [Eh]
	-----------------------------------------------------------

  Dipole Moment: [D]
     X:    -0.8432      Y:     0.4516      Z:    -2.7380     Total:     2.9003

*** Psi4 exiting successfully. Buy a developer a beer!
