                               Psi4 1.3.2 release

  ==> Input File <==

--------------------------------------------------------------------------
#psi4
#
memory 32 gb

molecule  {
0 1
  O        1.2197630    -1.3791890     0.7815710
  O       -2.8493200    -0.0743410    -0.2921690
  O       -1.2471260     1.2289340     0.6316900
  C        1.6098530     0.5514350    -0.6010430
  C        0.7924890    -0.5949300    -0.0578730
  C       -0.6155180    -0.7660970    -0.6108670
  C        2.9660570     0.6794250     0.0724790
  C       -1.5616300     0.2444870    -0.0131750
  H        1.7167540     0.3993790    -1.6843760
  H        1.0152770     1.4637510    -0.4819620
  H       -0.6366420    -0.6467360    -1.7011060
  H       -0.9720840    -1.7722110    -0.3761960
  H        3.5474250    -0.2360290    -0.0491480
  H        3.5302360     1.5116820    -0.3550310
  H        2.8465530     0.8548240     1.1430380
  H       -3.4453356     0.7003780     0.1677977
units angstrom
no_reorient  #important for SAPT in psi4, default
symmetry c1  #important for SAPT in psi4, default
}

set PROPERTIES_ORIGIN ["COM"]
properties('MP2/aug-cc-pvtz', properties = ['dipole'])
--------------------------------------------------------------------------

    Molecular point group: c1
  Charge       = 0
  Multiplicity = 1
  Basis Set: AUG-CC-PVTZ
    Blend: AUG-CC-PVTZ
  Basis Set: (AUG-CC-PVTZ AUX)
    Blend: AUG-CC-PVTZ-JKFIT

    Orbital Energies [Eh]
    ---------------------

    Doubly Occupied:

       1A    -20.637803     2A    -20.568411     3A    -20.556222
       4A    -11.411425     5A    -11.343576     6A    -11.270751
       7A    -11.240802     8A    -11.216781     9A     -1.467649
      10A     -1.388153    11A     -1.366974    12A     -1.083461
      13A     -1.040283    14A     -0.897814    15A     -0.826469
      16A     -0.741467    17A     -0.709322    18A     -0.704773
      19A     -0.679412    20A     -0.645659    21A     -0.630142
      22A     -0.624503    23A     -0.591629    24A     -0.575432
      25A     -0.525447    26A     -0.517641    27A     -0.514569
      28A     -0.500960    29A     -0.489380    30A     -0.467433
      31A     -0.424028

  @DF-RHF Final Energy:  -418.75474296293555

   => Energetics <=

    Nuclear Repulsion Energy =            371.6921663399856470
    One-Electron Energy =               -1309.5770746102575686
    Two-Electron Energy =                 519.1301653073363696
    Total Energy =                       -418.7547429629355520
  Basis Set: (AUG-CC-PVTZ AUX)
    Blend: AUG-CC-PVTZ-RI
    Molecular point group: c1

    Geometry (in Angstrom), charge = 0, multiplicity = 1:

       Center              X                  Y                   Z               Mass
    ------------   -----------------  -----------------  -----------------  -----------------
         O            1.220242254763    -1.379811904404     0.781201086159    15.994914619570
         O           -2.848840745237    -0.074963904404    -0.292538913841    15.994914619570
         O           -1.246646745237     1.228311095596     0.631320086159    15.994914619570
         C            1.610332254763     0.550812095596    -0.601412913841    12.000000000000
         C            0.792968254763    -0.595552904404    -0.058242913841    12.000000000000
         C           -0.615038745237    -0.766719904404    -0.611236913841    12.000000000000
         C            2.966536254763     0.678802095596     0.072109086159    12.000000000000
         C           -1.561150745237     0.243864095596    -0.013544913841    12.000000000000
         H            1.717233254763     0.398756095596    -1.684745913841     1.007825032230
         H            1.015756254763     1.463128095596    -0.482331913841     1.007825032230
         H           -0.636162745237    -0.647358904404    -1.701475913841     1.007825032230
         H           -0.971604745237    -1.772833904404    -0.376565913841     1.007825032230
         H            3.547904254763    -0.236651904404    -0.049517913841     1.007825032230
         H            3.530715254763     1.511059095596    -0.355400913841     1.007825032230
         H            2.847032254763     0.854201095596     1.142668086159     1.007825032230
         H           -3.444856345237     0.699755095596     0.167427786159     1.007825032230

  Basis Set: AUG-CC-PVTZ
    Blend: AUG-CC-PVTZ
  Basis Set: (AUG-CC-PVTZ AUX)
    Blend: AUG-CC-PVTZ-JKFIT
	 Reference Energy          =    -418.7547429629355520 [Eh]
	 Singles Energy            =      -0.0000000000000000 [Eh]
	 Same-Spin Energy          =      -0.4095118479535693 [Eh]
	 Opposite-Spin Energy      =      -1.2896636129086101 [Eh]
	 Correlation Energy        =      -1.6991754608621794 [Eh]
	 Total Energy              =    -420.4539184237977452 [Eh]

	 ================> DF-SCS-MP2 Energies <==================
	-----------------------------------------------------------
	 SCS Same-Spin Scale       =       0.3333333333333333 [-]
	 SCS Opposite-Spin Scale   =       1.2000000000000000 [-]
	 SCS Same-Spin Energy      =      -0.1365039493178564 [Eh]
	 SCS Opposite-Spin Energy  =      -1.5475963354903322 [Eh]
	 SCS Correlation Energy    =      -1.6841002848081885 [Eh]
	 SCS Total Energy          =    -420.4388432477437618 [Eh]
	-----------------------------------------------------------

  Dipole Moment: [D]
     X:    -1.4424      Y:     0.8539      Z:    -2.5157     Total:     3.0230

*** Psi4 exiting successfully. Buy a developer a beer!
