                               Psi4 1.3.2 release

  ==> Input File <==

--------------------------------------------------------------------------
#psi4
#
memory 32 gb

molecule  {
0 1
  O        1.2197630    -1.3791890     0.7815710
  O       -2.8418246    -0.0934732    -0.3038967
  O       -1.2266623     1.2235976     0.6295057
  C        1.6098530     0.5514350    -0.6010430
  C        0.7924890    -0.5949300    -0.0578730
  C       -0.6155180    -0.7660970    -0.6108670
  C        2.9660570     0.6794250     0.0724790
  C       -1.5616300     0.2444870    -0.0131750
  H        1.7167540     0.3993790    -1.6843760
  H        1.0152770     1.4637510    -0.4819620
  H       -0.6366420    -0.6467360    -1.7011060
  H       -0.9720840    -1.7722110    -0.3761960
  H        3.5474250    -0.2360290    -0.0491480
  H        3.5302360     1.5116820    -0.3550310
  H        2.8465530     0.8548240     1.1430380
  H       -3.3901630     0.6286630     0.1252190
units angstrom
no_reorient  #important for SAPT in psi4, default
symmetry c1  #important for SAPT in psi4, default
}

set PROPERTIES_ORIGIN ["COM"]
properties('MP2/aug-cc-pvtz', properties = ['dipole'])
--------------------------------------------------------------------------

    Molecular point group: c1
  Charge       = 0
  Multiplicity = 1
  Basis Set: AUG-CC-PVTZ
    Blend: AUG-CC-PVTZ
  Basis Set: (AUG-CC-PVTZ AUX)
    Blend: AUG-CC-PVTZ-JKFIT

    Orbital Energies [Eh]
    ---------------------

    Doubly Occupied:

       1A    -20.637672     2A    -20.571896     3A    -20.555539
       4A    -11.413713     5A    -11.342744     6A    -11.269007
       7A    -11.240343     8A    -11.216505     9A     -1.477692
      10A     -1.388024    11A     -1.377590    12A     -1.083447
      13A     -1.040722    14A     -0.900116    15A     -0.835827
      16A     -0.742257    17A     -0.718814    18A     -0.707343
      19A     -0.680587    20A     -0.647486    21A     -0.632329
      22A     -0.625060    23A     -0.598421    24A     -0.576134
      25A     -0.525202    26A     -0.517834    27A     -0.514411
      28A     -0.504070    29A     -0.490879    30A     -0.468500
      31A     -0.423358

  @DF-RHF Final Energy:  -418.76512623329364

   => Energetics <=

    Nuclear Repulsion Energy =            372.4067197328006387
    One-Electron Energy =               -1310.8966470782509077
    Two-Electron Energy =                 519.7248011121565696
    Total Energy =                       -418.7651262332936994
  Basis Set: (AUG-CC-PVTZ AUX)
    Blend: AUG-CC-PVTZ-RI
    Molecular point group: c1

    Geometry (in Angstrom), charge = 0, multiplicity = 1:

       Center              X                  Y                   Z               Mass
    ------------   -----------------  -----------------  -----------------  -----------------
         O            1.215909473617    -1.375816557992     0.783488369284    15.994914619570
         O           -2.845678126383    -0.090100757992    -0.301979330716    15.994914619570
         O           -1.230515826383     1.226970042008     0.631423069284    15.994914619570
         C            1.605999473617     0.554807442008    -0.599125630716    12.000000000000
         C            0.788635473617    -0.591557557992    -0.055955630716    12.000000000000
         C           -0.619371526383    -0.762724557992    -0.608949630716    12.000000000000
         C            2.962203473617     0.682797442008     0.074396369284    12.000000000000
         C           -1.565483526383     0.247859442008    -0.011257630716    12.000000000000
         H            1.712900473617     0.402751442008    -1.682458630716     1.007825032230
         H            1.011423473617     1.467123442008    -0.480044630716     1.007825032230
         H           -0.640495526383    -0.643363557992    -1.699188630716     1.007825032230
         H           -0.975937526383    -1.768838557992    -0.374278630716     1.007825032230
         H            3.543571473617    -0.232656557992    -0.047230630716     1.007825032230
         H            3.526382473617     1.515054442008    -0.353113630716     1.007825032230
         H            2.842699473617     0.858196442008     1.144955369284     1.007825032230
         H           -3.394016526383     0.632035442008     0.127136369284     1.007825032230

  Basis Set: AUG-CC-PVTZ
    Blend: AUG-CC-PVTZ
  Basis Set: (AUG-CC-PVTZ AUX)
    Blend: AUG-CC-PVTZ-JKFIT
	 Reference Energy          =    -418.7651262332936426 [Eh]
	 Singles Energy            =      -0.0000000000000000 [Eh]
	 Same-Spin Energy          =      -0.4087353483453555 [Eh]
	 Opposite-Spin Energy      =      -1.2876501385673331 [Eh]
	 Correlation Energy        =      -1.6963854869126886 [Eh]
	 Total Energy              =    -420.4615117202063175 [Eh]

	 ================> DF-SCS-MP2 Energies <==================
	-----------------------------------------------------------
	 SCS Same-Spin Scale       =       0.3333333333333333 [-]
	 SCS Opposite-Spin Scale   =       1.2000000000000000 [-]
	 SCS Same-Spin Energy      =      -0.1362451161151185 [Eh]
	 SCS Opposite-Spin Energy  =      -1.5451801662807998 [Eh]
	 SCS Correlation Energy    =      -1.6814252823959184 [Eh]
	 SCS Total Energy          =    -420.4465515156895776 [Eh]
	-----------------------------------------------------------

  Dipole Moment: [D]
     X:    -1.4588      Y:     0.8348      Z:    -2.5314     Total:     3.0386

*** Psi4 exiting successfully. Buy a developer a beer!
