                               Psi4 1.4a3.dev225

  ==> Input File <==

--------------------------------------------------------------------------
#psi4
#
memory 32 gb

molecule  {
0 1
  O        1.1896460     1.3864710    -0.7896670
  O       -2.9164350     0.0620530     0.2465870
  O       -1.2994600    -1.1722570    -0.7513140
  C        1.5277270    -0.5390120     0.6173550
  C        0.7330570     0.6116870     0.0446410
  C       -0.6915030     0.7929470     0.5540020
  C        2.9119880    -0.6669770    -0.0005940
  C       -1.6135240    -0.2062264    -0.0556340
  H        1.5906630    -0.3916430     1.7048170
  H        0.9378800    -1.4511620     0.4690430
  H       -0.7449460     0.6872940     1.6445860
  H       -1.0362610     1.7983420     0.2961770
  H        3.4930330     0.2441750     0.1549910
  H        3.4532110    -1.5066350     0.4428820
  H        2.8367130    -0.8315610    -1.0772290
  H       -3.4525110    -0.6329900    -0.1896390
units angstrom
no_reorient  #important for SAPT in psi4, default
symmetry c1  #important for SAPT in psi4, default
}

set PROPERTIES_ORIGIN ["COM"]
properties('MP2/aug-cc-pvtz', properties = ['dipole'])
--------------------------------------------------------------------------

    Molecular point group: c1
  Charge       = 0
  Multiplicity = 1
  Basis Set: AUG-CC-PVTZ
    Blend: AUG-CC-PVTZ
  Basis Set: (AUG-CC-PVTZ AUX)
    Blend: AUG-CC-PVTZ-JKFIT

    Orbital Energies [Eh]
    ---------------------

    Doubly Occupied:

       1A    -20.631055     2A    -20.569659     3A    -20.557943
       4A    -11.415254     5A    -11.345845     6A    -11.273110
       7A    -11.242870     8A    -11.218162     9A     -1.473050
      10A     -1.389123    11A     -1.367990    12A     -1.088655
      13A     -1.044284    14A     -0.902727    15A     -0.839637
      16A     -0.742459    17A     -0.718414    18A     -0.705710
      19A     -0.680777    20A     -0.649102    21A     -0.631171
      22A     -0.625608    23A     -0.597802    24A     -0.576951
      25A     -0.526785    26A     -0.518162    27A     -0.516123
      28A     -0.500676    29A     -0.488643    30A     -0.470259
      31A     -0.425920

  @DF-RHF Final Energy:  -418.76537160228696

   => Energetics <=

    Nuclear Repulsion Energy =            371.8371049436668159
    One-Electron Energy =               -1309.7371036114191156
    Two-Electron Energy =                 519.1346270654653381
    Total Energy =                       -418.7653716022869048
  Basis Set: (AUG-CC-PVTZ AUX)
    Blend: AUG-CC-PVTZ-RI
    Molecular point group: c1

    Geometry (in Angstrom), charge = 0, multiplicity = 1:

       Center              X                  Y                   Z               Mass
    ------------   -----------------  -----------------  -----------------  -----------------
         O            1.248746779535     1.367277096697    -0.761110625969    15.994914619570
         O           -2.857334220465     0.042859096697     0.275143374031    15.994914619570
         O           -1.240359220465    -1.191450903303    -0.722757625969    15.994914619570
         C            1.586827779535    -0.558205903303     0.645911374031    12.000000000000
         C            0.792157779535     0.592493096697     0.073197374031    12.000000000000
         C           -0.632402220465     0.773753096697     0.582558374031    12.000000000000
         C            2.971088779535    -0.686170903303     0.027962374031    12.000000000000
         C           -1.554423220465    -0.225420303303    -0.027077625969    12.000000000000
         H            1.649763779535    -0.410836903303     1.733373374031     1.007825032230
         H            0.996980779535    -1.470355903303     0.497599374031     1.007825032230
         H           -0.685845220465     0.668100096697     1.673142374031     1.007825032230
         H           -0.977160220465     1.779148096697     0.324733374031     1.007825032230
         H            3.552133779535     0.224981096697     0.183547374031     1.007825032230
         H            3.512311779535    -1.525828903303     0.471438374031     1.007825032230
         H            2.895813779535    -0.850754903303    -1.048672625969     1.007825032230
         H           -3.393410220465    -0.652183903303    -0.161082625969     1.007825032230

  Basis Set: AUG-CC-PVTZ
    Blend: AUG-CC-PVTZ
  Basis Set: (AUG-CC-PVTZ AUX)
    Blend: AUG-CC-PVTZ-JKFIT
	 Reference Energy          =    -418.7653716022869617 [Eh]
	 Singles Energy            =      -0.0000000000000000 [Eh]
	 Same-Spin Energy          =      -0.4086291747057900 [Eh]
	 Opposite-Spin Energy      =      -1.2876210780682924 [Eh]
	 Correlation Energy        =      -1.6962502527740824 [Eh]
	 Total Energy              =    -420.4616218550610256 [Eh]

	 ================> DF-SCS-MP2 Energies <==================
	-----------------------------------------------------------
	 SCS Same-Spin Scale       =       0.3333333333333333 [-]
	 SCS Opposite-Spin Scale   =       1.2000000000000000 [-]
	 SCS Same-Spin Energy      =      -0.1362097249019300 [Eh]
	 SCS Opposite-Spin Energy  =      -1.5451452936819507 [Eh]
	 SCS Correlation Energy    =      -1.6813550185838808 [Eh]
	 SCS Total Energy          =    -420.4467266208708338 [Eh]
	-----------------------------------------------------------

  Dipole Moment: [D]
     X:    -1.3279      Y:    -0.7266      Z:     2.6223     Total:     3.0279

*** Psi4 exiting successfully. Buy a developer a beer!
