                               Psi4 1.3.2 release

  ==> Input File <==

--------------------------------------------------------------------------
#psi4
#
memory 32 gb

molecule  {
0 1
  O        1.2197630    -1.3791890     0.7815710
  O       -2.8493200    -0.0743410    -0.2921690
  O       -1.2471260     1.2289340     0.6316900
  C        1.6098530     0.5514350    -0.6010430
  C        0.7924890    -0.5949300    -0.0578730
  C       -0.6155180    -0.7660970    -0.6108670
  C        2.9660570     0.6794250     0.0724790
  C       -1.5728449     0.2613486    -0.0617548
  H        1.7167540     0.3993790    -1.6843760
  H        1.0152770     1.4637510    -0.4819620
  H       -0.6621251    -0.6184780    -1.6968462
  H       -0.9720840    -1.7722110    -0.3761960
  H        3.5474250    -0.2360290    -0.0491480
  H        3.5302360     1.5116820    -0.3550310
  H        2.8465530     0.8548240     1.1430380
  H       -3.3901630     0.6286630     0.1252190
units angstrom
no_reorient  #important for SAPT in psi4, default
symmetry c1  #important for SAPT in psi4, default
}

set PROPERTIES_ORIGIN ["COM"]
properties('MP2/aug-cc-pvtz', properties = ['dipole'])
--------------------------------------------------------------------------

    Molecular point group: c1
  Charge       = 0
  Multiplicity = 1
  Basis Set: AUG-CC-PVTZ
    Blend: AUG-CC-PVTZ
  Basis Set: (AUG-CC-PVTZ AUX)
    Blend: AUG-CC-PVTZ-JKFIT

    Orbital Energies [Eh]
    ---------------------

    Doubly Occupied:

       1A    -20.637651     2A    -20.566650     3A    -20.556888
       4A    -11.414237     5A    -11.344576     6A    -11.271720
       7A    -11.240739     8A    -11.216706     9A     -1.483448
      10A     -1.388900    11A     -1.369205    12A     -1.085075
      13A     -1.042101    14A     -0.902816    15A     -0.843560
      16A     -0.743739    17A     -0.720360    18A     -0.705986
      19A     -0.682710    20A     -0.649649    21A     -0.631431
      22A     -0.626878    23A     -0.594064    24A     -0.579160
      25A     -0.526113    26A     -0.517521    27A     -0.514581
      28A     -0.499650    29A     -0.487762    30A     -0.466755
      31A     -0.425303

  @DF-RHF Final Energy:  -418.76498932364342

   => Energetics <=

    Nuclear Repulsion Energy =            372.1190740698700097
    One-Electron Energy =               -1310.2962597840805756
    Two-Electron Energy =                 519.4121963905671464
    Total Energy =                       -418.7649893236433627
  Basis Set: (AUG-CC-PVTZ AUX)
    Blend: AUG-CC-PVTZ-RI
    Molecular point group: c1

    Geometry (in Angstrom), charge = 0, multiplicity = 1:

       Center              X                  Y                   Z               Mass
    ------------   -----------------  -----------------  -----------------  -----------------
         O            1.221144102018    -1.381178089463     0.786557316854    15.994914619570
         O           -2.847938897982    -0.076330089463    -0.287182683146    15.994914619570
         O           -1.245744897982     1.226944910537     0.636676316854    15.994914619570
         C            1.611234102018     0.549445910537    -0.596056683146    12.000000000000
         C            0.793870102018    -0.596919089463    -0.052886683146    12.000000000000
         C           -0.614136897982    -0.768086089463    -0.605880683146    12.000000000000
         C            2.967438102018     0.677435910537     0.077465316854    12.000000000000
         C           -1.571463797982     0.259359510537    -0.056768483146    12.000000000000
         H            1.718135102018     0.397389910537    -1.679389683146     1.007825032230
         H            1.016658102018     1.461761910537    -0.476975683146     1.007825032230
         H           -0.660743997982    -0.620467089463    -1.691859883146     1.007825032230
         H           -0.970702897982    -1.774200089463    -0.371209683146     1.007825032230
         H            3.548806102018    -0.238018089463    -0.044161683146     1.007825032230
         H            3.531617102018     1.509692910537    -0.350044683146     1.007825032230
         H            2.847934102018     0.852834910537     1.148024316854     1.007825032230
         H           -3.388781897982     0.626673910537     0.130205316854     1.007825032230

  Basis Set: AUG-CC-PVTZ
    Blend: AUG-CC-PVTZ
  Basis Set: (AUG-CC-PVTZ AUX)
    Blend: AUG-CC-PVTZ-JKFIT
	 Reference Energy          =    -418.7649893236434195 [Eh]
	 Singles Energy            =      -0.0000000000000000 [Eh]
	 Same-Spin Energy          =      -0.4085578018947541 [Eh]
	 Opposite-Spin Energy      =      -1.2870563765013885 [Eh]
	 Correlation Energy        =      -1.6956141783961427 [Eh]
	 Total Energy              =    -420.4606035020395893 [Eh]

	 ================> DF-SCS-MP2 Energies <==================
	-----------------------------------------------------------
	 SCS Same-Spin Scale       =       0.3333333333333333 [-]
	 SCS Opposite-Spin Scale   =       1.2000000000000000 [-]
	 SCS Same-Spin Energy      =      -0.1361859339649180 [Eh]
	 SCS Opposite-Spin Energy  =      -1.5444676518016662 [Eh]
	 SCS Correlation Energy    =      -1.6806535857665843 [Eh]
	 SCS Total Energy          =    -420.4456429094100258 [Eh]
	-----------------------------------------------------------

  Dipole Moment: [D]
     X:    -1.4757      Y:     0.7476      Z:    -2.6436     Total:     3.1186

*** Psi4 exiting successfully. Buy a developer a beer!
