                               Psi4 1.3.2 release

  ==> Input File <==

--------------------------------------------------------------------------
#psi4
#
memory 32 gb

molecule  {
0 1
  O        1.2197630    -1.3791890     0.7815710
  O       -2.8493200    -0.0743410    -0.2921690
  O       -1.2368781     1.2263457     0.6305557
  C        1.6098530     0.5514350    -0.6010430
  C        0.7924890    -0.5949300    -0.0578730
  C       -0.6053236    -0.7593297    -0.6060271
  C        2.9660570     0.6794250     0.0724790
  C       -1.5616300     0.2444870    -0.0131750
  H        1.7167540     0.3993790    -1.6843760
  H        1.0152770     1.4637510    -0.4819620
  H       -0.6366420    -0.6467360    -1.7011060
  H       -0.9720840    -1.7722110    -0.3761960
  H        3.5474250    -0.2360290    -0.0491480
  H        3.5302360     1.5116820    -0.3550310
  H        2.8465530     0.8548240     1.1430380
  H       -3.3901630     0.6286630     0.1252190
units angstrom
no_reorient  #important for SAPT in psi4, default
symmetry c1  #important for SAPT in psi4, default
}

set PROPERTIES_ORIGIN ["COM"]
properties('MP2/aug-cc-pvtz', properties = ['dipole'])
--------------------------------------------------------------------------

    Molecular point group: c1
  Charge       = 0
  Multiplicity = 1
  Basis Set: AUG-CC-PVTZ
    Blend: AUG-CC-PVTZ
  Basis Set: (AUG-CC-PVTZ AUX)
    Blend: AUG-CC-PVTZ-JKFIT

    Orbital Energies [Eh]
    ---------------------

    Doubly Occupied:

       1A    -20.634208     2A    -20.570268     3A    -20.556468
       4A    -11.413688     5A    -11.343197     6A    -11.271297
       7A    -11.240743     8A    -11.216802     9A     -1.479727
      10A     -1.389078    11A     -1.376860    12A     -1.085693
      13A     -1.041523    14A     -0.902018    15A     -0.840222
      16A     -0.743013    17A     -0.720498    18A     -0.707619
      19A     -0.680601    20A     -0.648770    21A     -0.632300
      22A     -0.626951    23A     -0.598208    24A     -0.575430
      25A     -0.525036    26A     -0.518198    27A     -0.514740
      28A     -0.503099    29A     -0.490730    30A     -0.468286
      31A     -0.425487

  @DF-RHF Final Energy:  -418.76750801540391

   => Energetics <=

    Nuclear Repulsion Energy =            372.5044269307401237
    One-Electron Energy =               -1311.0623538188854127
    Two-Electron Energy =                 519.7904188727413839
    Total Energy =                       -418.7675080154039051
  Basis Set: (AUG-CC-PVTZ AUX)
    Blend: AUG-CC-PVTZ-RI
    Molecular point group: c1

    Geometry (in Angstrom), charge = 0, multiplicity = 1:

       Center              X                  Y                   Z               Mass
    ------------   -----------------  -----------------  -----------------  -----------------
         O            1.217296462117    -1.379532120236     0.781226731824    15.994914619570
         O           -2.851786537883    -0.074684120236    -0.292513268176    15.994914619570
         O           -1.239344637883     1.226002579764     0.630211431824    15.994914619570
         C            1.607386462117     0.551091879764    -0.601387268176    12.000000000000
         C            0.790022462117    -0.595273120236    -0.058217268176    12.000000000000
         C           -0.607790137883    -0.759672820236    -0.606371368176    12.000000000000
         C            2.963590462117     0.679081879764     0.072134731824    12.000000000000
         C           -1.564096537883     0.244143879764    -0.013519268176    12.000000000000
         H            1.714287462117     0.399035879764    -1.684720268176     1.007825032230
         H            1.012810462117     1.463407879764    -0.482306268176     1.007825032230
         H           -0.639108537883    -0.647079120236    -1.701450268176     1.007825032230
         H           -0.974550537883    -1.772554120236    -0.376540268176     1.007825032230
         H            3.544958462117    -0.236372120236    -0.049492268176     1.007825032230
         H            3.527769462117     1.511338879764    -0.355375268176     1.007825032230
         H            2.844086462117     0.854480879764     1.142693731824     1.007825032230
         H           -3.392629537883     0.628319879764     0.124874731824     1.007825032230

  Basis Set: AUG-CC-PVTZ
    Blend: AUG-CC-PVTZ
  Basis Set: (AUG-CC-PVTZ AUX)
    Blend: AUG-CC-PVTZ-JKFIT
	 Reference Energy          =    -418.7675080154039051 [Eh]
	 Singles Energy            =      -0.0000000000000000 [Eh]
	 Same-Spin Energy          =      -0.4083238061174149 [Eh]
	 Opposite-Spin Energy      =      -1.2866867854836859 [Eh]
	 Correlation Energy        =      -1.6950105916011009 [Eh]
	 Total Energy              =    -420.4625186070049949 [Eh]

	 ================> DF-SCS-MP2 Energies <==================
	-----------------------------------------------------------
	 SCS Same-Spin Scale       =       0.3333333333333333 [-]
	 SCS Opposite-Spin Scale   =       1.2000000000000000 [-]
	 SCS Same-Spin Energy      =      -0.1361079353724716 [Eh]
	 SCS Opposite-Spin Energy  =      -1.5440241425804231 [Eh]
	 SCS Correlation Energy    =      -1.6801320779528948 [Eh]
	 SCS Total Energy          =    -420.4476400933568243 [Eh]
	-----------------------------------------------------------

  Dipole Moment: [D]
     X:    -1.4012      Y:     0.7904      Z:    -2.5575     Total:     3.0214

*** Psi4 exiting successfully. Buy a developer a beer!
