                               Psi4 1.3.2 release

  ==> Input File <==

--------------------------------------------------------------------------
#psi4
#
memory 32 gb

molecule  {
0 1
  O        1.2197630    -1.3791890     0.7815710
  O       -2.8493200    -0.0743410    -0.2921690
  O       -1.2573978     1.2314473     0.6327752
  C        1.6098530     0.5514350    -0.6010430
  C        0.7924890    -0.5949300    -0.0578730
  C       -0.6257845    -0.7727873    -0.6156614
  C        2.9660570     0.6794250     0.0724790
  C       -1.5616300     0.2444870    -0.0131750
  H        1.7167540     0.3993790    -1.6843760
  H        1.0152770     1.4637510    -0.4819620
  H       -0.6366420    -0.6467360    -1.7011060
  H       -0.9720840    -1.7722110    -0.3761960
  H        3.5474250    -0.2360290    -0.0491480
  H        3.5302360     1.5116820    -0.3550310
  H        2.8465530     0.8548240     1.1430380
  H       -3.3901630     0.6286630     0.1252190
units angstrom
no_reorient  #important for SAPT in psi4, default
symmetry c1  #important for SAPT in psi4, default
}

set PROPERTIES_ORIGIN ["COM"]
properties('MP2/aug-cc-pvtz', properties = ['dipole'])
--------------------------------------------------------------------------

    Molecular point group: c1
  Charge       = 0
  Multiplicity = 1
  Basis Set: AUG-CC-PVTZ
    Blend: AUG-CC-PVTZ
  Basis Set: (AUG-CC-PVTZ AUX)
    Blend: AUG-CC-PVTZ-JKFIT

    Orbital Energies [Eh]
    ---------------------

    Doubly Occupied:

       1A    -20.631551     2A    -20.570509     3A    -20.556982
       4A    -11.413164     5A    -11.344859     6A    -11.271260
       7A    -11.241762     8A    -11.217435     9A     -1.479344
      10A     -1.388941    11A     -1.375178    12A     -1.084474
      13A     -1.042456    14A     -0.901361    15A     -0.839226
      16A     -0.742401    17A     -0.719177    18A     -0.707369
      19A     -0.681352    20A     -0.647743    21A     -0.632239
      22A     -0.625626    23A     -0.598931    24A     -0.578882
      25A     -0.526998    26A     -0.518685    27A     -0.515498
      28A     -0.502763    29A     -0.490873    30A     -0.469492
      31A     -0.423774

  @DF-RHF Final Energy:  -418.76773685223202

   => Energetics <=

    Nuclear Repulsion Energy =            372.0024928137370921
    One-Electron Energy =               -1310.0598502908062528
    Two-Electron Energy =                 519.2896206248371982
    Total Energy =                       -418.7677368522320194
  Basis Set: (AUG-CC-PVTZ AUX)
    Blend: AUG-CC-PVTZ-RI
    Molecular point group: c1

    Geometry (in Angstrom), charge = 0, multiplicity = 1:

       Center              X                  Y                   Z               Mass
    ------------   -----------------  -----------------  -----------------  -----------------
         O            1.222240492968    -1.378843681011     0.781917061169    15.994914619570
         O           -2.846842507032    -0.073995681011    -0.291822938831    15.994914619570
         O           -1.254920307032     1.231792618989     0.633121261169    15.994914619570
         C            1.612330492968     0.551780318989    -0.600696938831    12.000000000000
         C            0.794966492968    -0.594584681011    -0.057526938831    12.000000000000
         C           -0.623307007032    -0.772441981011    -0.615315338831    12.000000000000
         C            2.968534492968     0.679770318989     0.072825061169    12.000000000000
         C           -1.559152507032     0.244832318989    -0.012828938831    12.000000000000
         H            1.719231492968     0.399724318989    -1.684029938831     1.007825032230
         H            1.017754492968     1.464096318989    -0.481615938831     1.007825032230
         H           -0.634164507032    -0.646390681011    -1.700759938831     1.007825032230
         H           -0.969606507032    -1.771865681011    -0.375849938831     1.007825032230
         H            3.549902492968    -0.235683681011    -0.048801938831     1.007825032230
         H            3.532713492968     1.512027318989    -0.354684938831     1.007825032230
         H            2.849030492968     0.855169318989     1.143384061169     1.007825032230
         H           -3.387685507032     0.629008318989     0.125565061169     1.007825032230

  Basis Set: AUG-CC-PVTZ
    Blend: AUG-CC-PVTZ
  Basis Set: (AUG-CC-PVTZ AUX)
    Blend: AUG-CC-PVTZ-JKFIT
	 Reference Energy          =    -418.7677368522320194 [Eh]
	 Singles Energy            =      -0.0000000000000000 [Eh]
	 Same-Spin Energy          =      -0.4081698064057177 [Eh]
	 Opposite-Spin Energy      =      -1.2865258670155666 [Eh]
	 Correlation Energy        =      -1.6946956734212844 [Eh]
	 Total Energy              =    -420.4624325256532984 [Eh]

	 ================> DF-SCS-MP2 Energies <==================
	-----------------------------------------------------------
	 SCS Same-Spin Scale       =       0.3333333333333333 [-]
	 SCS Opposite-Spin Scale   =       1.2000000000000000 [-]
	 SCS Same-Spin Energy      =      -0.1360566021352392 [Eh]
	 SCS Opposite-Spin Energy  =      -1.5438310404186799 [Eh]
	 SCS Correlation Energy    =      -1.6798876425539191 [Eh]
	 SCS Total Energy          =    -420.4476244947859414 [Eh]
	-----------------------------------------------------------

  Dipole Moment: [D]
     X:    -1.2981      Y:     0.7746      Z:    -2.5578     Total:     2.9711

*** Psi4 exiting successfully. Buy a developer a beer!
