                               Psi4 1.4a3.dev225

  ==> Input File <==

--------------------------------------------------------------------------
#psi4
#
memory 32 gb

molecule  {
0 1
  O        1.1896460     1.3864710    -0.7896670
  O       -2.9164350     0.0620530     0.2465870
  O       -1.2994600    -1.1722570    -0.7513140
  C        1.5277270    -0.5390120     0.6173550
  C        0.7067637     0.6497603     0.0256915
  C       -0.6915030     0.7929470     0.5540020
  C        2.9119880    -0.6669770    -0.0005940
  C       -1.6259000    -0.2196380    -0.0638170
  H        1.5906630    -0.3916430     1.7048170
  H        0.9378800    -1.4511620     0.4690430
  H       -0.7449460     0.6872940     1.6445860
  H       -1.0362610     1.7983420     0.2961770
  H        3.4930330     0.2441750     0.1549910
  H        3.4532110    -1.5066350     0.4428820
  H        2.8367130    -0.8315610    -1.0772290
  H       -3.4525110    -0.6329900    -0.1896390
units angstrom
no_reorient  #important for SAPT in psi4, default
symmetry c1  #important for SAPT in psi4, default
}

set PROPERTIES_ORIGIN ["COM"]
properties('MP2/aug-cc-pvtz', properties = ['dipole'])
--------------------------------------------------------------------------

    Molecular point group: c1
  Charge       = 0
  Multiplicity = 1
  Basis Set: AUG-CC-PVTZ
    Blend: AUG-CC-PVTZ
  Basis Set: (AUG-CC-PVTZ AUX)
    Blend: AUG-CC-PVTZ-JKFIT

    Orbital Energies [Eh]
    ---------------------

    Doubly Occupied:

       1A    -20.633837     2A    -20.571471     3A    -20.559134
       4A    -11.415188     5A    -11.341863     6A    -11.271675
       7A    -11.239651     8A    -11.215289     9A     -1.479458
      10A     -1.406076    11A     -1.376640    12A     -1.084425
      13A     -1.036215    14A     -0.895244    15A     -0.840487
      16A     -0.743234    17A     -0.720414    18A     -0.708149
      19A     -0.682564    20A     -0.649418    21A     -0.632289
      22A     -0.627824    23A     -0.598429    24A     -0.578765
      25A     -0.525686    26A     -0.523087    27A     -0.514738
      28A     -0.503493    29A     -0.491087    30A     -0.471098
      31A     -0.417739

  @DF-RHF Final Energy:  -418.76738974036903

   => Energetics <=

    Nuclear Repulsion Energy =            371.9515110420338715
    One-Electron Energy =               -1309.9284669070489144
    Two-Electron Energy =                 519.2095661246460168
    Total Energy =                       -418.7673897403690262
  Basis Set: (AUG-CC-PVTZ AUX)
    Blend: AUG-CC-PVTZ-RI
    Molecular point group: c1

    Geometry (in Angstrom), charge = 0, multiplicity = 1:

       Center              X                  Y                   Z               Mass
    ------------   -----------------  -----------------  -----------------  -----------------
         O            1.252745419948     1.364726927176    -0.758304960725    15.994914619570
         O           -2.853335580052     0.040308927176     0.277949039275    15.994914619570
         O           -1.236360580052    -1.194001072824    -0.719951960725    15.994914619570
         C            1.590826419948    -0.560756072824     0.648717039275    12.000000000000
         C            0.769863119948     0.628016227176     0.057053539275    12.000000000000
         C           -0.628403580052     0.771202927176     0.585364039275    12.000000000000
         C            2.975087419948    -0.688721072824     0.030768039275    12.000000000000
         C           -1.562800580052    -0.241382072824    -0.032454960725    12.000000000000
         H            1.653762419948    -0.413387072824     1.736179039275     1.007825032230
         H            1.000979419948    -1.472906072824     0.500405039275     1.007825032230
         H           -0.681846580052     0.665549927176     1.675948039275     1.007825032230
         H           -0.973161580052     1.776597927176     0.327539039275     1.007825032230
         H            3.556132419948     0.222430927176     0.186353039275     1.007825032230
         H            3.516310419948    -1.528379072824     0.474244039275     1.007825032230
         H            2.899812419948    -0.853305072824    -1.045866960725     1.007825032230
         H           -3.389411580052    -0.654734072824    -0.158276960725     1.007825032230

  Basis Set: AUG-CC-PVTZ
    Blend: AUG-CC-PVTZ
  Basis Set: (AUG-CC-PVTZ AUX)
    Blend: AUG-CC-PVTZ-JKFIT
	 Reference Energy          =    -418.7673897403690262 [Eh]
	 Singles Energy            =      -0.0000000000000000 [Eh]
	 Same-Spin Energy          =      -0.4075116305332609 [Eh]
	 Opposite-Spin Energy      =      -1.2854417055702680 [Eh]
	 Correlation Energy        =      -1.6929533361035289 [Eh]
	 Total Energy              =    -420.4603430764725545 [Eh]

	 ================> DF-SCS-MP2 Energies <==================
	-----------------------------------------------------------
	 SCS Same-Spin Scale       =       0.3333333333333333 [-]
	 SCS Opposite-Spin Scale   =       1.2000000000000000 [-]
	 SCS Same-Spin Energy      =      -0.1358372101777536 [Eh]
	 SCS Opposite-Spin Energy  =      -1.5425300466843217 [Eh]
	 SCS Correlation Energy    =      -1.6783672568620753 [Eh]
	 SCS Total Energy          =    -420.4457569972311148 [Eh]
	-----------------------------------------------------------

  Dipole Moment: [D]
     X:    -1.5768      Y:    -0.6295      Z:     2.4886     Total:     3.0126

*** Psi4 exiting successfully. Buy a developer a beer!
