                               Psi4 1.3.2 release

  ==> Input File <==

--------------------------------------------------------------------------
#psi4
#
memory 32 gb

molecule  {
0 1
  O        1.2197630    -1.3791890     0.7815710
  O       -2.8493200    -0.0743410    -0.2921690
  O       -1.2471260     1.2289340     0.6316900
  C        1.6098530     0.5514350    -0.6010430
  C        0.7929376    -0.5701068    -0.0673369
  C       -0.6155180    -0.7660970    -0.6108670
  C        2.9660570     0.6794250     0.0724790
  C       -1.5616300     0.2444870    -0.0131750
  H        1.7167540     0.3993790    -1.6843760
  H        1.0152770     1.4637510    -0.4819620
  H       -0.6366420    -0.6467360    -1.7011060
  H       -0.9885439    -1.7682462    -0.3849825
  H        3.5474250    -0.2360290    -0.0491480
  H        3.5302360     1.5116820    -0.3550310
  H        2.8465530     0.8548240     1.1430380
  H       -3.3901630     0.6286630     0.1252190
units angstrom
no_reorient  #important for SAPT in psi4, default
symmetry c1  #important for SAPT in psi4, default
}

set PROPERTIES_ORIGIN ["COM"]
properties('MP2/aug-cc-pvtz', properties = ['dipole'])
--------------------------------------------------------------------------

    Molecular point group: c1
  Charge       = 0
  Multiplicity = 1
  Basis Set: AUG-CC-PVTZ
    Blend: AUG-CC-PVTZ
  Basis Set: (AUG-CC-PVTZ AUX)
    Blend: AUG-CC-PVTZ-JKFIT

    Orbital Energies [Eh]
    ---------------------

    Doubly Occupied:

       1A    -20.633020     2A    -20.570606     3A    -20.554781
       4A    -11.413415     5A    -11.346164     6A    -11.272378
       7A    -11.242562     8A    -11.218281     9A     -1.479741
      10A     -1.378483    11A     -1.372010    12A     -1.087821
      13A     -1.044644    14A     -0.905556    15A     -0.840157
      16A     -0.742924    17A     -0.719735    18A     -0.707741
      19A     -0.679754    20A     -0.648871    21A     -0.633712
      22A     -0.623061    23A     -0.598999    24A     -0.574860
      25A     -0.526536    26A     -0.517585    27A     -0.513463
      28A     -0.502033    29A     -0.488699    30A     -0.467293
      31A     -0.428000

  @DF-RHF Final Energy:  -418.76423478163963

   => Energetics <=

    Nuclear Repulsion Energy =            372.2107918336695889
    One-Electron Energy =               -1310.4842896919490158
    Two-Electron Energy =                 519.5092630766397406
    Total Energy =                       -418.7642347816396295
  Basis Set: (AUG-CC-PVTZ AUX)
    Blend: AUG-CC-PVTZ-RI
    Molecular point group: c1

    Geometry (in Angstrom), charge = 0, multiplicity = 1:

       Center              X                  Y                   Z               Mass
    ------------   -----------------  -----------------  -----------------  -----------------
         O            1.219859662396    -1.381790390463     0.782625797216    15.994914619570
         O           -2.849223337604    -0.076942390463    -0.291114202784    15.994914619570
         O           -1.247029337604     1.226332609537     0.632744797216    15.994914619570
         C            1.609949662396     0.548833609537    -0.599988202784    12.000000000000
         C            0.793034262396    -0.572708190463    -0.066282102784    12.000000000000
         C           -0.615421337604    -0.768698390463    -0.609812202784    12.000000000000
         C            2.966153662396     0.676823609537     0.073533797216    12.000000000000
         C           -1.561533337604     0.241885609537    -0.012120202784    12.000000000000
         H            1.716850662396     0.396777609537    -1.683321202784     1.007825032230
         H            1.015373662396     1.461149609537    -0.480907202784     1.007825032230
         H           -0.636545337604    -0.649337390463    -1.700051202784     1.007825032230
         H           -0.988447237604    -1.770847590463    -0.383927702784     1.007825032230
         H            3.547521662396    -0.238630390463    -0.048093202784     1.007825032230
         H            3.530332662396     1.509080609537    -0.353976202784     1.007825032230
         H            2.846649662396     0.852222609537     1.144092797216     1.007825032230
         H           -3.390066337604     0.626061609537     0.126273797216     1.007825032230

  Basis Set: AUG-CC-PVTZ
    Blend: AUG-CC-PVTZ
  Basis Set: (AUG-CC-PVTZ AUX)
    Blend: AUG-CC-PVTZ-JKFIT
	 Reference Energy          =    -418.7642347816396295 [Eh]
	 Singles Energy            =      -0.0000000000000000 [Eh]
	 Same-Spin Energy          =      -0.4089643168184406 [Eh]
	 Opposite-Spin Energy      =      -1.2880120116567670 [Eh]
	 Correlation Energy        =      -1.6969763284752077 [Eh]
	 Total Energy              =    -420.4612111101148457 [Eh]

	 ================> DF-SCS-MP2 Energies <==================
	-----------------------------------------------------------
	 SCS Same-Spin Scale       =       0.3333333333333333 [-]
	 SCS Opposite-Spin Scale   =       1.2000000000000000 [-]
	 SCS Same-Spin Energy      =      -0.1363214389394802 [Eh]
	 SCS Opposite-Spin Energy  =      -1.5456144139881205 [Eh]
	 SCS Correlation Energy    =      -1.6819358529276007 [Eh]
	 SCS Total Energy          =    -420.4461706345672383 [Eh]
	-----------------------------------------------------------

  Dipole Moment: [D]
     X:    -1.3336      Y:     0.8703      Z:    -2.6232     Total:     3.0687

*** Psi4 exiting successfully. Buy a developer a beer!
