                               Psi4 1.3.2 release

  ==> Input File <==

--------------------------------------------------------------------------
#psi4
#
memory 32 gb

molecule  {
0 1
  O        1.2197630    -1.3791890     0.7815710
  O       -2.8493200    -0.0743410    -0.2921690
  O       -1.2471260     1.2289340     0.6316900
  C        1.6098530     0.5514350    -0.6010430
  C        0.7924890    -0.5949300    -0.0578730
  C       -0.6155180    -0.7660970    -0.6108670
  C        2.9660570     0.6794250     0.0724790
  C       -1.5673824     0.2530730    -0.0373775
  H        1.7167540     0.3993790    -1.6843760
  H        1.0152770     1.4637510    -0.4819620
  H       -0.6493887    -0.6325866    -1.6991418
  H       -0.9720840    -1.7722110    -0.3761960
  H        3.5474250    -0.2360290    -0.0491480
  H        3.5302360     1.5116820    -0.3550310
  H        2.8465530     0.8548240     1.1430380
  H       -3.3901630     0.6286630     0.1252190
units angstrom
no_reorient  #important for SAPT in psi4, default
symmetry c1  #important for SAPT in psi4, default
}

set PROPERTIES_ORIGIN ["COM"]
properties('MP2/aug-cc-pvtz', properties = ['dipole'])
--------------------------------------------------------------------------

    Molecular point group: c1
  Charge       = 0
  Multiplicity = 1
  Basis Set: AUG-CC-PVTZ
    Blend: AUG-CC-PVTZ
  Basis Set: (AUG-CC-PVTZ AUX)
    Blend: AUG-CC-PVTZ-JKFIT

    Orbital Energies [Eh]
    ---------------------

    Doubly Occupied:

       1A    -20.635306     2A    -20.568465     3A    -20.556795
       4A    -11.413711     5A    -11.344290     6A    -11.271436
       7A    -11.240988     8A    -11.216906     9A     -1.481382
      10A     -1.388941    11A     -1.373033    12A     -1.085033
      13A     -1.042019    14A     -0.902214    15A     -0.841665
      16A     -0.743139    17A     -0.720074    18A     -0.706789
      19A     -0.681856    20A     -0.648951    21A     -0.631874
      22A     -0.626598    23A     -0.596361    24A     -0.578270
      25A     -0.526071    26A     -0.517984    27A     -0.514863
      28A     -0.501298    29A     -0.489464    30A     -0.467904
      31A     -0.424982

  @DF-RHF Final Energy:  -418.76700320552271

   => Energetics <=

    Nuclear Repulsion Energy =            372.1935252594388430
    One-Electron Energy =               -1310.4437274287740820
    Two-Electron Energy =                 519.4831989638124696
    Total Energy =                       -418.7670032055227693
  Basis Set: (AUG-CC-PVTZ AUX)
    Blend: AUG-CC-PVTZ-RI
    Molecular point group: c1

    Geometry (in Angstrom), charge = 0, multiplicity = 1:

       Center              X                  Y                   Z               Mass
    ------------   -----------------  -----------------  -----------------  -----------------
         O            1.220468635782    -1.380199814595     0.784056492392    15.994914619570
         O           -2.848614364218    -0.075351814595    -0.289683507608    15.994914619570
         O           -1.246420364218     1.227923185405     0.634175492392    15.994914619570
         C            1.610558635782     0.550424185405    -0.598557507608    12.000000000000
         C            0.793194635782    -0.595940814595    -0.055387507608    12.000000000000
         C           -0.614812364218    -0.767107814595    -0.608381507608    12.000000000000
         C            2.966762635782     0.678414185405     0.074964492392    12.000000000000
         C           -1.566676764218     0.252062185405    -0.034892007608    12.000000000000
         H            1.717459635782     0.398368185405    -1.681890507608     1.007825032230
         H            1.015982635782     1.462740185405    -0.479476507608     1.007825032230
         H           -0.648683064218    -0.633597414595    -1.696656307608     1.007825032230
         H           -0.971378364218    -1.773221814595    -0.373710507608     1.007825032230
         H            3.548130635782    -0.237039814595    -0.046662507608     1.007825032230
         H            3.530941635782     1.510671185405    -0.352545507608     1.007825032230
         H            2.847258635782     0.853813185405     1.145523492392     1.007825032230
         H           -3.389457364218     0.627652185405     0.127704492392     1.007825032230

  Basis Set: AUG-CC-PVTZ
    Blend: AUG-CC-PVTZ
  Basis Set: (AUG-CC-PVTZ AUX)
    Blend: AUG-CC-PVTZ-JKFIT
	 Reference Energy          =    -418.7670032055227125 [Eh]
	 Singles Energy            =      -0.0000000000000000 [Eh]
	 Same-Spin Energy          =      -0.4083664083701862 [Eh]
	 Opposite-Spin Energy      =      -1.2867478055817636 [Eh]
	 Correlation Energy        =      -1.6951142139519497 [Eh]
	 Total Energy              =    -420.4621174194746800 [Eh]

	 ================> DF-SCS-MP2 Energies <==================
	-----------------------------------------------------------
	 SCS Same-Spin Scale       =       0.3333333333333333 [-]
	 SCS Opposite-Spin Scale   =       1.2000000000000000 [-]
	 SCS Same-Spin Energy      =      -0.1361221361233954 [Eh]
	 SCS Opposite-Spin Energy  =      -1.5440973666981164 [Eh]
	 SCS Correlation Energy    =      -1.6802195028215117 [Eh]
	 SCS Total Energy          =    -420.4472227083442135 [Eh]
	-----------------------------------------------------------

  Dipole Moment: [D]
     X:    -1.4146      Y:     0.7652      Z:    -2.6015     Total:     3.0584

*** Psi4 exiting successfully. Buy a developer a beer!
