                               Psi4 1.3.2 release

  ==> Input File <==

--------------------------------------------------------------------------
#psi4
#
memory 32 gb

molecule  {
0 1
  O        1.2197630    -1.3791890     0.7815710
  O       -2.8493200    -0.0743410    -0.2921690
  O       -1.2471260     1.2289340     0.6316900
  C        1.6098530     0.5514350    -0.6010430
  C        0.7924890    -0.5949300    -0.0578730
  C       -0.6155180    -0.7660970    -0.6108670
  C        2.9660570     0.6794250     0.0724790
  C       -1.4361394     0.1104449    -0.0924518
  H        1.7167540     0.3993790    -1.6843760
  H        1.0152770     1.4637510    -0.4819620
  H       -0.6366420    -0.6467360    -1.7011060
  H       -0.9720840    -1.7722110    -0.3761960
  H        3.5474250    -0.2360290    -0.0491480
  H        3.5302360     1.5116820    -0.3550310
  H        2.8465530     0.8548240     1.1430380
  H       -3.3901630     0.6286630     0.1252190
units angstrom
no_reorient  #important for SAPT in psi4, default
symmetry c1  #important for SAPT in psi4, default
}

set PROPERTIES_ORIGIN ["COM"]
properties('MP2/aug-cc-pvtz', properties = ['dipole'])
--------------------------------------------------------------------------

    Molecular point group: c1
  Charge       = 0
  Multiplicity = 1
  Basis Set: AUG-CC-PVTZ
    Blend: AUG-CC-PVTZ
  Basis Set: (AUG-CC-PVTZ AUX)
    Blend: AUG-CC-PVTZ-JKFIT

    Orbital Energies [Eh]
    ---------------------

    Doubly Occupied:

       1A    -20.612801     2A    -20.569554     3A    -20.559342
       4A    -11.427841     5A    -11.360097     6A    -11.279269
       7A    -11.248439     8A    -11.222152     9A     -1.424425
      10A     -1.400823    11A     -1.302257    12A     -1.147502
      13A     -1.061670    14A     -0.915267    15A     -0.835831
      16A     -0.750125    17A     -0.732122    18A     -0.699098
      19A     -0.684177    20A     -0.652448    21A     -0.631141
      22A     -0.629378    23A     -0.572816    24A     -0.564889
      25A     -0.533491    26A     -0.526817    27A     -0.522072
      28A     -0.498914    29A     -0.458823    30A     -0.455924
      31A     -0.437433

  @DF-RHF Final Energy:  -418.68981536010358

   => Energetics <=

    Nuclear Repulsion Energy =            372.5624334209911126
    One-Electron Energy =               -1311.0706194476679229
    Two-Electron Energy =                 519.8183706665732871
    Total Energy =                       -418.6898153601035801
  Basis Set: (AUG-CC-PVTZ AUX)
    Blend: AUG-CC-PVTZ-RI
    Molecular point group: c1

    Geometry (in Angstrom), charge = 0, multiplicity = 1:

       Center              X                  Y                   Z               Mass
    ------------   -----------------  -----------------  -----------------  -----------------
         O            1.206786612678    -1.365328321131     0.789768567709    15.994914619570
         O           -2.862296387322    -0.060480321131    -0.283971432291    15.994914619570
         O           -1.260102387322     1.242794678869     0.639887567709    15.994914619570
         C            1.596876612678     0.565295678869    -0.592845432291    12.000000000000
         C            0.779512612678    -0.581069321131    -0.049675432291    12.000000000000
         C           -0.628494387322    -0.752236321131    -0.602669432291    12.000000000000
         C            2.953080612678     0.693285678869     0.080676567709    12.000000000000
         C           -1.449115787322     0.124305578869    -0.084254232291    12.000000000000
         H            1.703777612678     0.413239678869    -1.676178432291     1.007825032230
         H            1.002300612678     1.477611678869    -0.473764432291     1.007825032230
         H           -0.649618387322    -0.632875321131    -1.692908432291     1.007825032230
         H           -0.985060387322    -1.758350321131    -0.367998432291     1.007825032230
         H            3.534448612678    -0.222168321131    -0.040950432291     1.007825032230
         H            3.517259612678     1.525542678869    -0.346833432291     1.007825032230
         H            2.833576612678     0.868684678869     1.151235567709     1.007825032230
         H           -3.403139387322     0.642523678869     0.133416567709     1.007825032230

  Basis Set: AUG-CC-PVTZ
    Blend: AUG-CC-PVTZ
  Basis Set: (AUG-CC-PVTZ AUX)
    Blend: AUG-CC-PVTZ-JKFIT
	 Reference Energy          =    -418.6898153601035801 [Eh]
	 Singles Energy            =      -0.0000000000000000 [Eh]
	 Same-Spin Energy          =      -0.4145870422431130 [Eh]
	 Opposite-Spin Energy      =      -1.2986890004554874 [Eh]
	 Correlation Energy        =      -1.7132760426986005 [Eh]
	 Total Energy              =    -420.4030914028022039 [Eh]

	 ================> DF-SCS-MP2 Energies <==================
	-----------------------------------------------------------
	 SCS Same-Spin Scale       =       0.3333333333333333 [-]
	 SCS Opposite-Spin Scale   =       1.2000000000000000 [-]
	 SCS Same-Spin Energy      =      -0.1381956807477043 [Eh]
	 SCS Opposite-Spin Energy  =      -1.5584268005465849 [Eh]
	 SCS Correlation Energy    =      -1.6966224812942892 [Eh]
	 SCS Total Energy          =    -420.3864378413978784 [Eh]
	-----------------------------------------------------------

  Dipole Moment: [D]
     X:    -0.2912      Y:     0.1367      Z:    -2.9052     Total:     2.9230

*** Psi4 exiting successfully. Buy a developer a beer!
