                               Psi4 1.3.2 release

  ==> Input File <==

--------------------------------------------------------------------------
#psi4
#
memory 32 gb

molecule  {
0 1
  O        1.2197630    -1.3791890     0.7815710
  O       -2.8493200    -0.0743410    -0.2921690
  O       -1.2471260     1.2289340     0.6316900
  C        1.6098530     0.5514350    -0.6010430
  C        0.7924890    -0.5949300    -0.0578730
  C       -0.6155180    -0.7660970    -0.6108670
  C        2.9660570     0.6794250     0.0724790
  C       -1.5616300     0.2444870    -0.0131750
  H        1.7167540     0.3993790    -1.6843760
  H        1.0152770     1.4637510    -0.4819620
  H       -0.6385677    -0.6358549    -1.8004936
  H       -0.9720840    -1.7722110    -0.3761960
  H        3.5474250    -0.2360290    -0.0491480
  H        3.5302360     1.5116820    -0.3550310
  H        2.8465530     0.8548240     1.1430380
  H       -3.3901630     0.6286630     0.1252190
units angstrom
no_reorient  #important for SAPT in psi4, default
symmetry c1  #important for SAPT in psi4, default
}

set PROPERTIES_ORIGIN ["COM"]
properties('MP2/aug-cc-pvtz', properties = ['dipole'])
--------------------------------------------------------------------------

    Molecular point group: c1
  Charge       = 0
  Multiplicity = 1
  Basis Set: AUG-CC-PVTZ
    Blend: AUG-CC-PVTZ
  Basis Set: (AUG-CC-PVTZ AUX)
    Blend: AUG-CC-PVTZ-JKFIT

    Orbital Energies [Eh]
    ---------------------

    Doubly Occupied:

       1A    -20.632734     2A    -20.570739     3A    -20.557522
       4A    -11.413999     5A    -11.344877     6A    -11.281961
       7A    -11.241092     8A    -11.217028     9A     -1.479543
      10A     -1.389678    11A     -1.376218    12A     -1.081457
      13A     -1.039655    14A     -0.901718    15A     -0.838482
      16A     -0.740757    17A     -0.720071    18A     -0.705421
      19A     -0.673059    20A     -0.648162    21A     -0.632263
      22A     -0.626654    23A     -0.597976    24A     -0.568771
      25A     -0.525019    26A     -0.517682    27A     -0.514958
      28A     -0.502763    29A     -0.490482    30A     -0.468962
      31A     -0.425133

  @DF-RHF Final Energy:  -418.76112350586084

   => Energetics <=

    Nuclear Repulsion Energy =            371.7734947612966039
    One-Electron Energy =               -1309.6195655702822478
    Two-Electron Energy =                 519.0849473031247499
    Total Energy =                       -418.7611235058608372
  Basis Set: (AUG-CC-PVTZ AUX)
    Blend: AUG-CC-PVTZ-RI
    Molecular point group: c1

    Geometry (in Angstrom), charge = 0, multiplicity = 1:

       Center              X                  Y                   Z               Mass
    ------------   -----------------  -----------------  -----------------  -----------------
         O            1.219779826613    -1.379283586176     0.782434007015    15.994914619570
         O           -2.849303173387    -0.074435586176    -0.291305992985    15.994914619570
         O           -1.247109173387     1.228839413824     0.632553007015    15.994914619570
         C            1.609869826613     0.551340413824    -0.600179992985    12.000000000000
         C            0.792505826613    -0.595024586176    -0.057009992985    12.000000000000
         C           -0.615501173387    -0.766191586176    -0.610003992985    12.000000000000
         C            2.966073826613     0.679330413824     0.073342007015    12.000000000000
         C           -1.561613173387     0.244392413824    -0.012311992985    12.000000000000
         H            1.716770826613     0.399284413824    -1.683512992985     1.007825032230
         H            1.015293826613     1.463656413824    -0.481098992985     1.007825032230
         H           -0.638550873387    -0.635949486176    -1.799630592985     1.007825032230
         H           -0.972067173387    -1.772305586176    -0.375332992985     1.007825032230
         H            3.547441826613    -0.236123586176    -0.048284992985     1.007825032230
         H            3.530252826613     1.511587413824    -0.354167992985     1.007825032230
         H            2.846569826613     0.854729413824     1.143901007015     1.007825032230
         H           -3.390146173387     0.628568413824     0.126082007015     1.007825032230

  Basis Set: AUG-CC-PVTZ
    Blend: AUG-CC-PVTZ
  Basis Set: (AUG-CC-PVTZ AUX)
    Blend: AUG-CC-PVTZ-JKFIT
	 Reference Energy          =    -418.7611235058608372 [Eh]
	 Singles Energy            =      -0.0000000000000000 [Eh]
	 Same-Spin Energy          =      -0.4083431636155185 [Eh]
	 Opposite-Spin Energy      =      -1.2873624881311796 [Eh]
	 Correlation Energy        =      -1.6957056517466982 [Eh]
	 Total Energy              =    -420.4568291576075580 [Eh]

	 ================> DF-SCS-MP2 Energies <==================
	-----------------------------------------------------------
	 SCS Same-Spin Scale       =       0.3333333333333333 [-]
	 SCS Opposite-Spin Scale   =       1.2000000000000000 [-]
	 SCS Same-Spin Energy      =      -0.1361143878718395 [Eh]
	 SCS Opposite-Spin Energy  =      -1.5448349857574155 [Eh]
	 SCS Correlation Energy    =      -1.6809493736292551 [Eh]
	 SCS Total Energy          =    -420.4420728794900697 [Eh]
	-----------------------------------------------------------

  Dipole Moment: [D]
     X:    -1.3451      Y:     0.7811      Z:    -2.5481     Total:     2.9853

*** Psi4 exiting successfully. Buy a developer a beer!
