                               Psi4 1.3.2 release

  ==> Input File <==

--------------------------------------------------------------------------
#psi4
#
memory 32 gb

molecule  {
0 1
  O        1.2197630    -1.3791890     0.7815710
  O       -2.8493200    -0.0743410    -0.2921690
  O       -1.2471260     1.2289340     0.6316900
  C        1.6098530     0.5514350    -0.6010430
  C        0.8083573    -0.6355291    -0.0882626
  C       -0.6155180    -0.7660970    -0.6108670
  C        2.9660570     0.6794250     0.0724790
  C       -1.6004624     0.2238750    -0.0421107
  H        1.7167540     0.3993790    -1.6843760
  H        1.0152770     1.4637510    -0.4819620
  H       -0.6366420    -0.6467360    -1.7011060
  H       -0.9720840    -1.7722110    -0.3761960
  H        3.5474250    -0.2360290    -0.0491480
  H        3.5302360     1.5116820    -0.3550310
  H        2.8465530     0.8548240     1.1430380
  H       -3.3901630     0.6286630     0.1252190
units angstrom
no_reorient  #important for SAPT in psi4, default
symmetry c1  #important for SAPT in psi4, default
}

set PROPERTIES_ORIGIN ["COM"]
properties('MP2/aug-cc-pvtz', properties = ['dipole'])
--------------------------------------------------------------------------

    Molecular point group: c1
  Charge       = 0
  Multiplicity = 1
  Basis Set: AUG-CC-PVTZ
    Blend: AUG-CC-PVTZ
  Basis Set: (AUG-CC-PVTZ AUX)
    Blend: AUG-CC-PVTZ-JKFIT

    Orbital Energies [Eh]
    ---------------------

    Doubly Occupied:

       1A    -20.646841     2A    -20.559533     3A    -20.557535
       4A    -11.416196     5A    -11.343309     6A    -11.271013
       7A    -11.239020     8A    -11.215273     9A     -1.496828
      10A     -1.394854    11A     -1.355018    12A     -1.082386
      13A     -1.040060    14A     -0.904494    15A     -0.851692
      16A     -0.745394    17A     -0.722364    18A     -0.706726
      19A     -0.684144    20A     -0.652630    21A     -0.630550
      22A     -0.628352    23A     -0.586521    24A     -0.581054
      25A     -0.525398    26A     -0.518383    27A     -0.513073
      28A     -0.495468    29A     -0.481481    30A     -0.463493
      31A     -0.422629

  @DF-RHF Final Energy:  -418.76142976899683

   => Energetics <=

    Nuclear Repulsion Energy =            371.7472025936326645
    One-Electron Energy =               -1309.5538386624248233
    Two-Electron Energy =                 519.0452062997953817
    Total Energy =                       -418.7614297689967771
  Basis Set: (AUG-CC-PVTZ AUX)
    Blend: AUG-CC-PVTZ-RI
    Molecular point group: c1

    Geometry (in Angstrom), charge = 0, multiplicity = 1:

       Center              X                  Y                   Z               Mass
    ------------   -----------------  -----------------  -----------------  -----------------
         O            1.222137730048    -1.372859488747     0.787705461468    15.994914619570
         O           -2.846945269952    -0.068011488747    -0.286034538532    15.994914619570
         O           -1.244751269952     1.235263511253     0.637824461468    15.994914619570
         C            1.612227730048     0.557764511253    -0.594908538532    12.000000000000
         C            0.810732030048    -0.629199588747    -0.082128138532    12.000000000000
         C           -0.613143269952    -0.759767488747    -0.604732538532    12.000000000000
         C            2.968431730048     0.685754511253     0.078613461468    12.000000000000
         C           -1.598087669952     0.230204511253    -0.035976238532    12.000000000000
         H            1.719128730048     0.405708511253    -1.678241538532     1.007825032230
         H            1.017651730048     1.470080511253    -0.475827538532     1.007825032230
         H           -0.634267269952    -0.640406488747    -1.694971538532     1.007825032230
         H           -0.969709269952    -1.765881488747    -0.370061538532     1.007825032230
         H            3.549799730048    -0.229699488747    -0.043013538532     1.007825032230
         H            3.532610730048     1.518011511253    -0.348896538532     1.007825032230
         H            2.848927730048     0.861153511253     1.149172461468     1.007825032230
         H           -3.387788269952     0.634992511253     0.131353461468     1.007825032230

  Basis Set: AUG-CC-PVTZ
    Blend: AUG-CC-PVTZ
  Basis Set: (AUG-CC-PVTZ AUX)
    Blend: AUG-CC-PVTZ-JKFIT
	 Reference Energy          =    -418.7614297689968339 [Eh]
	 Singles Energy            =      -0.0000000000000000 [Eh]
	 Same-Spin Energy          =      -0.4085254078249728 [Eh]
	 Opposite-Spin Energy      =      -1.2869754552086909 [Eh]
	 Correlation Energy        =      -1.6955008630336637 [Eh]
	 Total Energy              =    -420.4569306320304918 [Eh]

	 ================> DF-SCS-MP2 Energies <==================
	-----------------------------------------------------------
	 SCS Same-Spin Scale       =       0.3333333333333333 [-]
	 SCS Opposite-Spin Scale   =       1.2000000000000000 [-]
	 SCS Same-Spin Energy      =      -0.1361751359416576 [Eh]
	 SCS Opposite-Spin Energy  =      -1.5443705462504291 [Eh]
	 SCS Correlation Energy    =      -1.6805456821920868 [Eh]
	 SCS Total Energy          =    -420.4419754511889096 [Eh]
	-----------------------------------------------------------

  Dipole Moment: [D]
     X:    -1.7094      Y:     0.5398      Z:    -2.6784     Total:     3.2229

*** Psi4 exiting successfully. Buy a developer a beer!
