                               Psi4 1.3.2 release

  ==> Input File <==

--------------------------------------------------------------------------
#psi4
#
memory 32 gb

molecule  {
0 1
  O        1.2197630    -1.3791890     0.7815710
  O       -2.8493200    -0.0743410    -0.2921690
  O       -1.2471260     1.2289340     0.6316900
  C        1.6098530     0.5514350    -0.6010430
  C        0.8179463    -0.5823166    -0.1323389
  C       -0.6155180    -0.7660970    -0.6108670
  C        2.9660570     0.6794250     0.0724790
  C       -1.5616300     0.2444870    -0.0131750
  H        1.7167540     0.3993790    -1.6843760
  H        1.0152770     1.4637510    -0.4819620
  H       -0.5799775    -0.6375001    -1.6996801
  H       -0.9720840    -1.7722110    -0.3761960
  H        3.5474250    -0.2360290    -0.0491480
  H        3.5302360     1.5116820    -0.3550310
  H        2.8465530     0.8548240     1.1430380
  H       -3.3901630     0.6286630     0.1252190
units angstrom
no_reorient  #important for SAPT in psi4, default
symmetry c1  #important for SAPT in psi4, default
}

set PROPERTIES_ORIGIN ["COM"]
properties('MP2/aug-cc-pvtz', properties = ['dipole'])
--------------------------------------------------------------------------

    Molecular point group: c1
  Charge       = 0
  Multiplicity = 1
  Basis Set: AUG-CC-PVTZ
    Blend: AUG-CC-PVTZ
  Basis Set: (AUG-CC-PVTZ AUX)
    Blend: AUG-CC-PVTZ-JKFIT

    Orbital Energies [Eh]
    ---------------------

    Doubly Occupied:

       1A    -20.633849     2A    -20.570945     3A    -20.552424
       4A    -11.414910     5A    -11.347952     6A    -11.273814
       7A    -11.244152     8A    -11.219808     9A     -1.480182
      10A     -1.377448    11A     -1.354924    12A     -1.091619
      13A     -1.047001    14A     -0.910717    15A     -0.843061
      16A     -0.741155    17A     -0.720202    18A     -0.708113
      19A     -0.678914    20A     -0.648673    21A     -0.634840
      22A     -0.619691    23A     -0.599817    24A     -0.572511
      25A     -0.528144    26A     -0.517283    27A     -0.513211
      28A     -0.499999    29A     -0.485390    30A     -0.463075
      31A     -0.429696

  @DF-RHF Final Energy:  -418.75491473991912

   => Energetics <=

    Nuclear Repulsion Energy =            371.8455142371715283
    One-Electron Energy =               -1309.7538205709583963
    Two-Electron Energy =                 519.1533915938678092
    Total Energy =                       -418.7549147399190588
  Basis Set: (AUG-CC-PVTZ AUX)
    Blend: AUG-CC-PVTZ-RI
    Molecular point group: c1

    Geometry (in Angstrom), charge = 0, multiplicity = 1:

       Center              X                  Y                   Z               Mass
    ------------   -----------------  -----------------  -----------------  -----------------
         O            1.216638554635    -1.380573600415     0.789258708064    15.994914619570
         O           -2.852444445365    -0.075725600415    -0.284481291936    15.994914619570
         O           -1.250250445365     1.227549399585     0.639377708064    15.994914619570
         C            1.606728554635     0.550050399585    -0.593355291936    12.000000000000
         C            0.814821854635    -0.583701200415    -0.124651191936    12.000000000000
         C           -0.618642445365    -0.767481600415    -0.603179291936    12.000000000000
         C            2.962932554635     0.678040399585     0.080166708064    12.000000000000
         C           -1.564754445365     0.243102399585    -0.005487291936    12.000000000000
         H            1.713629554635     0.397994399585    -1.676688291936     1.007825032230
         H            1.012152554635     1.462366399585    -0.474274291936     1.007825032230
         H           -0.583101945365    -0.638884700415    -1.691992391936     1.007825032230
         H           -0.975208445365    -1.773595600415    -0.368508291936     1.007825032230
         H            3.544300554635    -0.237413600415    -0.041460291936     1.007825032230
         H            3.527111554635     1.510297399585    -0.347343291936     1.007825032230
         H            2.843428554635     0.853439399585     1.150725708064     1.007825032230
         H           -3.393287445365     0.627278399585     0.132906708064     1.007825032230

  Basis Set: AUG-CC-PVTZ
    Blend: AUG-CC-PVTZ
  Basis Set: (AUG-CC-PVTZ AUX)
    Blend: AUG-CC-PVTZ-JKFIT
	 Reference Energy          =    -418.7549147399191156 [Eh]
	 Singles Energy            =      -0.0000000000000000 [Eh]
	 Same-Spin Energy          =      -0.4100648719605955 [Eh]
	 Opposite-Spin Energy      =      -1.2903897527908068 [Eh]
	 Correlation Energy        =      -1.7004546247514023 [Eh]
	 Total Energy              =    -420.4553693646705028 [Eh]

	 ================> DF-SCS-MP2 Energies <==================
	-----------------------------------------------------------
	 SCS Same-Spin Scale       =       0.3333333333333333 [-]
	 SCS Opposite-Spin Scale   =       1.2000000000000000 [-]
	 SCS Same-Spin Energy      =      -0.1366882906535318 [Eh]
	 SCS Opposite-Spin Energy  =      -1.5484677033489682 [Eh]
	 SCS Correlation Energy    =      -1.6851559940025000 [Eh]
	 SCS Total Energy          =    -420.4400707339216297 [Eh]
	-----------------------------------------------------------

  Dipole Moment: [D]
     X:    -1.2781      Y:     0.9765      Z:    -2.6869     Total:     3.1315

*** Psi4 exiting successfully. Buy a developer a beer!
