                               Psi4 1.3.2 release

  ==> Input File <==

--------------------------------------------------------------------------
#psi4
#
memory 32 gb

molecule  {
0 1
  O        1.2197630    -1.3791890     0.7815710
  O       -2.8493200    -0.0743410    -0.2921690
  O       -1.2471260     1.2289340     0.6316900
  C        1.6098530     0.5514350    -0.6010430
  C        0.7991194    -0.5628667     0.0140285
  C       -0.6155180    -0.7660970    -0.6108670
  C        2.9660570     0.6794250     0.0724790
  C       -1.5616300     0.2444870    -0.0131750
  H        1.7475208     0.4479568    -1.6866300
  H        1.0152770     1.4637510    -0.4819620
  H       -0.6366420    -0.6467360    -1.7011060
  H       -0.9720840    -1.7722110    -0.3761960
  H        3.5474250    -0.2360290    -0.0491480
  H        3.5302360     1.5116820    -0.3550310
  H        2.8465530     0.8548240     1.1430380
  H       -3.3901630     0.6286630     0.1252190
units angstrom
no_reorient  #important for SAPT in psi4, default
symmetry c1  #important for SAPT in psi4, default
}

set PROPERTIES_ORIGIN ["COM"]
properties('MP2/aug-cc-pvtz', properties = ['dipole'])
--------------------------------------------------------------------------

    Molecular point group: c1
  Charge       = 0
  Multiplicity = 1
  Basis Set: AUG-CC-PVTZ
    Blend: AUG-CC-PVTZ
  Basis Set: (AUG-CC-PVTZ AUX)
    Blend: AUG-CC-PVTZ-JKFIT

    Orbital Energies [Eh]
    ---------------------

    Doubly Occupied:

       1A    -20.630480     2A    -20.568784     3A    -20.560073
       4A    -11.410030     5A    -11.343670     6A    -11.268515
       7A    -11.240070     8A    -11.216488     9A     -1.477491
      10A     -1.409496    11A     -1.374779    12A     -1.079523
      13A     -1.040080    14A     -0.897844    15A     -0.834591
      16A     -0.744161    17A     -0.718980    18A     -0.705219
      19A     -0.681736    20A     -0.648861    21A     -0.635447
      22A     -0.626709    23A     -0.596919    24A     -0.577549
      25A     -0.527593    26A     -0.525218    27A     -0.516194
      28A     -0.503052    29A     -0.490483    30A     -0.469103
      31A     -0.419161

  @DF-RHF Final Energy:  -418.76547044882977

   => Energetics <=

    Nuclear Repulsion Energy =            372.5226126420445780
    One-Electron Energy =               -1311.0995703154490002
    Two-Electron Energy =                 519.8114872245746483
    Total Energy =                       -418.7654704488297739
  Basis Set: (AUG-CC-PVTZ AUX)
    Blend: AUG-CC-PVTZ-RI
    Molecular point group: c1

    Geometry (in Angstrom), charge = 0, multiplicity = 1:

       Center              X                  Y                   Z               Mass
    ------------   -----------------  -----------------  -----------------  -----------------
         O            1.218810281633    -1.382926506927     0.774155388656    15.994914619570
         O           -2.850272718367    -0.078078506927    -0.299584611344    15.994914619570
         O           -1.248078718367     1.225196493073     0.624274388656    15.994914619570
         C            1.608900281633     0.547697493073    -0.608458611344    12.000000000000
         C            0.798166681633    -0.566604206927     0.006612888656    12.000000000000
         C           -0.616470718367    -0.769834506927    -0.618282611344    12.000000000000
         C            2.965104281633     0.675687493073     0.065063388656    12.000000000000
         C           -1.562582718367     0.240749493073    -0.020590611344    12.000000000000
         H            1.746568081633     0.444219293073    -1.694045611344     1.007825032230
         H            1.014324281633     1.460013493073    -0.489377611344     1.007825032230
         H           -0.637594718367    -0.650473506927    -1.708521611344     1.007825032230
         H           -0.973036718367    -1.775948506927    -0.383611611344     1.007825032230
         H            3.546472281633    -0.239766506927    -0.056563611344     1.007825032230
         H            3.529283281633     1.507944493073    -0.362446611344     1.007825032230
         H            2.845600281633     0.851086493073     1.135622388656     1.007825032230
         H           -3.391115718367     0.624925493073     0.117803388656     1.007825032230

  Basis Set: AUG-CC-PVTZ
    Blend: AUG-CC-PVTZ
  Basis Set: (AUG-CC-PVTZ AUX)
    Blend: AUG-CC-PVTZ-JKFIT
	 Reference Energy          =    -418.7654704488297739 [Eh]
	 Singles Energy            =      -0.0000000000000000 [Eh]
	 Same-Spin Energy          =      -0.4075700270498558 [Eh]
	 Opposite-Spin Energy      =      -1.2852288626072612 [Eh]
	 Correlation Energy        =      -1.6927988896571171 [Eh]
	 Total Energy              =    -420.4582693384869003 [Eh]

	 ================> DF-SCS-MP2 Energies <==================
	-----------------------------------------------------------
	 SCS Same-Spin Scale       =       0.3333333333333333 [-]
	 SCS Opposite-Spin Scale   =       1.2000000000000000 [-]
	 SCS Same-Spin Energy      =      -0.1358566756832852 [Eh]
	 SCS Opposite-Spin Energy  =      -1.5422746351287133 [Eh]
	 SCS Correlation Energy    =      -1.6781313108119986 [Eh]
	 SCS Total Energy          =    -420.4436017596417514 [Eh]
	-----------------------------------------------------------

  Dipole Moment: [D]
     X:    -1.2017      Y:     0.7443      Z:    -2.4610     Total:     2.8380

*** Psi4 exiting successfully. Buy a developer a beer!
