                               Psi4 1.3.2 release

  ==> Input File <==

--------------------------------------------------------------------------
#psi4
#
memory 32 gb

molecule  {
0 1
  O        1.2197630    -1.3791890     0.7815710
  O       -2.8339393    -0.1125025    -0.3155358
  O       -1.2063007     1.2179631     0.6271257
  C        1.6098530     0.5514350    -0.6010430
  C        0.7924890    -0.5949300    -0.0578730
  C       -0.6155180    -0.7660970    -0.6108670
  C        2.9660570     0.6794250     0.0724790
  C       -1.5616300     0.2444870    -0.0131750
  H        1.7167540     0.3993790    -1.6843760
  H        1.0152770     1.4637510    -0.4819620
  H       -0.6366420    -0.6467360    -1.7011060
  H       -0.9720840    -1.7722110    -0.3761960
  H        3.5474250    -0.2360290    -0.0491480
  H        3.5302360     1.5116820    -0.3550310
  H        2.8465530     0.8548240     1.1430380
  H       -3.3901630     0.6286630     0.1252190
units angstrom
no_reorient  #important for SAPT in psi4, default
symmetry c1  #important for SAPT in psi4, default
}

set PROPERTIES_ORIGIN ["COM"]
properties('MP2/aug-cc-pvtz', properties = ['dipole'])
--------------------------------------------------------------------------

    Molecular point group: c1
  Charge       = 0
  Multiplicity = 1
  Basis Set: AUG-CC-PVTZ
    Blend: AUG-CC-PVTZ
  Basis Set: (AUG-CC-PVTZ AUX)
    Blend: AUG-CC-PVTZ-JKFIT

    Orbital Energies [Eh]
    ---------------------

    Doubly Occupied:

       1A    -20.642277     2A    -20.573374     3A    -20.554359
       4A    -11.414091     5A    -11.341450     6A    -11.266749
       7A    -11.239436     8A    -11.215895     9A     -1.476057
      10A     -1.387168    11A     -1.379067    12A     -1.081848
      13A     -1.039451    14A     -0.898672    15A     -0.832169
      16A     -0.742047    17A     -0.717631    18A     -0.707144
      19A     -0.680308    20A     -0.646791    21A     -0.632411
      22A     -0.623762    23A     -0.598009    24A     -0.575093
      25A     -0.524386    26A     -0.517258    27A     -0.513734
      28A     -0.505150    29A     -0.490762    30A     -0.467881
      31A     -0.422048

  @DF-RHF Final Energy:  -418.76098042907290

   => Energetics <=

    Nuclear Repulsion Energy =            372.5817255662653338
    One-Electron Energy =               -1311.2724507764608006
    Two-Electron Energy =                 519.9297447811226220
    Total Energy =                       -418.7609804290729016
  Basis Set: (AUG-CC-PVTZ AUX)
    Blend: AUG-CC-PVTZ-RI
    Molecular point group: c1

    Geometry (in Angstrom), charge = 0, multiplicity = 1:

       Center              X                  Y                   Z               Mass
    ------------   -----------------  -----------------  -----------------  -----------------
         O            1.212016176814    -1.372417123233     0.785420635026    15.994914619570
         O           -2.841686123186    -0.105730623233    -0.311686164974    15.994914619570
         O           -1.214047523186     1.224734976767     0.630975335026    15.994914619570
         C            1.602106176814     0.558206876767    -0.597193364974    12.000000000000
         C            0.784742176814    -0.588158123233    -0.054023364974    12.000000000000
         C           -0.623264823186    -0.759325123233    -0.607017364974    12.000000000000
         C            2.958310176814     0.686196876767     0.076328635026    12.000000000000
         C           -1.569376823186     0.251258876767    -0.009325364974    12.000000000000
         H            1.709007176814     0.406150876767    -1.680526364974     1.007825032230
         H            1.007530176814     1.470522876767    -0.478112364974     1.007825032230
         H           -0.644388823186    -0.639964123233    -1.697256364974     1.007825032230
         H           -0.979830823186    -1.765439123233    -0.372346364974     1.007825032230
         H            3.539678176814    -0.229257123233    -0.045298364974     1.007825032230
         H            3.522489176814     1.518453876767    -0.351181364974     1.007825032230
         H            2.838806176814     0.861595876767     1.146887635026     1.007825032230
         H           -3.397909823186     0.635434876767     0.129068635026     1.007825032230

  Basis Set: AUG-CC-PVTZ
    Blend: AUG-CC-PVTZ
  Basis Set: (AUG-CC-PVTZ AUX)
    Blend: AUG-CC-PVTZ-JKFIT
	 Reference Energy          =    -418.7609804290729016 [Eh]
	 Singles Energy            =      -0.0000000000000000 [Eh]
	 Same-Spin Energy          =      -0.4092630578212705 [Eh]
	 Opposite-Spin Energy      =      -1.2887907970151140 [Eh]
	 Correlation Energy        =      -1.6980538548363846 [Eh]
	 Total Energy              =    -420.4590342839092614 [Eh]

	 ================> DF-SCS-MP2 Energies <==================
	-----------------------------------------------------------
	 SCS Same-Spin Scale       =       0.3333333333333333 [-]
	 SCS Opposite-Spin Scale   =       1.2000000000000000 [-]
	 SCS Same-Spin Energy      =      -0.1364210192737568 [Eh]
	 SCS Opposite-Spin Energy  =      -1.5465489564181367 [Eh]
	 SCS Correlation Energy    =      -1.6829699756918934 [Eh]
	 SCS Total Energy          =    -420.4439504047647915 [Eh]
	-----------------------------------------------------------

  Dipole Moment: [D]
     X:    -1.5656      Y:     0.8869      Z:    -2.5051     Total:     3.0844

*** Psi4 exiting successfully. Buy a developer a beer!
