                               Psi4 1.3.2 release

  ==> Input File <==

--------------------------------------------------------------------------
#psi4
#
memory 32 gb

molecule  {
0 1
  O        1.2197630    -1.3791890     0.7815710
  O       -2.8493200    -0.0743410    -0.2921690
  O       -1.2471260     1.2289340     0.6316900
  C        1.6098530     0.5514350    -0.6010430
  C        0.7576288    -0.5309444    -0.1263610
  C       -0.6155180    -0.7660970    -0.6108670
  C        2.9660570     0.6794250     0.0724790
  C       -1.5616300     0.2444870    -0.0131750
  H        1.7167540     0.3993790    -1.6843760
  H        1.0152770     1.4637510    -0.4819620
  H       -0.6366420    -0.6467360    -1.7011060
  H       -0.9720840    -1.7722110    -0.3761960
  H        3.5474250    -0.2360290    -0.0491480
  H        3.5302360     1.5116820    -0.3550310
  H        2.8465530     0.8548240     1.1430380
  H       -3.3901630     0.6286630     0.1252190
units angstrom
no_reorient  #important for SAPT in psi4, default
symmetry c1  #important for SAPT in psi4, default
}

set PROPERTIES_ORIGIN ["COM"]
properties('MP2/aug-cc-pvtz', properties = ['dipole'])
--------------------------------------------------------------------------

    Molecular point group: c1
  Charge       = 0
  Multiplicity = 1
  Basis Set: AUG-CC-PVTZ
    Blend: AUG-CC-PVTZ
  Basis Set: (AUG-CC-PVTZ AUX)
    Blend: AUG-CC-PVTZ-JKFIT

    Orbital Energies [Eh]
    ---------------------

    Doubly Occupied:

       1A    -20.635858     2A    -20.574055     3A    -20.548050
       4A    -11.417549     5A    -11.351691     6A    -11.276951
       7A    -11.245678     8A    -11.219996     9A     -1.482836
      10A     -1.380348    11A     -1.327513    12A     -1.098954
      13A     -1.051483    14A     -0.913879    15A     -0.847625
      16A     -0.744179    17A     -0.721495    18A     -0.712020
      19A     -0.681772    20A     -0.649324    21A     -0.635694
      22A     -0.616751    23A     -0.602058    24A     -0.565922
      25A     -0.530471    26A     -0.513585    27A     -0.511822
      28A     -0.500482    29A     -0.483855    30A     -0.451795
      31A     -0.433113

  @DF-RHF Final Energy:  -418.74205196664309

   => Energetics <=

    Nuclear Repulsion Energy =            372.0797826294555648
    One-Electron Energy =               -1310.1900612599654323
    Two-Electron Energy =                 519.3682266638667215
    Total Energy =                       -418.7420519666430891
  Basis Set: (AUG-CC-PVTZ AUX)
    Blend: AUG-CC-PVTZ-RI
    Molecular point group: c1

    Geometry (in Angstrom), charge = 0, multiplicity = 1:

       Center              X                  Y                   Z               Mass
    ------------   -----------------  -----------------  -----------------  -----------------
         O            1.223367859019    -1.385805587699     0.788652940282    15.994914619570
         O           -2.845715140981    -0.080957587699    -0.285087059718    15.994914619570
         O           -1.243521140981     1.222317412301     0.638771940282    15.994914619570
         C            1.613457859019     0.544818412301    -0.593961059718    12.000000000000
         C            0.761233659019    -0.537560987699    -0.119279059718    12.000000000000
         C           -0.611913140981    -0.772713587699    -0.603785059718    12.000000000000
         C            2.969661859019     0.672808412301     0.079560940282    12.000000000000
         C           -1.558025140981     0.237870412301    -0.006093059718    12.000000000000
         H            1.720358859019     0.392762412301    -1.677294059718     1.007825032230
         H            1.018881859019     1.457134412301    -0.474880059718     1.007825032230
         H           -0.633037140981    -0.653352587699    -1.694024059718     1.007825032230
         H           -0.968479140981    -1.778827587699    -0.369114059718     1.007825032230
         H            3.551029859019    -0.242645587699    -0.042066059718     1.007825032230
         H            3.533840859019     1.505065412301    -0.347949059718     1.007825032230
         H            2.850157859019     0.848207412301     1.150119940282     1.007825032230
         H           -3.386558140981     0.622046412301     0.132300940282     1.007825032230

  Basis Set: AUG-CC-PVTZ
    Blend: AUG-CC-PVTZ
  Basis Set: (AUG-CC-PVTZ AUX)
    Blend: AUG-CC-PVTZ-JKFIT
	 Reference Energy          =    -418.7420519666430891 [Eh]
	 Singles Energy            =      -0.0000000000000000 [Eh]
	 Same-Spin Energy          =      -0.4118274939692000 [Eh]
	 Opposite-Spin Energy      =      -1.2937452150936362 [Eh]
	 Correlation Energy        =      -1.7055727090628361 [Eh]
	 Total Energy              =    -420.4476246757059243 [Eh]

	 ================> DF-SCS-MP2 Energies <==================
	-----------------------------------------------------------
	 SCS Same-Spin Scale       =       0.3333333333333333 [-]
	 SCS Opposite-Spin Scale   =       1.2000000000000000 [-]
	 SCS Same-Spin Energy      =      -0.1372758313230666 [Eh]
	 SCS Opposite-Spin Energy  =      -1.5524942581123633 [Eh]
	 SCS Correlation Energy    =      -1.6897700894354299 [Eh]
	 SCS Total Energy          =    -420.4318220560785448 [Eh]
	-----------------------------------------------------------

  Dipole Moment: [D]
     X:    -1.4859      Y:     1.0424      Z:    -2.7841     Total:     3.3235

*** Psi4 exiting successfully. Buy a developer a beer!
