                               Psi4 1.3.2 release

  ==> Input File <==

--------------------------------------------------------------------------
#psi4
#
memory 32 gb

molecule  {
0 1
  O        1.2197630    -1.3791890     0.7815710
  O       -2.8493200    -0.0743410    -0.2921690
  O       -1.2471260     1.2289340     0.6316900
  C        1.6098530     0.5514350    -0.6010430
  C        0.7924890    -0.5949300    -0.0578730
  C       -0.6155180    -0.7660970    -0.6108670
  C        2.9660570     0.6794250     0.0724790
  C       -1.5645424     0.2488187    -0.0252540
  H        1.7167540     0.3993790    -1.6843760
  H        1.0152770     1.4637510    -0.4819620
  H       -0.6430164    -0.6396565    -1.7001654
  H       -0.9720840    -1.7722110    -0.3761960
  H        3.5474250    -0.2360290    -0.0491480
  H        3.5302360     1.5116820    -0.3550310
  H        2.8465530     0.8548240     1.1430380
  H       -3.3901630     0.6286630     0.1252190
units angstrom
no_reorient  #important for SAPT in psi4, default
symmetry c1  #important for SAPT in psi4, default
}

set PROPERTIES_ORIGIN ["COM"]
properties('MP2/aug-cc-pvtz', properties = ['dipole'])
--------------------------------------------------------------------------

    Molecular point group: c1
  Charge       = 0
  Multiplicity = 1
  Basis Set: AUG-CC-PVTZ
    Blend: AUG-CC-PVTZ
  Basis Set: (AUG-CC-PVTZ AUX)
    Blend: AUG-CC-PVTZ-JKFIT

    Orbital Energies [Eh]
    ---------------------

    Doubly Occupied:

       1A    -20.634103     2A    -20.569414     3A    -20.556756
       4A    -11.413534     5A    -11.344159     6A    -11.271334
       7A    -11.241119     8A    -11.217011     9A     -1.480423
      10A     -1.388969    11A     -1.374637    12A     -1.085039
      13A     -1.041997    14A     -0.901935    15A     -0.840696
      16A     -0.742895    17A     -0.719946    18A     -0.707158
      19A     -0.681404    20A     -0.648600    21A     -0.632072
      22A     -0.626451    23A     -0.597486    24A     -0.577737
      25A     -0.526052    26A     -0.518220    27A     -0.514998
      28A     -0.502130    29A     -0.490177    30A     -0.468427
      31A     -0.424820

  @DF-RHF Final Energy:  -418.76756968173447

   => Energetics <=

    Nuclear Repulsion Energy =            372.2245874715607101
    One-Electron Energy =               -1310.5049143504163567
    Two-Electron Energy =                 519.5127571971212319
    Total Energy =                       -418.7675696817344715
  Basis Set: (AUG-CC-PVTZ AUX)
    Blend: AUG-CC-PVTZ-RI
    Molecular point group: c1

    Geometry (in Angstrom), charge = 0, multiplicity = 1:

       Center              X                  Y                   Z               Mass
    ------------   -----------------  -----------------  -----------------  -----------------
         O            1.220119621647    -1.379698494873     0.782811738440    15.994914619570
         O           -2.848963378353    -0.074850494873    -0.290928261560    15.994914619570
         O           -1.246769378353     1.228424505127     0.632930738440    15.994914619570
         C            1.610209621647     0.550925505127    -0.599802261560    12.000000000000
         C            0.792845621647    -0.595439494873    -0.056632261560    12.000000000000
         C           -0.615161378353    -0.766606494873    -0.609626261560    12.000000000000
         C            2.966413621647     0.678915505127     0.073719738440    12.000000000000
         C           -1.564185778353     0.248309205127    -0.024013261560    12.000000000000
         H            1.717110621647     0.398869505127    -1.683135261560     1.007825032230
         H            1.015633621647     1.463241505127    -0.480721261560     1.007825032230
         H           -0.642659778353    -0.640165994873    -1.698924661560     1.007825032230
         H           -0.971727378353    -1.772720494873    -0.374955261560     1.007825032230
         H            3.547781621647    -0.236538494873    -0.047907261560     1.007825032230
         H            3.530592621647     1.511172505127    -0.353790261560     1.007825032230
         H            2.846909621647     0.854314505127     1.144278738440     1.007825032230
         H           -3.389806378353     0.628153505127     0.126459738440     1.007825032230

  Basis Set: AUG-CC-PVTZ
    Blend: AUG-CC-PVTZ
  Basis Set: (AUG-CC-PVTZ AUX)
    Blend: AUG-CC-PVTZ-JKFIT
	 Reference Energy          =    -418.7675696817344715 [Eh]
	 Singles Energy            =      -0.0000000000000000 [Eh]
	 Same-Spin Energy          =      -0.4082940078288979 [Eh]
	 Opposite-Spin Energy      =      -1.2866490348345949 [Eh]
	 Correlation Energy        =      -1.6949430426634928 [Eh]
	 Total Energy              =    -420.4625127243979819 [Eh]

	 ================> DF-SCS-MP2 Energies <==================
	-----------------------------------------------------------
	 SCS Same-Spin Scale       =       0.3333333333333333 [-]
	 SCS Opposite-Spin Scale   =       1.2000000000000000 [-]
	 SCS Same-Spin Energy      =      -0.1360980026096326 [Eh]
	 SCS Opposite-Spin Energy  =      -1.5439788418015139 [Eh]
	 SCS Correlation Energy    =      -1.6800768444111465 [Eh]
	 SCS Total Energy          =    -420.4476465261456042 [Eh]
	-----------------------------------------------------------

  Dipole Moment: [D]
     X:    -1.3826      Y:     0.7738      Z:    -2.5798     Total:     3.0275

*** Psi4 exiting successfully. Buy a developer a beer!
