                               Psi4 1.3.2 release

  ==> Input File <==

--------------------------------------------------------------------------
#psi4
#
memory 32 gb

molecule  {
0 1
  O        1.2197630    -1.3791890     0.7815710
  O       -2.8493200    -0.0743410    -0.2921690
  O       -1.2471260     1.2289340     0.6316900
  C        1.6098530     0.5514350    -0.6010430
  C        0.7924890    -0.5949300    -0.0578730
  C       -0.6155180    -0.7660970    -0.6108670
  C        2.9660570     0.6794250     0.0724790
  C       -1.5580281     0.2348963    -0.0190901
  H        1.7167540     0.3993790    -1.6843760
  H        1.0152770     1.4637510    -0.4819620
  H       -0.6366420    -0.6467360    -1.7011060
  H       -0.9720840    -1.7722110    -0.3761960
  H        3.5474250    -0.2360290    -0.0491480
  H        3.5302360     1.5116820    -0.3550310
  H        2.8465530     0.8548240     1.1430380
  H       -3.3972645     0.6248429     0.1223634
units angstrom
no_reorient  #important for SAPT in psi4, default
symmetry c1  #important for SAPT in psi4, default
}

set PROPERTIES_ORIGIN ["COM"]
properties('MP2/aug-cc-pvtz', properties = ['dipole'])
--------------------------------------------------------------------------

    Molecular point group: c1
  Charge       = 0
  Multiplicity = 1
  Basis Set: AUG-CC-PVTZ
    Blend: AUG-CC-PVTZ
  Basis Set: (AUG-CC-PVTZ AUX)
    Blend: AUG-CC-PVTZ-JKFIT

    Orbital Energies [Eh]
    ---------------------

    Doubly Occupied:

       1A    -20.632756     2A    -20.568793     3A    -20.557301
       4A    -11.414303     5A    -11.344798     6A    -11.271960
       7A    -11.241422     8A    -11.217227     9A     -1.476950
      10A     -1.389427    11A     -1.370421    12A     -1.087188
      13A     -1.043483    14A     -0.902676    15A     -0.840891
      16A     -0.742843    17A     -0.719184    18A     -0.706672
      19A     -0.681439    20A     -0.648268    21A     -0.631415
      22A     -0.626629    23A     -0.597106    24A     -0.577451
      25A     -0.526378    26A     -0.518415    27A     -0.515276
      28A     -0.500847    29A     -0.489399    30A     -0.468862
      31A     -0.425396

  @DF-RHF Final Energy:  -418.76667791579303

   => Energetics <=

    Nuclear Repulsion Energy =            372.2140384443370067
    One-Electron Energy =               -1310.4910858416753854
    Two-Electron Energy =                 519.5103694815453537
    Total Energy =                       -418.7666779157930250
  Basis Set: (AUG-CC-PVTZ AUX)
    Blend: AUG-CC-PVTZ-RI
    Molecular point group: c1

    Geometry (in Angstrom), charge = 0, multiplicity = 1:

       Center              X                  Y                   Z               Mass
    ------------   -----------------  -----------------  -----------------  -----------------
         O            1.219452318047    -1.378164175488     0.782207322241    15.994914619570
         O           -2.849630681953    -0.073316175488    -0.291532677759    15.994914619570
         O           -1.247436681953     1.229958824512     0.632326322241    15.994914619570
         C            1.609542318047     0.552459824512    -0.600406677759    12.000000000000
         C            0.792178318047    -0.593905175488    -0.057236677759    12.000000000000
         C           -0.615828681953    -0.765072175488    -0.610230677759    12.000000000000
         C            2.965746318047     0.680449824512     0.073115322241    12.000000000000
         C           -1.558338781953     0.235921124512    -0.018453777759    12.000000000000
         H            1.716443318047     0.400403824512    -1.683739677759     1.007825032230
         H            1.014966318047     1.464775824512    -0.481325677759     1.007825032230
         H           -0.636952681953    -0.645711175488    -1.700469677759     1.007825032230
         H           -0.972394681953    -1.771186175488    -0.375559677759     1.007825032230
         H            3.547114318047    -0.235004175488    -0.048511677759     1.007825032230
         H            3.529925318047     1.512706824512    -0.354394677759     1.007825032230
         H            2.846242318047     0.855848824512     1.143674322241     1.007825032230
         H           -3.397575181953     0.625867724512     0.122999722241     1.007825032230

  Basis Set: AUG-CC-PVTZ
    Blend: AUG-CC-PVTZ
  Basis Set: (AUG-CC-PVTZ AUX)
    Blend: AUG-CC-PVTZ-JKFIT
	 Reference Energy          =    -418.7666779157930250 [Eh]
	 Singles Energy            =      -0.0000000000000000 [Eh]
	 Same-Spin Energy          =      -0.4084777658835406 [Eh]
	 Opposite-Spin Energy      =      -1.2870477881185796 [Eh]
	 Correlation Energy        =      -1.6955255540021201 [Eh]
	 Total Energy              =    -420.4622034697951563 [Eh]

	 ================> DF-SCS-MP2 Energies <==================
	-----------------------------------------------------------
	 SCS Same-Spin Scale       =       0.3333333333333333 [-]
	 SCS Opposite-Spin Scale   =       1.2000000000000000 [-]
	 SCS Same-Spin Energy      =      -0.1361592552945135 [Eh]
	 SCS Opposite-Spin Energy  =      -1.5444573457422954 [Eh]
	 SCS Correlation Energy    =      -1.6806166010368089 [Eh]
	 SCS Total Energy          =    -420.4472945168298565 [Eh]
	-----------------------------------------------------------

  Dipole Moment: [D]
     X:    -1.3385      Y:     0.7258      Z:    -2.5922     Total:     3.0063

*** Psi4 exiting successfully. Buy a developer a beer!
