                               Psi4 1.3.2 release

  ==> Input File <==

--------------------------------------------------------------------------
#psi4
#
memory 32 gb

molecule  {
0 1
  O        1.2197630    -1.3791890     0.7815710
  O       -2.8493200    -0.0743410    -0.2921690
  O       -1.2471260     1.2289340     0.6316900
  C        1.6098530     0.5514350    -0.6010430
  C        0.7966177    -0.6050622    -0.0654087
  C       -0.6155180    -0.7660970    -0.6108670
  C        2.9660570     0.6794250     0.0724790
  C       -1.5714480     0.2394485    -0.0203420
  H        1.7167540     0.3993790    -1.6843760
  H        1.0152770     1.4637510    -0.4819620
  H       -0.6366420    -0.6467360    -1.7011060
  H       -0.9720840    -1.7722110    -0.3761960
  H        3.5474250    -0.2360290    -0.0491480
  H        3.5302360     1.5116820    -0.3550310
  H        2.8465530     0.8548240     1.1430380
  H       -3.3901630     0.6286630     0.1252190
units angstrom
no_reorient  #important for SAPT in psi4, default
symmetry c1  #important for SAPT in psi4, default
}

set PROPERTIES_ORIGIN ["COM"]
properties('MP2/aug-cc-pvtz', properties = ['dipole'])
--------------------------------------------------------------------------

    Molecular point group: c1
  Charge       = 0
  Multiplicity = 1
  Basis Set: AUG-CC-PVTZ
    Blend: AUG-CC-PVTZ
  Basis Set: (AUG-CC-PVTZ AUX)
    Blend: AUG-CC-PVTZ-JKFIT

    Orbital Energies [Eh]
    ---------------------

    Doubly Occupied:

       1A    -20.636427     2A    -20.567711     3A    -20.556851
       4A    -11.414116     5A    -11.343765     6A    -11.271116
       7A    -11.240658     8A    -11.216653     9A     -1.482520
      10A     -1.390550    11A     -1.371913    12A     -1.084337
      13A     -1.041499    14A     -0.902093    15A     -0.842834
      16A     -0.742934    17A     -0.720144    18A     -0.707369
      19A     -0.681475    20A     -0.649274    21A     -0.631478
      22A     -0.627264    23A     -0.595893    24A     -0.578164
      25A     -0.525884    26A     -0.518372    27A     -0.514692
      28A     -0.500607    29A     -0.489287    30A     -0.467891
      31A     -0.424232

  @DF-RHF Final Energy:  -418.76737132090602

   => Energetics <=

    Nuclear Repulsion Energy =            372.1251423504687068
    One-Electron Energy =               -1310.3090267631832830
    Two-Electron Energy =                 519.4165130918086106
    Total Energy =                       -418.7673713209060224
  Basis Set: (AUG-CC-PVTZ AUX)
    Blend: AUG-CC-PVTZ-RI
    Molecular point group: c1

    Geometry (in Angstrom), charge = 0, multiplicity = 1:

       Center              X                  Y                   Z               Mass
    ------------   -----------------  -----------------  -----------------  -----------------
         O            1.220351410839    -1.377620345656     0.783091213687    15.994914619570
         O           -2.848731589161    -0.072772345656    -0.290648786313    15.994914619570
         O           -1.246537589161     1.230502654344     0.633210213687    15.994914619570
         C            1.610441410839     0.553003654344    -0.599522786313    12.000000000000
         C            0.797206110839    -0.603493545656    -0.063888486313    12.000000000000
         C           -0.614929589161    -0.764528345656    -0.609346786313    12.000000000000
         C            2.966645410839     0.680993654344     0.073999213687    12.000000000000
         C           -1.570859589161     0.241017154344    -0.018821786313    12.000000000000
         H            1.717342410839     0.400947654344    -1.682855786313     1.007825032230
         H            1.015865410839     1.465319654344    -0.480441786313     1.007825032230
         H           -0.636053589161    -0.645167345656    -1.699585786313     1.007825032230
         H           -0.971495589161    -1.770642345656    -0.374675786313     1.007825032230
         H            3.548013410839    -0.234460345656    -0.047627786313     1.007825032230
         H            3.530824410839     1.513250654344    -0.353510786313     1.007825032230
         H            2.847141410839     0.856392654344     1.144558213687     1.007825032230
         H           -3.389574589161     0.630231654344     0.126739213687     1.007825032230

  Basis Set: AUG-CC-PVTZ
    Blend: AUG-CC-PVTZ
  Basis Set: (AUG-CC-PVTZ AUX)
    Blend: AUG-CC-PVTZ-JKFIT
	 Reference Energy          =    -418.7673713209060224 [Eh]
	 Singles Energy            =      -0.0000000000000000 [Eh]
	 Same-Spin Energy          =      -0.4082749273006430 [Eh]
	 Opposite-Spin Energy      =      -1.2866015255497820 [Eh]
	 Correlation Energy        =      -1.6948764528504250 [Eh]
	 Total Energy              =    -420.4622477737564736 [Eh]

	 ================> DF-SCS-MP2 Energies <==================
	-----------------------------------------------------------
	 SCS Same-Spin Scale       =       0.3333333333333333 [-]
	 SCS Opposite-Spin Scale   =       1.2000000000000000 [-]
	 SCS Same-Spin Energy      =      -0.1360916424335477 [Eh]
	 SCS Opposite-Spin Energy  =      -1.5439218306597384 [Eh]
	 SCS Correlation Energy    =      -1.6800134730932861 [Eh]
	 SCS Total Energy          =    -420.4473847939993334 [Eh]
	-----------------------------------------------------------

  Dipole Moment: [D]
     X:    -1.4419      Y:     0.7230      Z:    -2.5884     Total:     3.0498

*** Psi4 exiting successfully. Buy a developer a beer!
