                               Psi4 1.3.2 release

  ==> Input File <==

--------------------------------------------------------------------------
#psi4
#
memory 32 gb

molecule  {
0 1
  O        1.2197630    -1.3791890     0.7815710
  O       -2.8493200    -0.0743410    -0.2921690
  O       -1.2471260     1.2289340     0.6316900
  C        1.6098530     0.5514350    -0.6010430
  C        0.7916115    -0.6198054    -0.0485776
  C       -0.6155180    -0.7660970    -0.6108670
  C        2.9660570     0.6794250     0.0724790
  C       -1.5616300     0.2444870    -0.0131750
  H        1.7167540     0.3993790    -1.6843760
  H        1.0152770     1.4637510    -0.4819620
  H       -0.6366420    -0.6467360    -1.7011060
  H       -0.9555155    -1.7758693    -0.3674810
  H        3.5474250    -0.2360290    -0.0491480
  H        3.5302360     1.5116820    -0.3550310
  H        2.8465530     0.8548240     1.1430380
  H       -3.3901630     0.6286630     0.1252190
units angstrom
no_reorient  #important for SAPT in psi4, default
symmetry c1  #important for SAPT in psi4, default
}

set PROPERTIES_ORIGIN ["COM"]
properties('MP2/aug-cc-pvtz', properties = ['dipole'])
--------------------------------------------------------------------------

    Molecular point group: c1
  Charge       = 0
  Multiplicity = 1
  Basis Set: AUG-CC-PVTZ
    Blend: AUG-CC-PVTZ
  Basis Set: (AUG-CC-PVTZ AUX)
    Blend: AUG-CC-PVTZ-JKFIT

    Orbital Energies [Eh]
    ---------------------

    Doubly Occupied:

       1A    -20.632763     2A    -20.570207     3A    -20.558647
       4A    -11.413451     5A    -11.342003     6A    -11.270274
       7A    -11.239730     8A    -11.215935     9A     -1.479340
      10A     -1.403891    11A     -1.376112    12A     -1.082654
      13A     -1.039235    14A     -0.897876    15A     -0.839259
      16A     -0.742635    17A     -0.719986    18A     -0.707418
      19A     -0.682294    20A     -0.647924    21A     -0.632193
      22A     -0.628640    23A     -0.598114    24A     -0.578886
      25A     -0.526223    26A     -0.523001    27A     -0.515429
      28A     -0.503165    29A     -0.491750    30A     -0.469809
      31A     -0.420247

  @DF-RHF Final Energy:  -418.76915862952757

   => Energetics <=

    Nuclear Repulsion Energy =            372.3031717176165216
    One-Electron Energy =               -1310.6464763013518677
    Two-Electron Energy =                 519.5741459542077791
    Total Energy =                       -418.7691586295275101
  Basis Set: (AUG-CC-PVTZ AUX)
    Blend: AUG-CC-PVTZ-RI
    Molecular point group: c1

    Geometry (in Angstrom), charge = 0, multiplicity = 1:

       Center              X                  Y                   Z               Mass
    ------------   -----------------  -----------------  -----------------  -----------------
         O            1.219709950669    -1.376585049871     0.780533978126    15.994914619570
         O           -2.849373049331    -0.071737049871    -0.293206021874    15.994914619570
         O           -1.247179049331     1.231537950129     0.630652978126    15.994914619570
         C            1.609799950669     0.554038950129    -0.602080021874    12.000000000000
         C            0.791558450669    -0.617201449871    -0.049614621874    12.000000000000
         C           -0.615571049331    -0.763493049871    -0.611904021874    12.000000000000
         C            2.966003950669     0.682028950129     0.071441978126    12.000000000000
         C           -1.561683049331     0.247090950129    -0.014212021874    12.000000000000
         H            1.716700950669     0.401982950129    -1.685413021874     1.007825032230
         H            1.015223950669     1.466354950129    -0.482999021874     1.007825032230
         H           -0.636695049331    -0.644132049871    -1.702143021874     1.007825032230
         H           -0.955568549331    -1.773265349871    -0.368518021874     1.007825032230
         H            3.547371950669    -0.233425049871    -0.050185021874     1.007825032230
         H            3.530182950669     1.514285950129    -0.356068021874     1.007825032230
         H            2.846499950669     0.857427950129     1.142000978126     1.007825032230
         H           -3.390216049331     0.631266950129     0.124181978126     1.007825032230

  Basis Set: AUG-CC-PVTZ
    Blend: AUG-CC-PVTZ
  Basis Set: (AUG-CC-PVTZ AUX)
    Blend: AUG-CC-PVTZ-JKFIT
	 Reference Energy          =    -418.7691586295275670 [Eh]
	 Singles Energy            =      -0.0000000000000000 [Eh]
	 Same-Spin Energy          =      -0.4076004794505779 [Eh]
	 Opposite-Spin Energy      =      -1.2853222564549815 [Eh]
	 Correlation Energy        =      -1.6929227359055594 [Eh]
	 Total Energy              =    -420.4620813654331073 [Eh]

	 ================> DF-SCS-MP2 Energies <==================
	-----------------------------------------------------------
	 SCS Same-Spin Scale       =       0.3333333333333333 [-]
	 SCS Opposite-Spin Scale   =       1.2000000000000000 [-]
	 SCS Same-Spin Energy      =      -0.1358668264835259 [Eh]
	 SCS Opposite-Spin Energy  =      -1.5423867077459779 [Eh]
	 SCS Correlation Energy    =      -1.6782535342295037 [Eh]
	 SCS Total Energy          =    -420.4474121637570647 [Eh]
	-----------------------------------------------------------

  Dipole Moment: [D]
     X:    -1.3677      Y:     0.6887      Z:    -2.4890     Total:     2.9223

*** Psi4 exiting successfully. Buy a developer a beer!
