                               Psi4 1.4a3.dev225

  ==> Input File <==

--------------------------------------------------------------------------
#psi4
#
memory 32 gb

molecule  {
0 1
  O        1.1896460     1.3864710    -0.7896670
  O       -2.9164350     0.0620530     0.2465870
  O       -1.2994600    -1.1722570    -0.7513140
  C        1.5277270    -0.5390120     0.6173550
  C        0.7330570     0.6116870     0.0446410
  C       -0.6915030     0.7929470     0.5540020
  C        2.9119880    -0.6669770    -0.0005940
  C       -1.6068782    -0.2237900    -0.0683922
  H        1.5906630    -0.3916430     1.7048170
  H        0.9378800    -1.4511620     0.4690430
  H       -0.7449460     0.6872940     1.6445860
  H       -1.0362610     1.7983420     0.2961770
  H        3.4930330     0.2441750     0.1549910
  H        3.4532110    -1.5066350     0.4428820
  H        2.8367130    -0.8315610    -1.0772290
  H       -3.4525110    -0.6329900    -0.1896390
units angstrom
no_reorient  #important for SAPT in psi4, default
symmetry c1  #important for SAPT in psi4, default
}

set PROPERTIES_ORIGIN ["COM"]
properties('MP2/aug-cc-pvtz', properties = ['dipole'])
--------------------------------------------------------------------------

    Molecular point group: c1
  Charge       = 0
  Multiplicity = 1
  Basis Set: AUG-CC-PVTZ
    Blend: AUG-CC-PVTZ
  Basis Set: (AUG-CC-PVTZ AUX)
    Blend: AUG-CC-PVTZ-JKFIT

    Orbital Energies [Eh]
    ---------------------

    Doubly Occupied:

       1A    -20.627148     2A    -20.573926     3A    -20.557515
       4A    -11.413467     5A    -11.345032     6A    -11.272382
       7A    -11.243139     8A    -11.218392     9A     -1.474190
      10A     -1.388806    11A     -1.377137    12A     -1.086411
      13A     -1.042723    14A     -0.901044    15A     -0.835586
      16A     -0.742242    17A     -0.718802    18A     -0.706442
      19A     -0.679707    20A     -0.648082    21A     -0.632273
      22A     -0.625007    23A     -0.601603    24A     -0.575739
      25A     -0.526549    26A     -0.518730    27A     -0.516490
      28A     -0.505232    29A     -0.491733    30A     -0.471145
      31A     -0.425061

  @DF-RHF Final Energy:  -418.76716579488794

   => Energetics <=

    Nuclear Repulsion Energy =            371.9419221883913451
    One-Electron Energy =               -1309.9347074631698433
    Two-Electron Energy =                 519.2256194798906108
    Total Energy =                       -418.7671657948878874
  Basis Set: (AUG-CC-PVTZ AUX)
    Blend: AUG-CC-PVTZ-RI
    Molecular point group: c1

    Geometry (in Angstrom), charge = 0, multiplicity = 1:

       Center              X                  Y                   Z               Mass
    ------------   -----------------  -----------------  -----------------  -----------------
         O            1.248059563463     1.369093279580    -0.759791350623    15.994914619570
         O           -2.858021436537     0.044675279580     0.276462649377    15.994914619570
         O           -1.241046436537    -1.189634720420    -0.721438350623    15.994914619570
         C            1.586140563463    -0.556389720420     0.647230649377    12.000000000000
         C            0.791470563463     0.594309279580     0.074516649377    12.000000000000
         C           -0.633089436537     0.775569279580     0.583877649377    12.000000000000
         C            2.970401563463    -0.684354720420     0.029281649377    12.000000000000
         C           -1.548464636537    -0.241167720420    -0.038516550623    12.000000000000
         H            1.649076563463    -0.409020720420     1.734692649377     1.007825032230
         H            0.996293563463    -1.468539720420     0.498918649377     1.007825032230
         H           -0.686532436537     0.669916279580     1.674461649377     1.007825032230
         H           -0.977847436537     1.780964279580     0.326052649377     1.007825032230
         H            3.551446563463     0.226797279580     0.184866649377     1.007825032230
         H            3.511624563463    -1.524012720420     0.472757649377     1.007825032230
         H            2.895126563463    -0.848938720420    -1.047353350623     1.007825032230
         H           -3.394097436537    -0.650367720420    -0.159763350623     1.007825032230

  Basis Set: AUG-CC-PVTZ
    Blend: AUG-CC-PVTZ
  Basis Set: (AUG-CC-PVTZ AUX)
    Blend: AUG-CC-PVTZ-JKFIT
	 Reference Energy          =    -418.7671657948879442 [Eh]
	 Singles Energy            =      -0.0000000000000000 [Eh]
	 Same-Spin Energy          =      -0.4081857625261879 [Eh]
	 Opposite-Spin Energy      =      -1.2868524712344700 [Eh]
	 Correlation Energy        =      -1.6950382337606578 [Eh]
	 Total Energy              =    -420.4622040286486140 [Eh]

	 ================> DF-SCS-MP2 Energies <==================
	-----------------------------------------------------------
	 SCS Same-Spin Scale       =       0.3333333333333333 [-]
	 SCS Opposite-Spin Scale   =       1.2000000000000000 [-]
	 SCS Same-Spin Energy      =      -0.1360619208420626 [Eh]
	 SCS Opposite-Spin Energy  =      -1.5442229654813640 [Eh]
	 SCS Correlation Energy    =      -1.6802848863234265 [Eh]
	 SCS Total Energy          =    -420.4474506812113646 [Eh]
	-----------------------------------------------------------

  Dipole Moment: [D]
     X:    -1.2512      Y:    -0.8336      Z:     2.5440     Total:     2.9551

*** Psi4 exiting successfully. Buy a developer a beer!
