                               Psi4 1.3.2 release

  ==> Input File <==

--------------------------------------------------------------------------
#psi4
#
memory 32 gb

molecule  {
0 1
  O        1.2197630    -1.3791890     0.7815710
  O       -2.8456175    -0.0838786    -0.2981078
  O       -1.2471260     1.2289340     0.6316900
  C        1.6098530     0.5514350    -0.6010430
  C        0.7924890    -0.5949300    -0.0578730
  C       -0.6257805    -0.7727398    -0.6157354
  C        2.9660570     0.6794250     0.0724790
  C       -1.5616300     0.2444870    -0.0131750
  H        1.7167540     0.3993790    -1.6843760
  H        1.0152770     1.4637510    -0.4819620
  H       -0.6366420    -0.6467360    -1.7011060
  H       -0.9720840    -1.7722110    -0.3761960
  H        3.5474250    -0.2360290    -0.0491480
  H        3.5302360     1.5116820    -0.3550310
  H        2.8465530     0.8548240     1.1430380
  H       -3.3901630     0.6286630     0.1252190
units angstrom
no_reorient  #important for SAPT in psi4, default
symmetry c1  #important for SAPT in psi4, default
}

set PROPERTIES_ORIGIN ["COM"]
properties('MP2/aug-cc-pvtz', properties = ['dipole'])
--------------------------------------------------------------------------

    Molecular point group: c1
  Charge       = 0
  Multiplicity = 1
  Basis Set: AUG-CC-PVTZ
    Blend: AUG-CC-PVTZ
  Basis Set: (AUG-CC-PVTZ AUX)
    Blend: AUG-CC-PVTZ-JKFIT

    Orbital Energies [Eh]
    ---------------------

    Doubly Occupied:

       1A    -20.633984     2A    -20.571275     3A    -20.556392
       4A    -11.413301     5A    -11.344211     6A    -11.270141
       7A    -11.241304     8A    -11.217126     9A     -1.478401
      10A     -1.388430    11A     -1.375993    12A     -1.083668
      13A     -1.041818    14A     -0.900589    15A     -0.837234
      16A     -0.742171    17A     -0.718718    18A     -0.707282
      19A     -0.681175    20A     -0.647349    21A     -0.632252
      22A     -0.625024    23A     -0.598855    24A     -0.578377
      25A     -0.526573    26A     -0.518368    27A     -0.515134
      28A     -0.503333    29A     -0.490960    30A     -0.469352
      31A     -0.423116

  @DF-RHF Final Energy:  -418.76662712210396

   => Energetics <=

    Nuclear Repulsion Energy =            372.0753467887853958
    One-Electron Energy =               -1310.2201378725078484
    Two-Electron Energy =                 519.3781639616184975
    Total Energy =                       -418.7666271221039551
  Basis Set: (AUG-CC-PVTZ AUX)
    Blend: AUG-CC-PVTZ-RI
    Molecular point group: c1

    Geometry (in Angstrom), charge = 0, multiplicity = 1:

       Center              X                  Y                   Z               Mass
    ------------   -----------------  -----------------  -----------------  -----------------
         O            1.220313988428    -1.377187605915     0.782892837746    15.994914619570
         O           -2.845066511572    -0.081877205915    -0.296785962254    15.994914619570
         O           -1.246575011572     1.230935394085     0.633011837746    15.994914619570
         C            1.610403988428     0.553436394085    -0.599721162254    12.000000000000
         C            0.793039988428    -0.592928605915    -0.056551162254    12.000000000000
         C           -0.625229511572    -0.770738405915    -0.614413562254    12.000000000000
         C            2.966607988428     0.681426394085     0.073800837746    12.000000000000
         C           -1.561079011572     0.246488394085    -0.011853162254    12.000000000000
         H            1.717304988428     0.401380394085    -1.683054162254     1.007825032230
         H            1.015827988428     1.465752394085    -0.480640162254     1.007825032230
         H           -0.636091011572    -0.644734605915    -1.699784162254     1.007825032230
         H           -0.971533011572    -1.770209605915    -0.374874162254     1.007825032230
         H            3.547975988428    -0.234027605915    -0.047826162254     1.007825032230
         H            3.530786988428     1.513683394085    -0.353709162254     1.007825032230
         H            2.847103988428     0.856825394085     1.144359837746     1.007825032230
         H           -3.389612011572     0.630664394085     0.126540837746     1.007825032230

  Basis Set: AUG-CC-PVTZ
    Blend: AUG-CC-PVTZ
  Basis Set: (AUG-CC-PVTZ AUX)
    Blend: AUG-CC-PVTZ-JKFIT
	 Reference Energy          =    -418.7666271221039551 [Eh]
	 Singles Energy            =      -0.0000000000000000 [Eh]
	 Same-Spin Energy          =      -0.4084134220686051 [Eh]
	 Opposite-Spin Energy      =      -1.2870435019560824 [Eh]
	 Correlation Energy        =      -1.6954569240246875 [Eh]
	 Total Energy              =    -420.4620840461286662 [Eh]

	 ================> DF-SCS-MP2 Energies <==================
	-----------------------------------------------------------
	 SCS Same-Spin Scale       =       0.3333333333333333 [-]
	 SCS Opposite-Spin Scale   =       1.2000000000000000 [-]
	 SCS Same-Spin Energy      =      -0.1361378073562017 [Eh]
	 SCS Opposite-Spin Energy  =      -1.5444522023472989 [Eh]
	 SCS Correlation Energy    =      -1.6805900097035005 [Eh]
	 SCS Total Energy          =    -420.4472171318074629 [Eh]
	-----------------------------------------------------------

  Dipole Moment: [D]
     X:    -1.3530      Y:     0.8005      Z:    -2.5446     Total:     2.9911

*** Psi4 exiting successfully. Buy a developer a beer!
