                               Psi4 1.3.2 release

  ==> Input File <==

--------------------------------------------------------------------------
#psi4
#
memory 32 gb

molecule  {
0 1
  O        1.2197630    -1.3791890     0.7815710
  O       -2.8493200    -0.0743410    -0.2921690
  O       -1.2471260     1.2289340     0.6316900
  C        1.6098530     0.5514350    -0.6010430
  C        0.8319769    -0.6062533    -0.0249034
  C       -0.6155180    -0.7660970    -0.6108670
  C        2.9539814     0.6375174     0.1026694
  C       -1.5616300     0.2444870    -0.0131750
  H        1.7167540     0.3993790    -1.6843760
  H        1.0152770     1.4637510    -0.4819620
  H       -0.6366420    -0.6467360    -1.7011060
  H       -0.9720840    -1.7722110    -0.3761960
  H        3.5474250    -0.2360290    -0.0491480
  H        3.5302360     1.5116820    -0.3550310
  H        2.8465530     0.8548240     1.1430380
  H       -3.3901630     0.6286630     0.1252190
units angstrom
no_reorient  #important for SAPT in psi4, default
symmetry c1  #important for SAPT in psi4, default
}

set PROPERTIES_ORIGIN ["COM"]
properties('MP2/aug-cc-pvtz', properties = ['dipole'])
--------------------------------------------------------------------------

    Molecular point group: c1
  Charge       = 0
  Multiplicity = 1
  Basis Set: AUG-CC-PVTZ
    Blend: AUG-CC-PVTZ
  Basis Set: (AUG-CC-PVTZ AUX)
    Blend: AUG-CC-PVTZ-JKFIT

    Orbital Energies [Eh]
    ---------------------

    Doubly Occupied:

       1A    -20.630090     2A    -20.567406     3A    -20.560300
       4A    -11.409656     5A    -11.340694     6A    -11.266260
       7A    -11.240610     8A    -11.217711     9A     -1.476632
      10A     -1.419438    11A     -1.373580    12A     -1.078294
      13A     -1.039085    14A     -0.898164    15A     -0.834287
      16A     -0.742733    17A     -0.718206    18A     -0.703986
      19A     -0.680543    20A     -0.648793    21A     -0.637705
      22A     -0.631525    23A     -0.597403    24A     -0.575496
      25A     -0.534460    26A     -0.522540    27A     -0.512398
      28A     -0.507973    29A     -0.493711    30A     -0.468861
      31A     -0.414599

  @DF-RHF Final Energy:  -418.76531370227656

   => Energetics <=

    Nuclear Repulsion Energy =            372.6910512381613216
    One-Electron Energy =               -1311.4264540258093348
    Two-Electron Energy =                 519.9700890853714554
    Total Energy =                       -418.7653137022765577
  Basis Set: (AUG-CC-PVTZ AUX)
    Blend: AUG-CC-PVTZ-RI
    Molecular point group: c1

    Geometry (in Angstrom), charge = 0, multiplicity = 1:

       Center              X                  Y                   Z               Mass
    ------------   -----------------  -----------------  -----------------  -----------------
         O            1.216928504412    -1.373684689882     0.775039737739    15.994914619570
         O           -2.852154495588    -0.068836689882    -0.298700262261    15.994914619570
         O           -1.249960495588     1.234438310118     0.625158737739    15.994914619570
         C            1.607018504412     0.556939310118    -0.607574262261    12.000000000000
         C            0.829142404412    -0.600748989882    -0.031434662261    12.000000000000
         C           -0.618352495588    -0.760592689882    -0.617398262261    12.000000000000
         C            2.951146904412     0.643021710118     0.096138137739    12.000000000000
         C           -1.564464495588     0.249991310118    -0.019706262261    12.000000000000
         H            1.713919504412     0.404883310118    -1.690907262261     1.007825032230
         H            1.012442504412     1.469255310118    -0.488493262261     1.007825032230
         H           -0.639476495588    -0.641231689882    -1.707637262261     1.007825032230
         H           -0.974918495588    -1.766706689882    -0.382727262261     1.007825032230
         H            3.544590504412    -0.230524689882    -0.055679262261     1.007825032230
         H            3.527401504412     1.517186310118    -0.361562262261     1.007825032230
         H            2.843718504412     0.860328310118     1.136506737739     1.007825032230
         H           -3.392997495588     0.634167310118     0.118687737739     1.007825032230

  Basis Set: AUG-CC-PVTZ
    Blend: AUG-CC-PVTZ
  Basis Set: (AUG-CC-PVTZ AUX)
    Blend: AUG-CC-PVTZ-JKFIT
	 Reference Energy          =    -418.7653137022765577 [Eh]
	 Singles Energy            =      -0.0000000000000000 [Eh]
	 Same-Spin Energy          =      -0.4071243343837632 [Eh]
	 Opposite-Spin Energy      =      -1.2841863612702737 [Eh]
	 Correlation Energy        =      -1.6913106956540369 [Eh]
	 Total Energy              =    -420.4566243979305682 [Eh]

	 ================> DF-SCS-MP2 Energies <==================
	-----------------------------------------------------------
	 SCS Same-Spin Scale       =       0.3333333333333333 [-]
	 SCS Opposite-Spin Scale   =       1.2000000000000000 [-]
	 SCS Same-Spin Energy      =      -0.1357081114612544 [Eh]
	 SCS Opposite-Spin Energy  =      -1.5410236335243284 [Eh]
	 SCS Correlation Energy    =      -1.6767317449855828 [Eh]
	 SCS Total Energy          =    -420.4420454472621600 [Eh]
	-----------------------------------------------------------

  Dipole Moment: [D]
     X:    -1.1190      Y:     0.6796      Z:    -2.4233     Total:     2.7544

*** Psi4 exiting successfully. Buy a developer a beer!
