                               Psi4 1.3.2 release

  ==> Input File <==

--------------------------------------------------------------------------
#psi4
#
memory 32 gb

molecule  {
0 1
  O        1.2567716    -1.3577260     0.7816956
  O       -2.8493200    -0.0743410    -0.2921690
  O       -1.2471260     1.2289340     0.6316900
  C        1.6497140     0.5365052    -0.5700155
  C        0.7924890    -0.5949300    -0.0578730
  C       -0.6155180    -0.7660970    -0.6108670
  C        2.9660570     0.6794250     0.0724790
  C       -1.5616300     0.2444870    -0.0131750
  H        1.7167540     0.3993790    -1.6843760
  H        1.0152770     1.4637510    -0.4819620
  H       -0.6366420    -0.6467360    -1.7011060
  H       -0.9720840    -1.7722110    -0.3761960
  H        3.5474250    -0.2360290    -0.0491480
  H        3.5302360     1.5116820    -0.3550310
  H        2.8465530     0.8548240     1.1430380
  H       -3.3901630     0.6286630     0.1252190
units angstrom
no_reorient  #important for SAPT in psi4, default
symmetry c1  #important for SAPT in psi4, default
}

set PROPERTIES_ORIGIN ["COM"]
properties('MP2/aug-cc-pvtz', properties = ['dipole'])
--------------------------------------------------------------------------

    Molecular point group: c1
  Charge       = 0
  Multiplicity = 1
  Basis Set: AUG-CC-PVTZ
    Blend: AUG-CC-PVTZ
  Basis Set: (AUG-CC-PVTZ AUX)
    Blend: AUG-CC-PVTZ-JKFIT

    Orbital Energies [Eh]
    ---------------------

    Doubly Occupied:

       1A    -20.633926     2A    -20.571259     3A    -20.554685
       4A    -11.414662     5A    -11.343399     6A    -11.274976
       7A    -11.242019     8A    -11.213696     9A     -1.480507
      10A     -1.388532    11A     -1.376832    12A     -1.085841
      13A     -1.047943    14A     -0.901675    15A     -0.839589
      16A     -0.740373    17A     -0.720083    18A     -0.708045
      19A     -0.681388    20A     -0.650614    21A     -0.629573
      22A     -0.626330    23A     -0.599018    24A     -0.579068
      25A     -0.536150    26A     -0.517761    27A     -0.513252
      28A     -0.501826    29A     -0.485183    30A     -0.465367
      31A     -0.423494

  @DF-RHF Final Energy:  -418.76353779097229

   => Energetics <=

    Nuclear Repulsion Energy =            372.4769211338571608
    One-Electron Energy =               -1310.9867848821786538
    Two-Electron Energy =                 519.7463259573491996
    Total Energy =                       -418.7635377909723502
  Basis Set: (AUG-CC-PVTZ AUX)
    Blend: AUG-CC-PVTZ-RI
    Molecular point group: c1

    Geometry (in Angstrom), charge = 0, multiplicity = 1:

       Center              X                  Y                   Z               Mass
    ------------   -----------------  -----------------  -----------------  -----------------
         O            1.247548903089    -1.359140521662     0.778469859607    15.994914619570
         O           -2.858542696911    -0.075755521662    -0.295394740393    15.994914619570
         O           -1.256348696911     1.227519478338     0.628464259607    15.994914619570
         C            1.640491303089     0.535090678338    -0.573241240393    12.000000000000
         C            0.783266303089    -0.596344521662    -0.061098740393    12.000000000000
         C           -0.624740696911    -0.767511521662    -0.614092740393    12.000000000000
         C            2.956834303089     0.678010478338     0.069253259607    12.000000000000
         C           -1.570852696911     0.243072478338    -0.016400740393    12.000000000000
         H            1.707531303089     0.397964478338    -1.687601740393     1.007825032230
         H            1.006054303089     1.462336478338    -0.485187740393     1.007825032230
         H           -0.645864696911    -0.648150521662    -1.704331740393     1.007825032230
         H           -0.981306696911    -1.773625521662    -0.379421740393     1.007825032230
         H            3.538202303089    -0.237443521662    -0.052373740393     1.007825032230
         H            3.521013303089     1.510267478338    -0.358256740393     1.007825032230
         H            2.837330303089     0.853409478338     1.139812259607     1.007825032230
         H           -3.399385696911     0.627248478338     0.121993259607     1.007825032230

  Basis Set: AUG-CC-PVTZ
    Blend: AUG-CC-PVTZ
  Basis Set: (AUG-CC-PVTZ AUX)
    Blend: AUG-CC-PVTZ-JKFIT
	 Reference Energy          =    -418.7635377909722934 [Eh]
	 Singles Energy            =      -0.0000000000000000 [Eh]
	 Same-Spin Energy          =      -0.4087518406061380 [Eh]
	 Opposite-Spin Energy      =      -1.2871386847109634 [Eh]
	 Correlation Energy        =      -1.6958905253171013 [Eh]
	 Total Energy              =    -420.4594283162894044 [Eh]

	 ================> DF-SCS-MP2 Energies <==================
	-----------------------------------------------------------
	 SCS Same-Spin Scale       =       0.3333333333333333 [-]
	 SCS Opposite-Spin Scale   =       1.2000000000000000 [-]
	 SCS Same-Spin Energy      =      -0.1362506135353793 [Eh]
	 SCS Opposite-Spin Energy  =      -1.5445664216531561 [Eh]
	 SCS Correlation Energy    =      -1.6808170351885354 [Eh]
	 SCS Total Energy          =    -420.4443548261608044 [Eh]
	-----------------------------------------------------------

  Dipole Moment: [D]
     X:    -1.4519      Y:     0.7480      Z:    -2.5464     Total:     3.0252

*** Psi4 exiting successfully. Buy a developer a beer!
