                               Psi4 1.3.2 release

  ==> Input File <==

--------------------------------------------------------------------------
#psi4
#
memory 32 gb

molecule  {
0 1
  O        1.2197630    -1.3791890     0.7815710
  O       -2.8493200    -0.0743410    -0.2921690
  O       -1.2471260     1.2289340     0.6316900
  C        1.6098530     0.5514350    -0.6010430
  C        0.7924890    -0.5949300    -0.0578730
  C       -0.7080064    -0.7773405    -0.6471918
  C        2.9660570     0.6794250     0.0724790
  C       -1.5616300     0.2444870    -0.0131750
  H        1.7167540     0.3993790    -1.6843760
  H        1.0152770     1.4637510    -0.4819620
  H       -0.6366420    -0.6467360    -1.7011060
  H       -0.9720840    -1.7722110    -0.3761960
  H        3.5474250    -0.2360290    -0.0491480
  H        3.5302360     1.5116820    -0.3550310
  H        2.8465530     0.8548240     1.1430380
  H       -3.3901630     0.6286630     0.1252190
units angstrom
no_reorient  #important for SAPT in psi4, default
symmetry c1  #important for SAPT in psi4, default
}

set PROPERTIES_ORIGIN ["COM"]
properties('MP2/aug-cc-pvtz', properties = ['dipole'])
--------------------------------------------------------------------------

    Molecular point group: c1
  Charge       = 0
  Multiplicity = 1
  Basis Set: AUG-CC-PVTZ
    Blend: AUG-CC-PVTZ
  Basis Set: (AUG-CC-PVTZ AUX)
    Blend: AUG-CC-PVTZ-JKFIT

    Orbital Energies [Eh]
    ---------------------

    Doubly Occupied:

       1A    -20.629235     2A    -20.572158     3A    -20.557879
       4A    -11.411251     5A    -11.348461     6A    -11.268183
       7A    -11.242297     8A    -11.217702     9A     -1.479258
      10A     -1.387563    11A     -1.375864    12A     -1.081088
      13A     -1.044839    14A     -0.899958    15A     -0.837046
      16A     -0.739414    17A     -0.719161    18A     -0.709443
      19A     -0.684714    20A     -0.642737    21A     -0.631876
      22A     -0.616944    23A     -0.603551    24A     -0.584763
      25A     -0.528927    26A     -0.519248    27A     -0.515305
      28A     -0.503150    29A     -0.491215    30A     -0.473404
      31A     -0.413840

  @DF-RHF Final Energy:  -418.75846105233416

   => Energetics <=

    Nuclear Repulsion Energy =            371.4586253285501698
    One-Electron Energy =               -1308.9732261110891613
    Two-Electron Energy =                 518.7561397302048363
    Total Energy =                       -418.7584610523341553
  Basis Set: (AUG-CC-PVTZ AUX)
    Blend: AUG-CC-PVTZ-RI
    Molecular point group: c1

    Geometry (in Angstrom), charge = 0, multiplicity = 1:

       Center              X                  Y                   Z               Mass
    ------------   -----------------  -----------------  -----------------  -----------------
         O            1.229326964807    -1.378026441982     0.785327070113    15.994914619570
         O           -2.839756035193    -0.073178441982    -0.288412929887    15.994914619570
         O           -1.237562035193     1.230096558018     0.635446070113    15.994914619570
         C            1.619416964807     0.552597558018    -0.597286929887    12.000000000000
         C            0.802052964807    -0.593767441982    -0.054116929887    12.000000000000
         C           -0.698442435193    -0.776177941982    -0.643435729887    12.000000000000
         C            2.975620964807     0.680587558018     0.076235070113    12.000000000000
         C           -1.552066035193     0.245649558018    -0.009418929887    12.000000000000
         H            1.726317964807     0.400541558018    -1.680619929887     1.007825032230
         H            1.024840964807     1.464913558018    -0.478205929887     1.007825032230
         H           -0.627078035193    -0.645573441982    -1.697349929887     1.007825032230
         H           -0.962520035193    -1.771048441982    -0.372439929887     1.007825032230
         H            3.556988964807    -0.234866441982    -0.045391929887     1.007825032230
         H            3.539799964807     1.512844558018    -0.351274929887     1.007825032230
         H            2.856116964807     0.855986558018     1.146794070113     1.007825032230
         H           -3.380599035193     0.629825558018     0.128975070113     1.007825032230

  Basis Set: AUG-CC-PVTZ
    Blend: AUG-CC-PVTZ
  Basis Set: (AUG-CC-PVTZ AUX)
    Blend: AUG-CC-PVTZ-JKFIT
	 Reference Energy          =    -418.7584610523341553 [Eh]
	 Singles Energy            =      -0.0000000000000000 [Eh]
	 Same-Spin Energy          =      -0.4085784447001163 [Eh]
	 Opposite-Spin Energy      =      -1.2875774386044605 [Eh]
	 Correlation Energy        =      -1.6961558833045767 [Eh]
	 Total Energy              =    -420.4546169356387395 [Eh]

	 ================> DF-SCS-MP2 Energies <==================
	-----------------------------------------------------------
	 SCS Same-Spin Scale       =       0.3333333333333333 [-]
	 SCS Opposite-Spin Scale   =       1.2000000000000000 [-]
	 SCS Same-Spin Energy      =      -0.1361928149000388 [Eh]
	 SCS Opposite-Spin Energy  =      -1.5450929263253526 [Eh]
	 SCS Correlation Energy    =      -1.6812857412253912 [Eh]
	 SCS Total Energy          =    -420.4397467935595500 [Eh]
	-----------------------------------------------------------

  Dipole Moment: [D]
     X:    -1.1735      Y:     0.7868      Z:    -2.5194     Total:     2.8885

*** Psi4 exiting successfully. Buy a developer a beer!
