                               Psi4 1.4a3.dev225

  ==> Input File <==

--------------------------------------------------------------------------
#psi4
#
memory 32 gb

molecule  {
0 1
  O        1.1896460     1.3864710    -0.7896670
  O       -2.9164350     0.0620530     0.2465870
  O       -1.2994600    -1.1722570    -0.7513140
  C        1.5277270    -0.5390120     0.6173550
  C        0.7256129     0.5990552     0.0582433
  C       -0.6915030     0.7929470     0.5540020
  C        2.9119880    -0.6669770    -0.0005940
  C       -1.6259000    -0.2196380    -0.0638170
  H        1.5906630    -0.3916430     1.7048170
  H        0.9378800    -1.4511620     0.4690430
  H       -0.7449460     0.6872940     1.6445860
  H       -1.0362610     1.7983420     0.2961770
  H        3.4930330     0.2441750     0.1549910
  H        3.4532110    -1.5066350     0.4428820
  H        2.8367130    -0.8315610    -1.0772290
  H       -3.4525110    -0.6329900    -0.1896390
units angstrom
no_reorient  #important for SAPT in psi4, default
symmetry c1  #important for SAPT in psi4, default
}

set PROPERTIES_ORIGIN ["COM"]
properties('MP2/aug-cc-pvtz', properties = ['dipole'])
--------------------------------------------------------------------------

    Molecular point group: c1
  Charge       = 0
  Multiplicity = 1
  Basis Set: AUG-CC-PVTZ
    Blend: AUG-CC-PVTZ
  Basis Set: (AUG-CC-PVTZ AUX)
    Blend: AUG-CC-PVTZ-JKFIT

    Orbital Energies [Eh]
    ---------------------

    Doubly Occupied:

       1A    -20.633620     2A    -20.571429     3A    -20.555097
       4A    -11.414726     5A    -11.345924     6A    -11.273079
       7A    -11.243123     8A    -11.218249     9A     -1.479293
      10A     -1.378688    11A     -1.372451    12A     -1.087306
      13A     -1.043290    14A     -0.903953    15A     -0.841579
      16A     -0.742306    17A     -0.719716    18A     -0.707783
      19A     -0.679908    20A     -0.649095    21A     -0.632395
      22A     -0.622728    23A     -0.599160    24A     -0.575618
      25A     -0.525859    26A     -0.516862    27A     -0.513279
      28A     -0.502163    29A     -0.488427    30A     -0.468421
      31A     -0.427487

  @DF-RHF Final Energy:  -418.76449514950428

   => Energetics <=

    Nuclear Repulsion Energy =            371.7783171931824313
    One-Electron Energy =               -1309.6195959859824143
    Two-Electron Energy =                 519.0767836432956983
    Total Energy =                       -418.7644951495043415
  Basis Set: (AUG-CC-PVTZ AUX)
    Blend: AUG-CC-PVTZ-RI
    Molecular point group: c1

    Geometry (in Angstrom), charge = 0, multiplicity = 1:

       Center              X                  Y                   Z               Mass
    ------------   -----------------  -----------------  -----------------  -----------------
         O            1.250796298219     1.369970142388    -0.761671014494    15.994914619570
         O           -2.855284701781     0.045552142388     0.274582985506    15.994914619570
         O           -1.238309701781    -1.188757857612    -0.723318014494    15.994914619570
         C            1.588877298219    -0.555512857612     0.645350985506    12.000000000000
         C            0.786763198219     0.582554342388     0.086239285506    12.000000000000
         C           -0.630352701781     0.776446142388     0.581997985506    12.000000000000
         C            2.973138298219    -0.683477857612     0.027401985506    12.000000000000
         C           -1.564749701781    -0.236138857612    -0.035821014494    12.000000000000
         H            1.651813298219    -0.408143857612     1.732812985506     1.007825032230
         H            0.999030298219    -1.467662857612     0.497038985506     1.007825032230
         H           -0.683795701781     0.670793142388     1.672581985506     1.007825032230
         H           -0.975110701781     1.781841142388     0.324172985506     1.007825032230
         H            3.554183298219     0.227674142388     0.182986985506     1.007825032230
         H            3.514361298219    -1.523135857612     0.470877985506     1.007825032230
         H            2.897863298219    -0.848061857612    -1.049233014494     1.007825032230
         H           -3.391360701781    -0.649490857612    -0.161643014494     1.007825032230

  Basis Set: AUG-CC-PVTZ
    Blend: AUG-CC-PVTZ
  Basis Set: (AUG-CC-PVTZ AUX)
    Blend: AUG-CC-PVTZ-JKFIT
	 Reference Energy          =    -418.7644951495042847 [Eh]
	 Singles Energy            =      -0.0000000000000000 [Eh]
	 Same-Spin Energy          =      -0.4088532216964211 [Eh]
	 Opposite-Spin Energy      =      -1.2881076363071016 [Eh]
	 Correlation Energy        =      -1.6969608580035227 [Eh]
	 Total Energy              =    -420.4614560075078202 [Eh]

	 ================> DF-SCS-MP2 Energies <==================
	-----------------------------------------------------------
	 SCS Same-Spin Scale       =       0.3333333333333333 [-]
	 SCS Opposite-Spin Scale   =       1.2000000000000000 [-]
	 SCS Same-Spin Energy      =      -0.1362844072321404 [Eh]
	 SCS Opposite-Spin Energy  =      -1.5457291635685217 [Eh]
	 SCS Correlation Energy    =      -1.6820135708006621 [Eh]
	 SCS Total Energy          =    -420.4465087203049620 [Eh]
	-----------------------------------------------------------

  Dipole Moment: [D]
     X:    -1.4621      Y:    -0.8541      Z:     2.6346     Total:     3.1318

*** Psi4 exiting successfully. Buy a developer a beer!
