                               Psi4 1.3.2 release

  ==> Input File <==

--------------------------------------------------------------------------
#psi4
#
memory 32 gb

molecule  {
0 1
  O        1.2382347    -1.3684071     0.7819694
  O       -2.8493200    -0.0743410    -0.2921690
  O       -1.2471260     1.2289340     0.6316900
  C        1.6098530     0.5514350    -0.6010430
  C        0.7924890    -0.5949300    -0.0578730
  C       -0.6118339    -0.7447292    -0.6262229
  C        2.9660570     0.6794250     0.0724790
  C       -1.5616300     0.2444870    -0.0131750
  H        1.7167540     0.3993790    -1.6843760
  H        1.0152770     1.4637510    -0.4819620
  H       -0.6366420    -0.6467360    -1.7011060
  H       -0.9720840    -1.7722110    -0.3761960
  H        3.5474250    -0.2360290    -0.0491480
  H        3.5302360     1.5116820    -0.3550310
  H        2.8465530     0.8548240     1.1430380
  H       -3.3901630     0.6286630     0.1252190
units angstrom
no_reorient  #important for SAPT in psi4, default
symmetry c1  #important for SAPT in psi4, default
}

set PROPERTIES_ORIGIN ["COM"]
properties('MP2/aug-cc-pvtz', properties = ['dipole'])
--------------------------------------------------------------------------

    Molecular point group: c1
  Charge       = 0
  Multiplicity = 1
  Basis Set: AUG-CC-PVTZ
    Blend: AUG-CC-PVTZ
  Basis Set: (AUG-CC-PVTZ AUX)
    Blend: AUG-CC-PVTZ-JKFIT

    Orbital Energies [Eh]
    ---------------------

    Doubly Occupied:

       1A    -20.633466     2A    -20.570625     3A    -20.557555
       4A    -11.413830     5A    -11.344502     6A    -11.272543
       7A    -11.239692     8A    -11.216111     9A     -1.480099
      10A     -1.389224    11A     -1.376491    12A     -1.086509
      13A     -1.041462    14A     -0.901820    15A     -0.839495
      16A     -0.743151    17A     -0.720545    18A     -0.708825
      19A     -0.682334    20A     -0.647014    21A     -0.631972
      22A     -0.626557    23A     -0.599405    24A     -0.576663
      25A     -0.524222    26A     -0.518136    27A     -0.514211
      28A     -0.502994    29A     -0.490823    30A     -0.469390
      31A     -0.424747

  @DF-RHF Final Energy:  -418.76652853024405

   => Energetics <=

    Nuclear Repulsion Energy =            372.3587205833093208
    One-Electron Energy =               -1310.7616720132655246
    Two-Electron Energy =                 519.6364228997121018
    Total Energy =                       -418.7665285302440452
  Basis Set: (AUG-CC-PVTZ AUX)
    Blend: AUG-CC-PVTZ-RI
    Molecular point group: c1

    Geometry (in Angstrom), charge = 0, multiplicity = 1:

       Center              X                  Y                   Z               Mass
    ------------   -----------------  -----------------  -----------------  -----------------
         O            1.235307872575    -1.372102827832     0.783502246686    15.994914619570
         O           -2.852246827425    -0.078036727832    -0.290636153314    15.994914619570
         O           -1.250052827425     1.225238272168     0.633222846686    15.994914619570
         C            1.606926172575     0.547739272168    -0.599510153314    12.000000000000
         C            0.789562172575    -0.598625727832    -0.056340153314    12.000000000000
         C           -0.614760727425    -0.748424927832    -0.624690053314    12.000000000000
         C            2.963130172575     0.675729272168     0.074011846686    12.000000000000
         C           -1.564556827425     0.240791272168    -0.011642153314    12.000000000000
         H            1.713827172575     0.395683272168    -1.682843153314     1.007825032230
         H            1.012350172575     1.460055272168    -0.480429153314     1.007825032230
         H           -0.639568827425    -0.650431727832    -1.699573153314     1.007825032230
         H           -0.975010827425    -1.775906727832    -0.374663153314     1.007825032230
         H            3.544498172575    -0.239724727832    -0.047615153314     1.007825032230
         H            3.527309172575     1.507986272168    -0.353498153314     1.007825032230
         H            2.843626172575     0.851128272168     1.144570846686     1.007825032230
         H           -3.393089827425     0.624967272168     0.126751846686     1.007825032230

  Basis Set: AUG-CC-PVTZ
    Blend: AUG-CC-PVTZ
  Basis Set: (AUG-CC-PVTZ AUX)
    Blend: AUG-CC-PVTZ-JKFIT
	 Reference Energy          =    -418.7665285302440452 [Eh]
	 Singles Energy            =      -0.0000000000000000 [Eh]
	 Same-Spin Energy          =      -0.4083872310110550 [Eh]
	 Opposite-Spin Energy      =      -1.2868425763799265 [Eh]
	 Correlation Energy        =      -1.6952298073909815 [Eh]
	 Total Energy              =    -420.4617583376350467 [Eh]

	 ================> DF-SCS-MP2 Energies <==================
	-----------------------------------------------------------
	 SCS Same-Spin Scale       =       0.3333333333333333 [-]
	 SCS Opposite-Spin Scale   =       1.2000000000000000 [-]
	 SCS Same-Spin Energy      =      -0.1361290770036850 [Eh]
	 SCS Opposite-Spin Energy  =      -1.5442110916559117 [Eh]
	 SCS Correlation Energy    =      -1.6803401686595967 [Eh]
	 SCS Total Energy          =    -420.4468686989036428 [Eh]
	-----------------------------------------------------------

  Dipole Moment: [D]
     X:    -1.4057      Y:     0.7516      Z:    -2.5633     Total:     3.0185

*** Psi4 exiting successfully. Buy a developer a beer!
