                               Psi4 1.3.2 release

  ==> Input File <==

--------------------------------------------------------------------------
#psi4
#
memory 32 gb

molecule  {
0 1
  O        1.2197630    -1.3791890     0.7815710
  O       -2.8493200    -0.0743410    -0.2921690
  O       -1.2471260     1.2289340     0.6316900
  C        1.6098530     0.5514350    -0.6010430
  C        0.7924890    -0.5949300    -0.0578730
  C       -0.6155180    -0.7660970    -0.6108670
  C        2.9660570     0.6794250     0.0724790
  C       -1.5426509     0.2168928     0.0583110
  H        1.7167540     0.3993790    -1.6843760
  H        1.0152770     1.4637510    -0.4819620
  H       -0.5983788    -0.6893849    -1.7050040
  H       -0.9720840    -1.7722110    -0.3761960
  H        3.5474250    -0.2360290    -0.0491480
  H        3.5302360     1.5116820    -0.3550310
  H        2.8465530     0.8548240     1.1430380
  H       -3.3901630     0.6286630     0.1252190
units angstrom
no_reorient  #important for SAPT in psi4, default
symmetry c1  #important for SAPT in psi4, default
}

set PROPERTIES_ORIGIN ["COM"]
properties('MP2/aug-cc-pvtz', properties = ['dipole'])
--------------------------------------------------------------------------

    Molecular point group: c1
  Charge       = 0
  Multiplicity = 1
  Basis Set: AUG-CC-PVTZ
    Blend: AUG-CC-PVTZ
  Basis Set: (AUG-CC-PVTZ AUX)
    Blend: AUG-CC-PVTZ-JKFIT

    Orbital Energies [Eh]
    ---------------------

    Doubly Occupied:

       1A    -20.625169     2A    -20.576775     3A    -20.556637
       4A    -11.413926     5A    -11.343489     6A    -11.271427
       7A    -11.242131     8A    -11.217825     9A     -1.475717
      10A     -1.389087    11A     -1.379558    12A     -1.085557
      13A     -1.042210    14A     -0.900421    15A     -0.833763
      16A     -0.742403    17A     -0.718873    18A     -0.709022
      19A     -0.678063    20A     -0.646165    21A     -0.632923
      22A     -0.625280    23A     -0.604293    24A     -0.573176
      25A     -0.525913    26A     -0.519903    27A     -0.515879
      28A     -0.506905    29A     -0.493407    30A     -0.471094
      31A     -0.423683

  @DF-RHF Final Energy:  -418.76360532843808

   => Energetics <=

    Nuclear Repulsion Energy =            372.3239844098463323
    One-Electron Energy =               -1310.6938318900865852
    Two-Electron Energy =                 519.6062421518021210
    Total Energy =                       -418.7636053284380750
  Basis Set: (AUG-CC-PVTZ AUX)
    Blend: AUG-CC-PVTZ-RI
    Molecular point group: c1

    Geometry (in Angstrom), charge = 0, multiplicity = 1:

       Center              X                  Y                   Z               Mass
    ------------   -----------------  -----------------  -----------------  -----------------
         O            1.217468247822    -1.375965291588     0.774212631365    15.994914619570
         O           -2.851614752178    -0.071117291588    -0.299527368635    15.994914619570
         O           -1.249420752178     1.232157708412     0.624331631365    15.994914619570
         C            1.607558247822     0.554658708412    -0.608401368635    12.000000000000
         C            0.790194247822    -0.591706291588    -0.065231368635    12.000000000000
         C           -0.617812752178    -0.762873291588    -0.618225368635    12.000000000000
         C            2.963762247822     0.682648708412     0.065120631365    12.000000000000
         C           -1.544945652178     0.220116508412     0.050952631365    12.000000000000
         H            1.714459247822     0.402602708412    -1.691734368635     1.007825032230
         H            1.012982247822     1.466974708412    -0.489320368635     1.007825032230
         H           -0.600673552178    -0.686161191588    -1.712362368635     1.007825032230
         H           -0.974378752178    -1.768987291588    -0.383554368635     1.007825032230
         H            3.545130247822    -0.232805291588    -0.056506368635     1.007825032230
         H            3.527941247822     1.514905708412    -0.362389368635     1.007825032230
         H            2.844258247822     0.858047708412     1.135679631365     1.007825032230
         H           -3.392457752178     0.631886708412     0.117860631365     1.007825032230

  Basis Set: AUG-CC-PVTZ
    Blend: AUG-CC-PVTZ
  Basis Set: (AUG-CC-PVTZ AUX)
    Blend: AUG-CC-PVTZ-JKFIT
	 Reference Energy          =    -418.7636053284380750 [Eh]
	 Singles Energy            =      -0.0000000000000000 [Eh]
	 Same-Spin Energy          =      -0.4082219248476112 [Eh]
	 Opposite-Spin Energy      =      -1.2869872004408918 [Eh]
	 Correlation Energy        =      -1.6952091252885029 [Eh]
	 Total Energy              =    -420.4588144537265748 [Eh]

	 ================> DF-SCS-MP2 Energies <==================
	-----------------------------------------------------------
	 SCS Same-Spin Scale       =       0.3333333333333333 [-]
	 SCS Opposite-Spin Scale   =       1.2000000000000000 [-]
	 SCS Same-Spin Energy      =      -0.1360739749492037 [Eh]
	 SCS Opposite-Spin Energy  =      -1.5443846405290700 [Eh]
	 SCS Correlation Energy    =      -1.6804586154782737 [Eh]
	 SCS Total Energy          =    -420.4440639439163760 [Eh]
	-----------------------------------------------------------

  Dipole Moment: [D]
     X:    -1.1350      Y:     0.8295      Z:    -2.4206     Total:     2.7992

*** Psi4 exiting successfully. Buy a developer a beer!
