                               Psi4 1.3.2 release

  ==> Input File <==

--------------------------------------------------------------------------
#psi4
#
memory 32 gb

molecule  {
0 1
  O        1.2104277    -1.3844065     0.7813800
  O       -2.8493200    -0.0743410    -0.2921690
  O       -1.2471260     1.2289340     0.6316900
  C        1.5997302     0.5549499    -0.6086979
  C        0.7924890    -0.5949300    -0.0578730
  C       -0.6155180    -0.7660970    -0.6108670
  C        2.9660570     0.6794250     0.0724790
  C       -1.5616300     0.2444870    -0.0131750
  H        1.7167540     0.3993790    -1.6843760
  H        1.0152770     1.4637510    -0.4819620
  H       -0.6366420    -0.6467360    -1.7011060
  H       -0.9720840    -1.7722110    -0.3761960
  H        3.5474250    -0.2360290    -0.0491480
  H        3.5302360     1.5116820    -0.3550310
  H        2.8465530     0.8548240     1.1430380
  H       -3.3901630     0.6286630     0.1252190
units angstrom
no_reorient  #important for SAPT in psi4, default
symmetry c1  #important for SAPT in psi4, default
}

set PROPERTIES_ORIGIN ["COM"]
properties('MP2/aug-cc-pvtz', properties = ['dipole'])
--------------------------------------------------------------------------

    Molecular point group: c1
  Charge       = 0
  Multiplicity = 1
  Basis Set: AUG-CC-PVTZ
    Blend: AUG-CC-PVTZ
  Basis Set: (AUG-CC-PVTZ AUX)
    Blend: AUG-CC-PVTZ-JKFIT

    Orbital Energies [Eh]
    ---------------------

    Doubly Occupied:

       1A    -20.632612     2A    -20.570167     3A    -20.557225
       4A    -11.413096     5A    -11.344252     6A    -11.270326
       7A    -11.241185     8A    -11.217977     9A     -1.479273
      10A     -1.389172    11A     -1.375818    12A     -1.084930
      13A     -1.040653    14A     -0.901669    15A     -0.839749
      16A     -0.743307    17A     -0.719729    18A     -0.707369
      19A     -0.680844    20A     -0.647758    21A     -0.633163
      22A     -0.626304    23A     -0.598500    24A     -0.576721
      25A     -0.525198    26A     -0.517963    27A     -0.514724
      28A     -0.503387    29A     -0.492051    30A     -0.469308
      31A     -0.424685

  @DF-RHF Final Energy:  -418.76776586986279

   => Energetics <=

    Nuclear Repulsion Energy =            372.2054764165927736
    One-Electron Energy =               -1310.4682586521216763
    Two-Electron Energy =                 519.4950163656660607
    Total Energy =                       -418.7677658698628420
  Basis Set: (AUG-CC-PVTZ AUX)
    Blend: AUG-CC-PVTZ-RI
    Molecular point group: c1

    Geometry (in Angstrom), charge = 0, multiplicity = 1:

       Center              X                  Y                   Z               Mass
    ------------   -----------------  -----------------  -----------------  -----------------
         O            1.212761254840    -1.384050917218     0.782197754084    15.994914619570
         O           -2.846986445160    -0.073985417218    -0.291351245916    15.994914619570
         O           -1.244792445160     1.229289582782     0.632507754084    15.994914619570
         C            1.602063754840     0.555305482782    -0.607880145916    12.000000000000
         C            0.794822554840    -0.594574417218    -0.057055245916    12.000000000000
         C           -0.613184445160    -0.765741417218    -0.610049245916    12.000000000000
         C            2.968390554840     0.679780582782     0.073296754084    12.000000000000
         C           -1.559296445160     0.244842582782    -0.012357245916    12.000000000000
         H            1.719087554840     0.399734582782    -1.683558245916     1.007825032230
         H            1.017610554840     1.464106582782    -0.481144245916     1.007825032230
         H           -0.634308445160    -0.646380417218    -1.700288245916     1.007825032230
         H           -0.969750445160    -1.771855417218    -0.375378245916     1.007825032230
         H            3.549758554840    -0.235673417218    -0.048330245916     1.007825032230
         H            3.532569554840     1.512037582782    -0.354213245916     1.007825032230
         H            2.848886554840     0.855179582782     1.143855754084     1.007825032230
         H           -3.387829445160     0.629018582782     0.126036754084     1.007825032230

  Basis Set: AUG-CC-PVTZ
    Blend: AUG-CC-PVTZ
  Basis Set: (AUG-CC-PVTZ AUX)
    Blend: AUG-CC-PVTZ-JKFIT
	 Reference Energy          =    -418.7677658698627852 [Eh]
	 Singles Energy            =      -0.0000000000000000 [Eh]
	 Same-Spin Energy          =      -0.4081484568722072 [Eh]
	 Opposite-Spin Energy      =      -1.2865311872866787 [Eh]
	 Correlation Energy        =      -1.6946796441588861 [Eh]
	 Total Energy              =    -420.4624455140216810 [Eh]

	 ================> DF-SCS-MP2 Energies <==================
	-----------------------------------------------------------
	 SCS Same-Spin Scale       =       0.3333333333333333 [-]
	 SCS Opposite-Spin Scale   =       1.2000000000000000 [-]
	 SCS Same-Spin Energy      =      -0.1360494856240691 [Eh]
	 SCS Opposite-Spin Energy  =      -1.5438374247440143 [Eh]
	 SCS Correlation Energy    =      -1.6798869103680834 [Eh]
	 SCS Total Energy          =    -420.4476527802308965 [Eh]
	-----------------------------------------------------------

  Dipole Moment: [D]
     X:    -1.3227      Y:     0.7902      Z:    -2.5592     Total:     2.9872

*** Psi4 exiting successfully. Buy a developer a beer!
