                               Psi4 1.3.2 release

  ==> Input File <==

--------------------------------------------------------------------------
#psi4
#
memory 32 gb

molecule  {
0 1
  O        1.2197630    -1.3791890     0.7815710
  O       -2.8493200    -0.0743410    -0.2921690
  O       -1.2471260     1.2289340     0.6316900
  C        1.6098530     0.5514350    -0.6010430
  C        0.7966613    -0.5738984    -0.0097610
  C       -0.6155180    -0.7660970    -0.6108670
  C        2.9660570     0.6794250     0.0724790
  C       -1.5616300     0.2444870    -0.0131750
  H        1.7373030     0.4317261    -1.6862091
  H        1.0152770     1.4637510    -0.4819620
  H       -0.6366420    -0.6467360    -1.7011060
  H       -0.9720840    -1.7722110    -0.3761960
  H        3.5474250    -0.2360290    -0.0491480
  H        3.5302360     1.5116820    -0.3550310
  H        2.8465530     0.8548240     1.1430380
  H       -3.3901630     0.6286630     0.1252190
units angstrom
no_reorient  #important for SAPT in psi4, default
symmetry c1  #important for SAPT in psi4, default
}

set PROPERTIES_ORIGIN ["COM"]
properties('MP2/aug-cc-pvtz', properties = ['dipole'])
--------------------------------------------------------------------------

    Molecular point group: c1
  Charge       = 0
  Multiplicity = 1
  Basis Set: AUG-CC-PVTZ
    Blend: AUG-CC-PVTZ
  Basis Set: (AUG-CC-PVTZ AUX)
    Blend: AUG-CC-PVTZ-JKFIT

    Orbital Energies [Eh]
    ---------------------

    Doubly Occupied:

       1A    -20.631302     2A    -20.569344     3A    -20.558848
       4A    -11.411181     5A    -11.343581     6A    -11.269461
       7A    -11.240359     8A    -11.216662     9A     -1.478192
      10A     -1.402887    11A     -1.375291    12A     -1.081279
      13A     -1.040783    14A     -0.899055    15A     -0.836300
      16A     -0.743544    17A     -0.719234    18A     -0.706094
      19A     -0.681395    20A     -0.648623    21A     -0.634163
      22A     -0.626908    23A     -0.597504    24A     -0.577628
      25A     -0.526983    26A     -0.522311    27A     -0.516292
      28A     -0.503231    29A     -0.490769    30A     -0.469231
      31A     -0.421305

  @DF-RHF Final Energy:  -418.76751415129661

   => Energetics <=

    Nuclear Repulsion Energy =            372.4459098764178862
    One-Electron Energy =               -1310.9473710325830780
    Two-Electron Energy =                 519.7339470048685826
    Total Energy =                       -418.7675141512966093
  Basis Set: (AUG-CC-PVTZ AUX)
    Blend: AUG-CC-PVTZ-RI
    Molecular point group: c1

    Geometry (in Angstrom), charge = 0, multiplicity = 1:

       Center              X                  Y                   Z               Mass
    ------------   -----------------  -----------------  -----------------  -----------------
         O            1.219153201628    -1.381644804989     0.776611712052    15.994914619570
         O           -2.849929798372    -0.076796804989    -0.297128287948    15.994914619570
         O           -1.247735798372     1.226478195011     0.626730712052    15.994914619570
         C            1.609243201628     0.548979195011    -0.606002287948    12.000000000000
         C            0.796051501628    -0.576354204989    -0.014720287948    12.000000000000
         C           -0.616127798372    -0.768552804989    -0.615826287948    12.000000000000
         C            2.965447201628     0.676969195011     0.067519712052    12.000000000000
         C           -1.562239798372     0.242031195011    -0.018134287948    12.000000000000
         H            1.736693201628     0.429270295011    -1.691168387948     1.007825032230
         H            1.014667201628     1.461295195011    -0.486921287948     1.007825032230
         H           -0.637251798372    -0.649191804989    -1.706065287948     1.007825032230
         H           -0.972693798372    -1.774666804989    -0.381155287948     1.007825032230
         H            3.546815201628    -0.238484804989    -0.054107287948     1.007825032230
         H            3.529626201628     1.509226195011    -0.359990287948     1.007825032230
         H            2.845943201628     0.852368195011     1.138078712052     1.007825032230
         H           -3.390772798372     0.626207195011     0.120259712052     1.007825032230

  Basis Set: AUG-CC-PVTZ
    Blend: AUG-CC-PVTZ
  Basis Set: (AUG-CC-PVTZ AUX)
    Blend: AUG-CC-PVTZ-JKFIT
	 Reference Energy          =    -418.7675141512966093 [Eh]
	 Singles Energy            =      -0.0000000000000000 [Eh]
	 Same-Spin Energy          =      -0.4077249377890785 [Eh]
	 Opposite-Spin Energy      =      -1.2855219205150354 [Eh]
	 Correlation Energy        =      -1.6932468583041140 [Eh]
	 Total Energy              =    -420.4607610096007306 [Eh]

	 ================> DF-SCS-MP2 Energies <==================
	-----------------------------------------------------------
	 SCS Same-Spin Scale       =       0.3333333333333333 [-]
	 SCS Opposite-Spin Scale   =       1.2000000000000000 [-]
	 SCS Same-Spin Energy      =      -0.1359083125963595 [Eh]
	 SCS Opposite-Spin Energy  =      -1.5426263046180424 [Eh]
	 SCS Correlation Energy    =      -1.6785346172144018 [Eh]
	 SCS Total Energy          =    -420.4460487685109911 [Eh]
	-----------------------------------------------------------

  Dipole Moment: [D]
     X:    -1.2544      Y:     0.7561      Z:    -2.4956     Total:     2.8937

*** Psi4 exiting successfully. Buy a developer a beer!
