                               Psi4 1.4a3.dev225

  ==> Input File <==

--------------------------------------------------------------------------
#psi4
#
memory 32 gb

molecule  {
0 1
  O        1.1896460     1.3864710    -0.7896670
  O       -2.9164350     0.0620530     0.2465870
  O       -1.2994600    -1.1722570    -0.7513140
  C        1.5277270    -0.5390120     0.6173550
  C        0.7330570     0.6116870     0.0446410
  C       -0.6915030     0.7929470     0.5540020
  C        2.9119880    -0.6669770    -0.0005940
  C       -1.6382760    -0.2330496    -0.0720000
  H        1.5906630    -0.3916430     1.7048170
  H        0.9378800    -1.4511620     0.4690430
  H       -0.7449460     0.6872940     1.6445860
  H       -1.0362610     1.7983420     0.2961770
  H        3.4930330     0.2441750     0.1549910
  H        3.4532110    -1.5066350     0.4428820
  H        2.8367130    -0.8315610    -1.0772290
  H       -3.4525110    -0.6329900    -0.1896390
units angstrom
no_reorient  #important for SAPT in psi4, default
symmetry c1  #important for SAPT in psi4, default
}

set PROPERTIES_ORIGIN ["COM"]
properties('MP2/aug-cc-pvtz', properties = ['dipole'])
--------------------------------------------------------------------------

    Molecular point group: c1
  Charge       = 0
  Multiplicity = 1
  Basis Set: AUG-CC-PVTZ
    Blend: AUG-CC-PVTZ
  Basis Set: (AUG-CC-PVTZ AUX)
    Blend: AUG-CC-PVTZ-JKFIT

    Orbital Energies [Eh]
    ---------------------

    Doubly Occupied:

       1A    -20.634955     2A    -20.571763     3A    -20.555508
       4A    -11.412637     5A    -11.342944     6A    -11.270422
       7A    -11.241533     8A    -11.217216     9A     -1.484192
      10A     -1.387925    11A     -1.382322    12A     -1.080662
      13A     -1.038447    14A     -0.900159    15A     -0.840444
      16A     -0.742105    17A     -0.720862    18A     -0.707862
      19A     -0.679427    20A     -0.649723    21A     -0.632823
      22A     -0.625043    23A     -0.598825    24A     -0.576582
      25A     -0.525198    26A     -0.517459    27A     -0.514995
      28A     -0.505681    29A     -0.490724    30A     -0.468438
      31A     -0.423151

  @DF-RHF Final Energy:  -418.76838463713017

   => Energetics <=

    Nuclear Repulsion Energy =            371.8253654211588355
    One-Electron Energy =               -1309.7074449441204251
    Two-Electron Energy =                 519.1136948858313644
    Total Energy =                       -418.7683846371302252
  Basis Set: (AUG-CC-PVTZ AUX)
    Blend: AUG-CC-PVTZ-RI
    Molecular point group: c1

    Geometry (in Angstrom), charge = 0, multiplicity = 1:

       Center              X                  Y                   Z               Mass
    ------------   -----------------  -----------------  -----------------  -----------------
         O            1.251306286625     1.370050778443    -0.759418282197    15.994914619570
         O           -2.854774713375     0.045632778443     0.276835717803    15.994914619570
         O           -1.237799713375    -1.188677221557    -0.721065282197    15.994914619570
         C            1.589387286625    -0.555432221557     0.647603717803    12.000000000000
         C            0.794717286625     0.595266778443     0.074889717803    12.000000000000
         C           -0.629842713375     0.776526778443     0.584250717803    12.000000000000
         C            2.973648286625    -0.683397221557     0.029654717803    12.000000000000
         C           -1.576615713375    -0.249469821557    -0.041751282197    12.000000000000
         H            1.652323286625    -0.408063221557     1.735065717803     1.007825032230
         H            0.999540286625    -1.467582221557     0.499291717803     1.007825032230
         H           -0.683285713375     0.670873778443     1.674834717803     1.007825032230
         H           -0.974600713375     1.781921778443     0.326425717803     1.007825032230
         H            3.554693286625     0.227754778443     0.185239717803     1.007825032230
         H            3.514871286625    -1.523055221557     0.473130717803     1.007825032230
         H            2.898373286625    -0.847981221557    -1.046980282197     1.007825032230
         H           -3.390850713375    -0.649410221557    -0.159390282197     1.007825032230

  Basis Set: AUG-CC-PVTZ
    Blend: AUG-CC-PVTZ
  Basis Set: (AUG-CC-PVTZ AUX)
    Blend: AUG-CC-PVTZ-JKFIT
	 Reference Energy          =    -418.7683846371301684 [Eh]
	 Singles Energy            =      -0.0000000000000000 [Eh]
	 Same-Spin Energy          =      -0.4078467410967292 [Eh]
	 Opposite-Spin Energy      =      -1.2860629623098538 [Eh]
	 Correlation Energy        =      -1.6939097034065831 [Eh]
	 Total Energy              =    -420.4622943405367437 [Eh]

	 ================> DF-SCS-MP2 Energies <==================
	-----------------------------------------------------------
	 SCS Same-Spin Scale       =       0.3333333333333333 [-]
	 SCS Opposite-Spin Scale   =       1.2000000000000000 [-]
	 SCS Same-Spin Energy      =      -0.1359489136989097 [Eh]
	 SCS Opposite-Spin Energy  =      -1.5432755547718247 [Eh]
	 SCS Correlation Energy    =      -1.6792244684707345 [Eh]
	 SCS Total Energy          =    -420.4476091056009182 [Eh]
	-----------------------------------------------------------

  Dipole Moment: [D]
     X:    -1.5262      Y:    -0.8672      Z:     2.5421     Total:     3.0892

*** Psi4 exiting successfully. Buy a developer a beer!
