                               Psi4 1.4a3.dev225

  ==> Input File <==

--------------------------------------------------------------------------
#psi4
#
memory 32 gb

molecule  {
0 1
  O        1.1896460     1.3864710    -0.7896670
  O       -2.9164350     0.0620530     0.2465870
  O       -1.2994600    -1.1722570    -0.7513140
  C        1.5277270    -0.5390120     0.6173550
  C        0.7330570     0.6116870     0.0446410
  C       -0.7382496     0.7988950     0.5707166
  C        2.9119880    -0.6669770    -0.0005940
  C       -1.6259000    -0.2196380    -0.0638170
  H        1.5906630    -0.3916430     1.7048170
  H        0.9378800    -1.4511620     0.4690430
  H       -0.7449460     0.6872940     1.6445860
  H       -1.0362610     1.7983420     0.2961770
  H        3.4930330     0.2441750     0.1549910
  H        3.4532110    -1.5066350     0.4428820
  H        2.8367130    -0.8315610    -1.0772290
  H       -3.4525110    -0.6329900    -0.1896390
units angstrom
no_reorient  #important for SAPT in psi4, default
symmetry c1  #important for SAPT in psi4, default
}

set PROPERTIES_ORIGIN ["COM"]
properties('MP2/aug-cc-pvtz', properties = ['dipole'])
--------------------------------------------------------------------------

    Molecular point group: c1
  Charge       = 0
  Multiplicity = 1
  Basis Set: AUG-CC-PVTZ
    Blend: AUG-CC-PVTZ
  Basis Set: (AUG-CC-PVTZ AUX)
    Blend: AUG-CC-PVTZ-JKFIT

    Orbital Energies [Eh]
    ---------------------

    Doubly Occupied:

       1A    -20.631120     2A    -20.571585     3A    -20.557212
       4A    -11.412668     5A    -11.346753     6A    -11.270077
       7A    -11.242706     8A    -11.217971     9A     -1.478413
      10A     -1.387280    11A     -1.375412    12A     -1.082113
      13A     -1.042873    14A     -0.900533    15A     -0.838458
      16A     -0.740344    17A     -0.719001    18A     -0.707936
      19A     -0.681769    20A     -0.645989    21A     -0.631753
      22A     -0.620981    23A     -0.601011    24A     -0.580972
      25A     -0.527674    26A     -0.518070    27A     -0.515670
      28A     -0.503093    29A     -0.490197    30A     -0.472142
      31A     -0.419577

  @DF-RHF Final Energy:  -418.76491304026092

   => Energetics <=

    Nuclear Repulsion Energy =            371.4263325975885550
    One-Electron Energy =               -1308.9197844280768095
    Two-Electron Energy =                 518.7285387902273897
    Total Energy =                       -418.7649130402609217
  Basis Set: (AUG-CC-PVTZ AUX)
    Blend: AUG-CC-PVTZ-RI
    Molecular point group: c1

    Geometry (in Angstrom), charge = 0, multiplicity = 1:

       Center              X                  Y                   Z               Mass
    ------------   -----------------  -----------------  -----------------  -----------------
         O            1.254860415357     1.368048878255    -0.761992845211    15.994914619570
         O           -2.851220584643     0.043630878255     0.274261154789    15.994914619570
         O           -1.234245584643    -1.190679121745    -0.723639845211    15.994914619570
         C            1.592941415357    -0.557434121745     0.645029154789    12.000000000000
         C            0.798271415357     0.593264878255     0.072315154789    12.000000000000
         C           -0.673035184643     0.780472878255     0.598390754789    12.000000000000
         C            2.977202415357    -0.685399121745     0.027080154789    12.000000000000
         C           -1.560685584643    -0.238060121745    -0.036142845211    12.000000000000
         H            1.655877415357    -0.410065121745     1.732491154789     1.007825032230
         H            1.003094415357    -1.469584121745     0.496717154789     1.007825032230
         H           -0.679731584643     0.668871878255     1.672260154789     1.007825032230
         H           -0.971046584643     1.779919878255     0.323851154789     1.007825032230
         H            3.558247415357     0.225752878255     0.182665154789     1.007825032230
         H            3.518425415357    -1.525057121745     0.470556154789     1.007825032230
         H            2.901927415357    -0.849983121745    -1.049554845211     1.007825032230
         H           -3.387296584643    -0.651412121745    -0.161964845211     1.007825032230

  Basis Set: AUG-CC-PVTZ
    Blend: AUG-CC-PVTZ
  Basis Set: (AUG-CC-PVTZ AUX)
    Blend: AUG-CC-PVTZ-JKFIT
	 Reference Energy          =    -418.7649130402609217 [Eh]
	 Singles Energy            =      -0.0000000000000000 [Eh]
	 Same-Spin Energy          =      -0.4082572875805727 [Eh]
	 Opposite-Spin Energy      =      -1.2870628257714087 [Eh]
	 Correlation Energy        =      -1.6953201133519813 [Eh]
	 Total Energy              =    -420.4602331536128759 [Eh]

	 ================> DF-SCS-MP2 Energies <==================
	-----------------------------------------------------------
	 SCS Same-Spin Scale       =       0.3333333333333333 [-]
	 SCS Opposite-Spin Scale   =       1.2000000000000000 [-]
	 SCS Same-Spin Energy      =      -0.1360857625268576 [Eh]
	 SCS Opposite-Spin Energy  =      -1.5444753909256905 [Eh]
	 SCS Correlation Energy    =      -1.6805611534525480 [Eh]
	 SCS Total Energy          =    -420.4454741937134941 [Eh]
	-----------------------------------------------------------

  Dipole Moment: [D]
     X:    -1.3421      Y:    -0.7977      Z:     2.5672     Total:     3.0047

*** Psi4 exiting successfully. Buy a developer a beer!
