                               Psi4 1.3.2 release

  ==> Input File <==

--------------------------------------------------------------------------
#psi4
#
memory 32 gb

molecule  {
0 1
  O        1.2197630    -1.3791890     0.7815710
  O       -2.8493200    -0.0743410    -0.2921690
  O       -1.2471260     1.2289340     0.6316900
  C        1.6098530     0.5514350    -0.6010430
  C        0.7885712    -0.6696822    -0.0305033
  C       -0.6155180    -0.7660970    -0.6108670
  C        2.9660570     0.6794250     0.0724790
  C       -1.5616300     0.2444870    -0.0131750
  H        1.7167540     0.3993790    -1.6843760
  H        1.0152770     1.4637510    -0.4819620
  H       -0.6366420    -0.6467360    -1.7011060
  H       -0.9220730    -1.7822621    -0.3502760
  H        3.5474250    -0.2360290    -0.0491480
  H        3.5302360     1.5116820    -0.3550310
  H        2.8465530     0.8548240     1.1430380
  H       -3.3901630     0.6286630     0.1252190
units angstrom
no_reorient  #important for SAPT in psi4, default
symmetry c1  #important for SAPT in psi4, default
}

set PROPERTIES_ORIGIN ["COM"]
properties('MP2/aug-cc-pvtz', properties = ['dipole'])
--------------------------------------------------------------------------

    Molecular point group: c1
  Charge       = 0
  Multiplicity = 1
  Basis Set: AUG-CC-PVTZ
    Blend: AUG-CC-PVTZ
  Basis Set: (AUG-CC-PVTZ AUX)
    Blend: AUG-CC-PVTZ-JKFIT

    Orbital Energies [Eh]
    ---------------------

    Doubly Occupied:

       1A    -20.632620     2A    -20.569949     3A    -20.562631
       4A    -11.413659     5A    -11.338391     6A    -11.268772
       7A    -11.235912     8A    -11.213469     9A     -1.479098
      10A     -1.435291    11A     -1.375858    12A     -1.078905
      13A     -1.033451    14A     -0.890727    15A     -0.838238
      16A     -0.743251    17A     -0.720500    18A     -0.707935
      19A     -0.685655    20A     -0.648160    21A     -0.638648
      22A     -0.627799    23A     -0.596968    24A     -0.580909
      25A     -0.538783    26A     -0.528034    27A     -0.513336
      28A     -0.502226    29A     -0.491422    30A     -0.470558
      31A     -0.408472

  @DF-RHF Final Energy:  -418.76450539913697

   => Energetics <=

    Nuclear Repulsion Energy =            372.4383539437184822
    One-Electron Energy =               -1310.8664638423008455
    Two-Electron Energy =                 519.6636044994453414
    Total Energy =                       -418.7645053991369650
  Basis Set: (AUG-CC-PVTZ AUX)
    Blend: AUG-CC-PVTZ-RI
    Molecular point group: c1

    Geometry (in Angstrom), charge = 0, multiplicity = 1:

       Center              X                  Y                   Z               Mass
    ------------   -----------------  -----------------  -----------------  -----------------
         O            1.219733901337    -1.371371966982     0.778515567180    15.994914619570
         O           -2.849349098663    -0.066523966982    -0.295224432820    15.994914619570
         O           -1.247155098663     1.236751033018     0.628634567180    15.994914619570
         C            1.609823901337     0.559252033018    -0.604098432820    12.000000000000
         C            0.788542101337    -0.661865166982    -0.033558732820    12.000000000000
         C           -0.615547098663    -0.758279966982    -0.613922432820    12.000000000000
         C            2.966027901337     0.687242033018     0.069423567180    12.000000000000
         C           -1.561659098663     0.252304033018    -0.016230432820    12.000000000000
         H            1.716724901337     0.407196033018    -1.687431432820     1.007825032230
         H            1.015247901337     1.471568033018    -0.485017432820     1.007825032230
         H           -0.636671098663    -0.638918966982    -1.704161432820     1.007825032230
         H           -0.922102098663    -1.774445066982    -0.353331432820     1.007825032230
         H            3.547395901337    -0.228211966982    -0.052203432820     1.007825032230
         H            3.530206901337     1.519499033018    -0.358086432820     1.007825032230
         H            2.846523901337     0.862641033018     1.139982567180     1.007825032230
         H           -3.390192098663     0.636480033018     0.122163567180     1.007825032230

  Basis Set: AUG-CC-PVTZ
    Blend: AUG-CC-PVTZ
  Basis Set: (AUG-CC-PVTZ AUX)
    Blend: AUG-CC-PVTZ-JKFIT
	 Reference Energy          =    -418.7645053991369650 [Eh]
	 Singles Energy            =      -0.0000000000000000 [Eh]
	 Same-Spin Energy          =      -0.4066010836132893 [Eh]
	 Opposite-Spin Energy      =      -1.2832856130498542 [Eh]
	 Correlation Energy        =      -1.6898866966631436 [Eh]
	 Total Energy              =    -420.4543920958001308 [Eh]

	 ================> DF-SCS-MP2 Energies <==================
	-----------------------------------------------------------
	 SCS Same-Spin Scale       =       0.3333333333333333 [-]
	 SCS Opposite-Spin Scale   =       1.2000000000000000 [-]
	 SCS Same-Spin Energy      =      -0.1355336945377631 [Eh]
	 SCS Opposite-Spin Energy  =      -1.5399427356598250 [Eh]
	 SCS Correlation Energy    =      -1.6754764301975880 [Eh]
	 SCS Total Energy          =    -420.4399818293345561 [Eh]
	-----------------------------------------------------------

  Dipole Moment: [D]
     X:    -1.4115      Y:     0.4833      Z:    -2.3405     Total:     2.7756

*** Psi4 exiting successfully. Buy a developer a beer!
