                               Psi4 1.3.2 release

  ==> Input File <==

--------------------------------------------------------------------------
#psi4
#
memory 32 gb

molecule  {
0 1
  O        1.2750665    -1.3466443     0.7813743
  O       -2.8493200    -0.0743410    -0.2921690
  O       -1.2471260     1.2289340     0.6316900
  C        1.6692558     0.5285222    -0.5542653
  C        0.7924890    -0.5949300    -0.0578730
  C       -0.6155180    -0.7660970    -0.6108670
  C        2.9660570     0.6794250     0.0724790
  C       -1.5616300     0.2444870    -0.0131750
  H        1.7167540     0.3993790    -1.6843760
  H        1.0152770     1.4637510    -0.4819620
  H       -0.6366420    -0.6467360    -1.7011060
  H       -0.9720840    -1.7722110    -0.3761960
  H        3.5474250    -0.2360290    -0.0491480
  H        3.5302360     1.5116820    -0.3550310
  H        2.8465530     0.8548240     1.1430380
  H       -3.3901630     0.6286630     0.1252190
units angstrom
no_reorient  #important for SAPT in psi4, default
symmetry c1  #important for SAPT in psi4, default
}

set PROPERTIES_ORIGIN ["COM"]
properties('MP2/aug-cc-pvtz', properties = ['dipole'])
--------------------------------------------------------------------------

    Molecular point group: c1
  Charge       = 0
  Multiplicity = 1
  Basis Set: AUG-CC-PVTZ
    Blend: AUG-CC-PVTZ
  Basis Set: (AUG-CC-PVTZ AUX)
    Blend: AUG-CC-PVTZ-JKFIT

    Orbital Energies [Eh]
    ---------------------

    Doubly Occupied:

       1A    -20.634435     2A    -20.571675     3A    -20.553653
       4A    -11.415268     5A    -11.343218     6A    -11.276814
       7A    -11.242698     8A    -11.212010     9A     -1.480983
      10A     -1.388450    11A     -1.377224    12A     -1.086400
      13A     -1.051299    14A     -0.901660    15A     -0.839537
      16A     -0.739335    17A     -0.720142    18A     -0.708306
      19A     -0.681633    20A     -0.651973    21A     -0.628917
      22A     -0.626321    23A     -0.599343    24A     -0.580139
      25A     -0.542275    26A     -0.516761    27A     -0.511984
      28A     -0.501518    29A     -0.482926    30A     -0.461847
      31A     -0.422254

  @DF-RHF Final Energy:  -418.75846665126426

   => Energetics <=

    Nuclear Repulsion Energy =            372.6150434402279075
    One-Electron Energy =               -1311.2450213716456346
    Two-Electron Energy =                 519.8715112801534133
    Total Energy =                       -418.7584666512642571
  Basis Set: (AUG-CC-PVTZ AUX)
    Blend: AUG-CC-PVTZ-RI
    Molecular point group: c1

    Geometry (in Angstrom), charge = 0, multiplicity = 1:

       Center              X                  Y                   Z               Mass
    ------------   -----------------  -----------------  -----------------  -----------------
         O            1.261301459035    -1.348760732128     0.776564178375    15.994914619570
         O           -2.863085040965    -0.076457432128    -0.296979121625    15.994914619570
         O           -1.260891040965     1.226817567872     0.626879878375    15.994914619570
         C            1.655490759035     0.526405767872    -0.559075421625    12.000000000000
         C            0.778723959035    -0.597046432128    -0.062683121625    12.000000000000
         C           -0.629283040965    -0.768213432128    -0.615677121625    12.000000000000
         C            2.952291959035     0.677308567872     0.067668878375    12.000000000000
         C           -1.575395040965     0.242370567872    -0.017985121625    12.000000000000
         H            1.702988959035     0.397262567872    -1.689186121625     1.007825032230
         H            1.001511959035     1.461634567872    -0.486772121625     1.007825032230
         H           -0.650407040965    -0.648852432128    -1.705916121625     1.007825032230
         H           -0.985849040965    -1.774327432128    -0.381006121625     1.007825032230
         H            3.533659959035    -0.238145432128    -0.053958121625     1.007825032230
         H            3.516470959035     1.509565567872    -0.359841121625     1.007825032230
         H            2.832787959035     0.852707567872     1.138227878375     1.007825032230
         H           -3.403928040965     0.626546567872     0.120408878375     1.007825032230

  Basis Set: AUG-CC-PVTZ
    Blend: AUG-CC-PVTZ
  Basis Set: (AUG-CC-PVTZ AUX)
    Blend: AUG-CC-PVTZ-JKFIT
	 Reference Energy          =    -418.7584666512642571 [Eh]
	 Singles Energy            =      -0.0000000000000000 [Eh]
	 Same-Spin Energy          =      -0.4091067387635301 [Eh]
	 Opposite-Spin Energy      =      -1.2876099148256164 [Eh]
	 Correlation Energy        =      -1.6967166535891465 [Eh]
	 Total Energy              =    -420.4551833048533922 [Eh]

	 ================> DF-SCS-MP2 Energies <==================
	-----------------------------------------------------------
	 SCS Same-Spin Scale       =       0.3333333333333333 [-]
	 SCS Opposite-Spin Scale   =       1.2000000000000000 [-]
	 SCS Same-Spin Energy      =      -0.1363689129211767 [Eh]
	 SCS Opposite-Spin Energy  =      -1.5451318977907396 [Eh]
	 SCS Correlation Energy    =      -1.6815008107119163 [Eh]
	 SCS Total Energy          =    -420.4399674619761527 [Eh]
	-----------------------------------------------------------

  Dipole Moment: [D]
     X:    -1.4988      Y:     0.7291      Z:    -2.5366     Total:     3.0352

*** Psi4 exiting successfully. Buy a developer a beer!
