                               Psi4 1.4a3.dev225

  ==> Input File <==

--------------------------------------------------------------------------
#psi4
#
memory 32 gb

molecule  {
0 1
  O        1.1896460     1.3864710    -0.7896670
  O       -2.9164350     0.0620530     0.2465870
  O       -1.2994600    -1.1722570    -0.7513140
  C        1.5277270    -0.5390120     0.6173550
  C        0.7144468     0.5801074     0.0786467
  C       -0.6915030     0.7929470     0.5540020
  C        2.9119880    -0.6669770    -0.0005940
  C       -1.6259000    -0.2196380    -0.0638170
  H        1.5906630    -0.3916430     1.7048170
  H        0.9378800    -1.4511620     0.4690430
  H       -0.7449460     0.6872940     1.6445860
  H       -1.0362610     1.7983420     0.2961770
  H        3.4930330     0.2441750     0.1549910
  H        3.4532110    -1.5066350     0.4428820
  H        2.8367130    -0.8315610    -1.0772290
  H       -3.4525110    -0.6329900    -0.1896390
units angstrom
no_reorient  #important for SAPT in psi4, default
symmetry c1  #important for SAPT in psi4, default
}

set PROPERTIES_ORIGIN ["COM"]
properties('MP2/aug-cc-pvtz', properties = ['dipole'])
--------------------------------------------------------------------------

    Molecular point group: c1
  Charge       = 0
  Multiplicity = 1
  Basis Set: AUG-CC-PVTZ
    Blend: AUG-CC-PVTZ
  Basis Set: (AUG-CC-PVTZ AUX)
    Blend: AUG-CC-PVTZ-JKFIT

    Orbital Energies [Eh]
    ---------------------

    Doubly Occupied:

       1A    -20.634522     2A    -20.572524     3A    -20.552589
       4A    -11.415956     5A    -11.348227     6A    -11.274821
       7A    -11.244464     8A    -11.219106     9A     -1.480288
      10A     -1.378311    11A     -1.355082    12A     -1.091551
      13A     -1.046078    14A     -0.907653    15A     -0.843912
      16A     -0.742690    17A     -0.720206    18A     -0.709108
      19A     -0.680153    20A     -0.649093    21A     -0.633421
      22A     -0.619317    23A     -0.600202    24A     -0.572721
      25A     -0.526678    26A     -0.515970    27A     -0.511844
      28A     -0.501054    29A     -0.485563    30A     -0.464454
      31A     -0.430717

  @DF-RHF Final Energy:  -418.75781524035114

   => Energetics <=

    Nuclear Repulsion Energy =            371.7175810770810926
    One-Electron Energy =               -1309.4942428784081585
    Two-Electron Energy =                 519.0188465609759305
    Total Energy =                       -418.7578152403510785
  Basis Set: (AUG-CC-PVTZ AUX)
    Blend: AUG-CC-PVTZ-RI
    Molecular point group: c1

    Geometry (in Angstrom), charge = 0, multiplicity = 1:

       Center              X                  Y                   Z               Mass
    ------------   -----------------  -----------------  -----------------  -----------------
         O            1.251950940758     1.371929459955    -0.763780849939    15.994914619570
         O           -2.854130059242     0.047511459955     0.272473150061    15.994914619570
         O           -1.237155059242    -1.186798540045    -0.725427849939    15.994914619570
         C            1.590031940758    -0.553553540045     0.643241150061    12.000000000000
         C            0.776751740758     0.565565859955     0.104532850061    12.000000000000
         C           -0.629198059242     0.778405459955     0.579888150061    12.000000000000
         C            2.974292940758    -0.681518540045     0.025292150061    12.000000000000
         C           -1.563595059242    -0.234179540045    -0.037930849939    12.000000000000
         H            1.652967940758    -0.406184540045     1.730703150061     1.007825032230
         H            1.000184940758    -1.465703540045     0.494929150061     1.007825032230
         H           -0.682641059242     0.672752459955     1.670472150061     1.007825032230
         H           -0.973956059242     1.783800459955     0.322063150061     1.007825032230
         H            3.555337940758     0.229633459955     0.180877150061     1.007825032230
         H            3.515515940758    -1.521176540045     0.468768150061     1.007825032230
         H            2.899017940758    -0.846102540045    -1.051342849939     1.007825032230
         H           -3.390206059242    -0.647531540045    -0.163752849939     1.007825032230

  Basis Set: AUG-CC-PVTZ
    Blend: AUG-CC-PVTZ
  Basis Set: (AUG-CC-PVTZ AUX)
    Blend: AUG-CC-PVTZ-JKFIT
	 Reference Energy          =    -418.7578152403511353 [Eh]
	 Singles Energy            =      -0.0000000000000000 [Eh]
	 Same-Spin Energy          =      -0.4098900702897824 [Eh]
	 Opposite-Spin Energy      =      -1.2901999202261585 [Eh]
	 Correlation Energy        =      -1.7000899905159410 [Eh]
	 Total Energy              =    -420.4579052308670839 [Eh]

	 ================> DF-SCS-MP2 Energies <==================
	-----------------------------------------------------------
	 SCS Same-Spin Scale       =       0.3333333333333333 [-]
	 SCS Opposite-Spin Scale   =       1.2000000000000000 [-]
	 SCS Same-Spin Energy      =      -0.1366300234299275 [Eh]
	 SCS Opposite-Spin Energy  =      -1.5482399042713901 [Eh]
	 SCS Correlation Energy    =      -1.6848699277013175 [Eh]
	 SCS Total Energy          =    -420.4426851680524351 [Eh]
	-----------------------------------------------------------

  Dipole Moment: [D]
     X:    -1.5083      Y:    -0.9349      Z:     2.7049     Total:     3.2351

*** Psi4 exiting successfully. Buy a developer a beer!
