                               Psi4 1.3.2 release

  ==> Input File <==

--------------------------------------------------------------------------
#psi4
#
memory 32 gb

molecule  {
0 1
  O        1.2197630    -1.3791890     0.7815710
  O       -2.8493200    -0.0743410    -0.2921690
  O       -1.2471260     1.2289340     0.6316900
  C        1.6098530     0.5514350    -0.6010430
  C        0.7924890    -0.5949300    -0.0578730
  C       -0.6155180    -0.7660970    -0.6108670
  C        2.9660570     0.6794250     0.0724790
  C       -1.5906535     0.2048168     0.0056399
  H        1.7167540     0.3993790    -1.6843760
  H        1.0152770     1.4637510    -0.4819620
  H       -0.6366420    -0.6467360    -1.7011060
  H       -1.0015013    -1.7567025    -0.3575040
  H        3.5474250    -0.2360290    -0.0491480
  H        3.5302360     1.5116820    -0.3550310
  H        2.8465530     0.8548240     1.1430380
  H       -3.3901630     0.6286630     0.1252190
units angstrom
no_reorient  #important for SAPT in psi4, default
symmetry c1  #important for SAPT in psi4, default
}

set PROPERTIES_ORIGIN ["COM"]
properties('MP2/aug-cc-pvtz', properties = ['dipole'])
--------------------------------------------------------------------------

    Molecular point group: c1
  Charge       = 0
  Multiplicity = 1
  Basis Set: AUG-CC-PVTZ
    Blend: AUG-CC-PVTZ
  Basis Set: (AUG-CC-PVTZ AUX)
    Blend: AUG-CC-PVTZ-JKFIT

    Orbital Energies [Eh]
    ---------------------

    Doubly Occupied:

       1A    -20.642460     2A    -20.563021     3A    -20.556032
       4A    -11.414868     5A    -11.343969     6A    -11.271458
       7A    -11.240082     8A    -11.216219     9A     -1.489837
      10A     -1.388195    11A     -1.362026    12A     -1.084226
      13A     -1.042011    14A     -0.904324    15A     -0.847557
      16A     -0.743925    17A     -0.720691    18A     -0.706298
      19A     -0.683094    20A     -0.651481    21A     -0.630878
      22A     -0.628133    23A     -0.590701    24A     -0.579062
      25A     -0.525943    26A     -0.517100    27A     -0.513522
      28A     -0.496904    29A     -0.484840    30A     -0.464796
      31A     -0.424652

  @DF-RHF Final Energy:  -418.76347544296823

   => Energetics <=

    Nuclear Repulsion Energy =            372.0785599312911813
    One-Electron Energy =               -1310.2274610142330857
    Two-Electron Energy =                 519.3854256399736187
    Total Energy =                       -418.7634754429682289
  Basis Set: (AUG-CC-PVTZ AUX)
    Blend: AUG-CC-PVTZ-RI
    Molecular point group: c1

    Geometry (in Angstrom), charge = 0, multiplicity = 1:

       Center              X                  Y                   Z               Mass
    ------------   -----------------  -----------------  -----------------  -----------------
         O            1.223019786351    -1.375221633755     0.779462957748    15.994914619570
         O           -2.846063213649    -0.070373633755    -0.294277042252    15.994914619570
         O           -1.243869213649     1.232901366245     0.629581957748    15.994914619570
         C            1.613109786351     0.555402366245    -0.603151042252    12.000000000000
         C            0.795745786351    -0.590962633755    -0.059981042252    12.000000000000
         C           -0.612261213649    -0.762129633755    -0.612975042252    12.000000000000
         C            2.969313786351     0.683392366245     0.070370957748    12.000000000000
         C           -1.587396713649     0.208784166245     0.003531857748    12.000000000000
         H            1.720010786351     0.403346366245    -1.686484042252     1.007825032230
         H            1.018533786351     1.467718366245    -0.484070042252     1.007825032230
         H           -0.633385213649    -0.642768633755    -1.703214042252     1.007825032230
         H           -0.998244513649    -1.752735133755    -0.359612042252     1.007825032230
         H            3.550681786351    -0.232061633755    -0.051256042252     1.007825032230
         H            3.533492786351     1.515649366245    -0.357139042252     1.007825032230
         H            2.849809786351     0.858791366245     1.140929957748     1.007825032230
         H           -3.386906213649     0.632630366245     0.123110957748     1.007825032230

  Basis Set: AUG-CC-PVTZ
    Blend: AUG-CC-PVTZ
  Basis Set: (AUG-CC-PVTZ AUX)
    Blend: AUG-CC-PVTZ-JKFIT
	 Reference Energy          =    -418.7634754429682289 [Eh]
	 Singles Energy            =      -0.0000000000000000 [Eh]
	 Same-Spin Energy          =      -0.4086491189247348 [Eh]
	 Opposite-Spin Energy      =      -1.2872561094415234 [Eh]
	 Correlation Energy        =      -1.6959052283662581 [Eh]
	 Total Energy              =    -420.4593806713344861 [Eh]

	 ================> DF-SCS-MP2 Energies <==================
	-----------------------------------------------------------
	 SCS Same-Spin Scale       =       0.3333333333333333 [-]
	 SCS Opposite-Spin Scale   =       1.2000000000000000 [-]
	 SCS Same-Spin Energy      =      -0.1362163729749116 [Eh]
	 SCS Opposite-Spin Energy  =      -1.5447073313298281 [Eh]
	 SCS Correlation Energy    =      -1.6809237043047396 [Eh]
	 SCS Total Energy          =    -420.4443991472729749 [Eh]
	-----------------------------------------------------------

  Dipole Moment: [D]
     X:    -1.6124      Y:     0.6393      Z:    -2.6157     Total:     3.1385

*** Psi4 exiting successfully. Buy a developer a beer!
