                               Psi4 1.3.2 release

  ==> Input File <==

--------------------------------------------------------------------------
#psi4
#
memory 32 gb

molecule  {
0 1
  O        1.2197630    -1.3791890     0.7815710
  O       -2.8493200    -0.0743410    -0.2921690
  O       -1.2471260     1.2289340     0.6316900
  C        1.6098530     0.5514350    -0.6010430
  C        0.8022695    -0.5978923    -0.0495670
  C       -0.6155180    -0.7660970    -0.6108670
  C        2.9631925     0.6689607     0.0801050
  C       -1.5616300     0.2444870    -0.0131750
  H        1.7167540     0.3993790    -1.6843760
  H        1.0152770     1.4637510    -0.4819620
  H       -0.6366420    -0.6467360    -1.7011060
  H       -0.9720840    -1.7722110    -0.3761960
  H        3.5474250    -0.2360290    -0.0491480
  H        3.5302360     1.5116820    -0.3550310
  H        2.8465530     0.8548240     1.1430380
  H       -3.3901630     0.6286630     0.1252190
units angstrom
no_reorient  #important for SAPT in psi4, default
symmetry c1  #important for SAPT in psi4, default
}

set PROPERTIES_ORIGIN ["COM"]
properties('MP2/aug-cc-pvtz', properties = ['dipole'])
--------------------------------------------------------------------------

    Molecular point group: c1
  Charge       = 0
  Multiplicity = 1
  Basis Set: AUG-CC-PVTZ
    Blend: AUG-CC-PVTZ
  Basis Set: (AUG-CC-PVTZ AUX)
    Blend: AUG-CC-PVTZ-JKFIT

    Orbital Energies [Eh]
    ---------------------

    Doubly Occupied:

       1A    -20.632208     2A    -20.569665     3A    -20.557555
       4A    -11.412497     5A    -11.343113     6A    -11.270148
       7A    -11.240971     8A    -11.217133     9A     -1.478823
      10A     -1.396285    11A     -1.375566    12A     -1.083114
      13A     -1.041364    14A     -0.900695    15A     -0.838329
      16A     -0.742544    17A     -0.719427    18A     -0.706629
      19A     -0.680691    20A     -0.648216    21A     -0.633377
      22A     -0.627573    23A     -0.598324    24A     -0.576800
      25A     -0.522714    26A     -0.521657    27A     -0.517543
      28A     -0.503681    29A     -0.492000    30A     -0.469253
      31A     -0.422543

  @DF-RHF Final Energy:  -418.76863437427545

   => Energetics <=

    Nuclear Repulsion Energy =            372.3545543824658353
    One-Electron Energy =               -1310.7655068367237163
    Two-Electron Energy =                 519.6423180799824877
    Total Energy =                       -418.7686343742753934
  Basis Set: (AUG-CC-PVTZ AUX)
    Blend: AUG-CC-PVTZ-RI
    Molecular point group: c1

    Geometry (in Angstrom), charge = 0, multiplicity = 1:

       Center              X                  Y                   Z               Mass
    ------------   -----------------  -----------------  -----------------  -----------------
         O            1.219047946282    -1.377800696186     0.779923399699    15.994914619570
         O           -2.850035053718    -0.072952696186    -0.293816600301    15.994914619570
         O           -1.247841053718     1.230322303814     0.630042399699    15.994914619570
         C            1.609137946282     0.552823303814    -0.602690600301    12.000000000000
         C            0.801554446282    -0.596503996186    -0.051214600301    12.000000000000
         C           -0.616233053718    -0.764708696186    -0.612514600301    12.000000000000
         C            2.962477446282     0.670349003814     0.078457399699    12.000000000000
         C           -1.562345053718     0.245875303814    -0.014822600301    12.000000000000
         H            1.716038946282     0.400767303814    -1.686023600301     1.007825032230
         H            1.014561946282     1.465139303814    -0.483609600301     1.007825032230
         H           -0.637357053718    -0.645347696186    -1.702753600301     1.007825032230
         H           -0.972799053718    -1.770822696186    -0.377843600301     1.007825032230
         H            3.546709946282    -0.234640696186    -0.050795600301     1.007825032230
         H            3.529520946282     1.513070303814    -0.356678600301     1.007825032230
         H            2.845837946282     0.856212303814     1.141390399699     1.007825032230
         H           -3.390878053718     0.630051303814     0.123571399699     1.007825032230

  Basis Set: AUG-CC-PVTZ
    Blend: AUG-CC-PVTZ
  Basis Set: (AUG-CC-PVTZ AUX)
    Blend: AUG-CC-PVTZ-JKFIT
	 Reference Energy          =    -418.7686343742754502 [Eh]
	 Singles Energy            =      -0.0000000000000000 [Eh]
	 Same-Spin Energy          =      -0.4079136897594979 [Eh]
	 Opposite-Spin Energy      =      -1.2858933363915859 [Eh]
	 Correlation Energy        =      -1.6938070261510838 [Eh]
	 Total Energy              =    -420.4624414004265418 [Eh]

	 ================> DF-SCS-MP2 Energies <==================
	-----------------------------------------------------------
	 SCS Same-Spin Scale       =       0.3333333333333333 [-]
	 SCS Opposite-Spin Scale   =       1.2000000000000000 [-]
	 SCS Same-Spin Energy      =      -0.1359712299198326 [Eh]
	 SCS Opposite-Spin Energy  =      -1.5430720036699030 [Eh]
	 SCS Correlation Energy    =      -1.6790432335897356 [Eh]
	 SCS Total Energy          =    -420.4476776078651596 [Eh]
	-----------------------------------------------------------

  Dipole Moment: [D]
     X:    -1.2956      Y:     0.7577      Z:    -2.5263     Total:     2.9385

*** Psi4 exiting successfully. Buy a developer a beer!
