                               Psi4 1.4a3.dev225

  ==> Input File <==

--------------------------------------------------------------------------
#psi4
#
memory 32 gb

molecule  {
0 1
  O        1.1896460     1.3864710    -0.7896670
  O       -2.9164350     0.0620530     0.2465870
  O       -1.2994600    -1.1722570    -0.7513140
  C        1.5277270    -0.5390120     0.6173550
  C        0.7330570     0.6116870     0.0446410
  C       -0.7102016     0.7953262     0.5606878
  C        2.9119880    -0.6669770    -0.0005940
  C       -1.6259000    -0.2196380    -0.0638170
  H        1.5906630    -0.3916430     1.7048170
  H        0.9378800    -1.4511620     0.4690430
  H       -0.7449460     0.6872940     1.6445860
  H       -1.0362610     1.7983420     0.2961770
  H        3.4930330     0.2441750     0.1549910
  H        3.4532110    -1.5066350     0.4428820
  H        2.8367130    -0.8315610    -1.0772290
  H       -3.4525110    -0.6329900    -0.1896390
units angstrom
no_reorient  #important for SAPT in psi4, default
symmetry c1  #important for SAPT in psi4, default
}

set PROPERTIES_ORIGIN ["COM"]
properties('MP2/aug-cc-pvtz', properties = ['dipole'])
--------------------------------------------------------------------------

    Molecular point group: c1
  Charge       = 0
  Multiplicity = 1
  Basis Set: AUG-CC-PVTZ
    Blend: AUG-CC-PVTZ
  Basis Set: (AUG-CC-PVTZ AUX)
    Blend: AUG-CC-PVTZ-JKFIT

    Orbital Energies [Eh]
    ---------------------

    Doubly Occupied:

       1A    -20.632229     2A    -20.571032     3A    -20.556917
       4A    -11.413356     5A    -11.345391     6A    -11.271079
       7A    -11.242404     8A    -11.217804     9A     -1.478510
      10A     -1.387771    11A     -1.375460    12A     -1.083409
      13A     -1.042024    14A     -0.901065    15A     -0.839353
      16A     -0.741377    17A     -0.719237    18A     -0.707330
      19A     -0.680591    20A     -0.647915    21A     -0.631855
      22A     -0.623745    23A     -0.599481    24A     -0.578566
      25A     -0.526736    26A     -0.517843    27A     -0.515621
      28A     -0.503011    29A     -0.490102    30A     -0.470676
      31A     -0.422673

  @DF-RHF Final Energy:  -418.76701432966985

   => Energetics <=

    Nuclear Repulsion Energy =            371.6658365019579264
    One-Electron Energy =               -1309.3965757132293675
    Two-Electron Energy =                 518.9637248816014790
    Total Energy =                       -418.7670143296699052
  Basis Set: (AUG-CC-PVTZ AUX)
    Blend: AUG-CC-PVTZ-RI
    Molecular point group: c1

    Geometry (in Angstrom), charge = 0, multiplicity = 1:

       Center              X                  Y                   Z               Mass
    ------------   -----------------  -----------------  -----------------  -----------------
         O            1.251960081855     1.368417913844    -0.760955806398    15.994914619570
         O           -2.854120918145     0.043999913844     0.275298193602    15.994914619570
         O           -1.237145918145    -1.190310086156    -0.722602806398    15.994914619570
         C            1.590041081855    -0.557065086156     0.646066193602    12.000000000000
         C            0.795371081855     0.593633913844     0.073352193602    12.000000000000
         C           -0.647887518145     0.777273113844     0.589398993602    12.000000000000
         C            2.974302081855    -0.685030086156     0.028117193602    12.000000000000
         C           -1.563585918145    -0.237691086156    -0.035105806398    12.000000000000
         H            1.652977081855    -0.409696086156     1.733528193602     1.007825032230
         H            1.000194081855    -1.469215086156     0.497754193602     1.007825032230
         H           -0.682631918145     0.669240913844     1.673297193602     1.007825032230
         H           -0.973946918145     1.780288913844     0.324888193602     1.007825032230
         H            3.555347081855     0.226121913844     0.183702193602     1.007825032230
         H            3.515525081855    -1.524688086156     0.471593193602     1.007825032230
         H            2.899027081855    -0.849614086156    -1.048517806398     1.007825032230
         H           -3.390196918145    -0.651043086156    -0.160927806398     1.007825032230

  Basis Set: AUG-CC-PVTZ
    Blend: AUG-CC-PVTZ
  Basis Set: (AUG-CC-PVTZ AUX)
    Blend: AUG-CC-PVTZ-JKFIT
	 Reference Energy          =    -418.7670143296698484 [Eh]
	 Singles Energy            =      -0.0000000000000000 [Eh]
	 Same-Spin Energy          =      -0.4081992609459973 [Eh]
	 Opposite-Spin Energy      =      -1.2868457071818806 [Eh]
	 Correlation Energy        =      -1.6950449681278781 [Eh]
	 Total Energy              =    -420.4620592977977367 [Eh]

	 ================> DF-SCS-MP2 Energies <==================
	-----------------------------------------------------------
	 SCS Same-Spin Scale       =       0.3333333333333333 [-]
	 SCS Opposite-Spin Scale   =       1.2000000000000000 [-]
	 SCS Same-Spin Energy      =      -0.1360664203153324 [Eh]
	 SCS Opposite-Spin Energy  =      -1.5442148486182568 [Eh]
	 SCS Correlation Energy    =      -1.6802812689335891 [Eh]
	 SCS Total Energy          =    -420.4472955986034322 [Eh]
	-----------------------------------------------------------

  Dipole Moment: [D]
     X:    -1.3932      Y:    -0.7962      Z:     2.5771     Total:     3.0358

*** Psi4 exiting successfully. Buy a developer a beer!
