                               Psi4 1.4a3.dev225

  ==> Input File <==

--------------------------------------------------------------------------
#psi4
#
memory 32 gb

molecule  {
0 1
  O        1.1896460     1.3864710    -0.7896670
  O       -2.9164350     0.0620530     0.2465870
  O       -1.2994600    -1.1722570    -0.7513140
  C        1.5277270    -0.5390120     0.6173550
  C        0.7405011     0.6243188     0.0310387
  C       -0.6915030     0.7929470     0.5540020
  C        2.9119880    -0.6669770    -0.0005940
  C       -1.6259000    -0.2196380    -0.0638170
  H        1.5906630    -0.3916430     1.7048170
  H        0.9378800    -1.4511620     0.4690430
  H       -0.7449460     0.6872940     1.6445860
  H       -1.0362610     1.7983420     0.2961770
  H        3.4930330     0.2441750     0.1549910
  H        3.4532110    -1.5066350     0.4428820
  H        2.8367130    -0.8315610    -1.0772290
  H       -3.4525110    -0.6329900    -0.1896390
units angstrom
no_reorient  #important for SAPT in psi4, default
symmetry c1  #important for SAPT in psi4, default
}

set PROPERTIES_ORIGIN ["COM"]
properties('MP2/aug-cc-pvtz', properties = ['dipole'])
--------------------------------------------------------------------------

    Molecular point group: c1
  Charge       = 0
  Multiplicity = 1
  Basis Set: AUG-CC-PVTZ
    Blend: AUG-CC-PVTZ
  Basis Set: (AUG-CC-PVTZ AUX)
    Blend: AUG-CC-PVTZ-JKFIT

    Orbital Energies [Eh]
    ---------------------

    Doubly Occupied:

       1A    -20.632341     2A    -20.569915     3A    -20.558357
       4A    -11.413025     5A    -11.342867     6A    -11.270523
       7A    -11.241249     8A    -11.217138     9A     -1.477909
      10A     -1.401579    11A     -1.375133    12A     -1.081502
      13A     -1.039698    14A     -0.898883    15A     -0.838541
      16A     -0.742131    17A     -0.719104    18A     -0.706094
      19A     -0.680185    20A     -0.649671    21A     -0.631959
      22A     -0.628113    23A     -0.597693    24A     -0.577659
      25A     -0.526593    26A     -0.521884    27A     -0.516191
      28A     -0.503320    29A     -0.490980    30A     -0.470033
      31A     -0.421025

  @DF-RHF Final Energy:  -418.76910327118742

   => Energetics <=

    Nuclear Repulsion Energy =            371.8902360470265762
    One-Electron Energy =               -1309.8360862867705237
    Two-Electron Energy =                 519.1767469685565857
    Total Energy =                       -418.7691032711874186
  Basis Set: (AUG-CC-PVTZ AUX)
    Blend: AUG-CC-PVTZ-RI
    Molecular point group: c1

    Geometry (in Angstrom), charge = 0, multiplicity = 1:

       Center              X                  Y                   Z               Mass
    ------------   -----------------  -----------------  -----------------  -----------------
         O            1.249256767941     1.367357732752    -0.758857893672    15.994914619570
         O           -2.856824232059     0.042939732752     0.277396106328    15.994914619570
         O           -1.239849232059    -1.191370267248    -0.720504893672    15.994914619570
         C            1.587337767941    -0.558125267248     0.648164106328    12.000000000000
         C            0.800111867941     0.605205532752     0.061847806328    12.000000000000
         C           -0.631892232059     0.773833732752     0.584811106328    12.000000000000
         C            2.971598767941    -0.686090267248     0.030215106328    12.000000000000
         C           -1.566289232059    -0.238751267248    -0.033007893672    12.000000000000
         H            1.650273767941    -0.410756267248     1.735626106328     1.007825032230
         H            0.997490767941    -1.470275267248     0.499852106328     1.007825032230
         H           -0.685335232059     0.668180732752     1.675395106328     1.007825032230
         H           -0.976650232059     1.779228732752     0.326986106328     1.007825032230
         H            3.552643767941     0.225061732752     0.185800106328     1.007825032230
         H            3.512821767941    -1.525748267248     0.473691106328     1.007825032230
         H            2.896323767941    -0.850674267248    -1.046419893672     1.007825032230
         H           -3.392900232059    -0.652103267248    -0.158829893672     1.007825032230

  Basis Set: AUG-CC-PVTZ
    Blend: AUG-CC-PVTZ
  Basis Set: (AUG-CC-PVTZ AUX)
    Blend: AUG-CC-PVTZ-JKFIT
	 Reference Energy          =    -418.7691032711874186 [Eh]
	 Singles Energy            =      -0.0000000000000000 [Eh]
	 Same-Spin Energy          =      -0.4076124591639934 [Eh]
	 Opposite-Spin Energy      =      -1.2855531874363137 [Eh]
	 Correlation Energy        =      -1.6931656466003071 [Eh]
	 Total Energy              =    -420.4622689177877533 [Eh]

	 ================> DF-SCS-MP2 Energies <==================
	-----------------------------------------------------------
	 SCS Same-Spin Scale       =       0.3333333333333333 [-]
	 SCS Opposite-Spin Scale   =       1.2000000000000000 [-]
	 SCS Same-Spin Energy      =      -0.1358708197213311 [Eh]
	 SCS Opposite-Spin Energy  =      -1.5426638249235765 [Eh]
	 SCS Correlation Energy    =      -1.6785346446449076 [Eh]
	 SCS Total Energy          =    -420.4476379158323311 [Eh]
	-----------------------------------------------------------

  Dipole Moment: [D]
     X:    -1.3883      Y:    -0.7340      Z:     2.5272     Total:     2.9753

*** Psi4 exiting successfully. Buy a developer a beer!
