                               Psi4 1.3.2 release

  ==> Input File <==

--------------------------------------------------------------------------
#psi4
#
memory 32 gb

molecule  {
0 1
  O        1.2197630    -1.3791890     0.7815710
  O       -2.8564231    -0.0551117    -0.2803563
  O       -1.2676855     1.2339705     0.6336778
  C        1.6098530     0.5514350    -0.6010430
  C        0.7924890    -0.5949300    -0.0578730
  C       -0.6155180    -0.7660970    -0.6108670
  C        2.9660570     0.6794250     0.0724790
  C       -1.5616300     0.2444870    -0.0131750
  H        1.7167540     0.3993790    -1.6843760
  H        1.0152770     1.4637510    -0.4819620
  H       -0.6366420    -0.6467360    -1.7011060
  H       -0.9720840    -1.7722110    -0.3761960
  H        3.5474250    -0.2360290    -0.0491480
  H        3.5302360     1.5116820    -0.3550310
  H        2.8465530     0.8548240     1.1430380
  H       -3.3901630     0.6286630     0.1252190
units angstrom
no_reorient  #important for SAPT in psi4, default
symmetry c1  #important for SAPT in psi4, default
}

set PROPERTIES_ORIGIN ["COM"]
properties('MP2/aug-cc-pvtz', properties = ['dipole'])
--------------------------------------------------------------------------

    Molecular point group: c1
  Charge       = 0
  Multiplicity = 1
  Basis Set: AUG-CC-PVTZ
    Blend: AUG-CC-PVTZ
  Basis Set: (AUG-CC-PVTZ AUX)
    Blend: AUG-CC-PVTZ-JKFIT

    Orbital Energies [Eh]
    ---------------------

    Doubly Occupied:

       1A    -20.627893     2A    -20.568856     3A    -20.557908
       4A    -11.413199     5A    -11.345330     6A    -11.273509
       7A    -11.242165     8A    -11.217736     9A     -1.481563
      10A     -1.390033    11A     -1.374432    12A     -1.086692
      13A     -1.043250    14A     -0.903358    15A     -0.843798
      16A     -0.743380    17A     -0.720655    18A     -0.707580
      19A     -0.681367    20A     -0.649057    21A     -0.632213
      22A     -0.627472    23A     -0.598498    24A     -0.578173
      25A     -0.526873    26A     -0.519114    27A     -0.515876
      28A     -0.501857    29A     -0.490529    30A     -0.469099
      31A     -0.425950

  @DF-RHF Final Energy:  -418.76899480855326

   => Energetics <=

    Nuclear Repulsion Energy =            372.1163892671626172
    One-Electron Energy =               -1310.2559359274043800
    Two-Electron Energy =                 519.3705518516885604
    Total Energy =                       -418.7689948085532023
  Basis Set: (AUG-CC-PVTZ AUX)
    Blend: AUG-CC-PVTZ-RI
    Molecular point group: c1

    Geometry (in Angstrom), charge = 0, multiplicity = 1:

       Center              X                  Y                   Z               Mass
    ------------   -----------------  -----------------  -----------------  -----------------
         O            1.223575864858    -1.382533666194     0.779668729336    15.994914619570
         O           -2.852610235142    -0.058456366194    -0.282258570664    15.994914619570
         O           -1.263872635142     1.230625833806     0.631775529336    15.994914619570
         C            1.613665864858     0.548090333806    -0.602945270664    12.000000000000
         C            0.796301864858    -0.598274666194    -0.059775270664    12.000000000000
         C           -0.611705135142    -0.769441666194    -0.612769270664    12.000000000000
         C            2.969869864858     0.676080333806     0.070576729336    12.000000000000
         C           -1.557817135142     0.241142333806    -0.015077270664    12.000000000000
         H            1.720566864858     0.396034333806    -1.686278270664     1.007825032230
         H            1.019089864858     1.460406333806    -0.483864270664     1.007825032230
         H           -0.632829135142    -0.650080666194    -1.703008270664     1.007825032230
         H           -0.968271135142    -1.775555666194    -0.378098270664     1.007825032230
         H            3.551237864858    -0.239373666194    -0.051050270664     1.007825032230
         H            3.534048864858     1.508337333806    -0.356933270664     1.007825032230
         H            2.850365864858     0.851479333806     1.141135729336     1.007825032230
         H           -3.386350135142     0.625318333806     0.123316729336     1.007825032230

  Basis Set: AUG-CC-PVTZ
    Blend: AUG-CC-PVTZ
  Basis Set: (AUG-CC-PVTZ AUX)
    Blend: AUG-CC-PVTZ-JKFIT
	 Reference Energy          =    -418.7689948085532592 [Eh]
	 Singles Energy            =      -0.0000000000000000 [Eh]
	 Same-Spin Energy          =      -0.4077697113167666 [Eh]
	 Opposite-Spin Energy      =      -1.2856032230956238 [Eh]
	 Correlation Energy        =      -1.6933729344123905 [Eh]
	 Total Energy              =    -420.4623677429656254 [Eh]

	 ================> DF-SCS-MP2 Energies <==================
	-----------------------------------------------------------
	 SCS Same-Spin Scale       =       0.3333333333333333 [-]
	 SCS Opposite-Spin Scale   =       1.2000000000000000 [-]
	 SCS Same-Spin Energy      =      -0.1359232371055888 [Eh]
	 SCS Opposite-Spin Energy  =      -1.5427238677147486 [Eh]
	 SCS Correlation Energy    =      -1.6786471048203375 [Eh]
	 SCS Total Energy          =    -420.4476419133736158 [Eh]
	-----------------------------------------------------------

  Dipole Moment: [D]
     X:    -1.2386      Y:     0.7294      Z:    -2.5843     Total:     2.9571

*** Psi4 exiting successfully. Buy a developer a beer!
