                               Psi4 1.3.2 release

  ==> Input File <==

--------------------------------------------------------------------------
#psi4
#
memory 32 gb

molecule  {
0 1
  O        1.2197630    -1.3791890     0.7815710
  O       -2.8493200    -0.0743410    -0.2921690
  O       -1.2471260     1.2289340     0.6316900
  C        1.6098530     0.5514350    -0.6010430
  C        0.7924890    -0.5949300    -0.0578730
  C       -0.6155180    -0.7660970    -0.6108670
  C        2.9660570     0.6794250     0.0724790
  C       -1.5689953     0.2346830    -0.0084021
  H        1.7167540     0.3993790    -1.6843760
  H        1.0152770     1.4637510    -0.4819620
  H       -0.6366420    -0.6467360    -1.7011060
  H       -0.9794805    -1.7684481    -0.3714953
  H        3.5474250    -0.2360290    -0.0491480
  H        3.5302360     1.5116820    -0.3550310
  H        2.8465530     0.8548240     1.1430380
  H       -3.3901630     0.6286630     0.1252190
units angstrom
no_reorient  #important for SAPT in psi4, default
symmetry c1  #important for SAPT in psi4, default
}

set PROPERTIES_ORIGIN ["COM"]
properties('MP2/aug-cc-pvtz', properties = ['dipole'])
--------------------------------------------------------------------------

    Molecular point group: c1
  Charge       = 0
  Multiplicity = 1
  Basis Set: AUG-CC-PVTZ
    Blend: AUG-CC-PVTZ
  Basis Set: (AUG-CC-PVTZ AUX)
    Blend: AUG-CC-PVTZ-JKFIT

    Orbital Energies [Eh]
    ---------------------

    Doubly Occupied:

       1A    -20.635315     2A    -20.568543     3A    -20.556539
       4A    -11.413734     5A    -11.344007     6A    -11.271261
       7A    -11.240949     8A    -11.216886     9A     -1.481470
      10A     -1.388793    11A     -1.373201    12A     -1.084816
      13A     -1.041967    14A     -0.902242    15A     -0.841659
      16A     -0.742865    17A     -0.719895    18A     -0.707265
      19A     -0.681346    20A     -0.649038    21A     -0.631932
      22A     -0.626692    23A     -0.596678    24A     -0.577803
      25A     -0.526012    26A     -0.518103    27A     -0.514721
      28A     -0.501344    29A     -0.489643    30A     -0.468033
      31A     -0.424656

  @DF-RHF Final Energy:  -418.76734328848505

   => Energetics <=

    Nuclear Repulsion Energy =            372.2092847254710364
    One-Electron Energy =               -1310.4784400801363518
    Two-Electron Energy =                 519.5018120661803778
    Total Energy =                       -418.7673432884849944
  Basis Set: (AUG-CC-PVTZ AUX)
    Blend: AUG-CC-PVTZ-RI
    Molecular point group: c1

    Geometry (in Angstrom), charge = 0, multiplicity = 1:

       Center              X                  Y                   Z               Mass
    ------------   -----------------  -----------------  -----------------  -----------------
         O            1.220588955076    -1.378207974312     0.781036494685    15.994914619570
         O           -2.848494044924    -0.073359974312    -0.292703505315    15.994914619570
         O           -1.246300044924     1.229915025688     0.631155494685    15.994914619570
         C            1.610678955076     0.552416025688    -0.601577505315    12.000000000000
         C            0.793314955076    -0.593948974312    -0.058407505315    12.000000000000
         C           -0.614692044924    -0.765115974312    -0.611401505315    12.000000000000
         C            2.966882955076     0.680406025688     0.071944494685    12.000000000000
         C           -1.568169344924     0.235664025688    -0.008936605315    12.000000000000
         H            1.717579955076     0.400360025688    -1.684910505315     1.007825032230
         H            1.016102955076     1.464732025688    -0.482496505315     1.007825032230
         H           -0.635816044924    -0.645754974312    -1.701640505315     1.007825032230
         H           -0.978654544924    -1.767467074312    -0.372029805315     1.007825032230
         H            3.548250955076    -0.235047974312    -0.049682505315     1.007825032230
         H            3.531061955076     1.512663025688    -0.355565505315     1.007825032230
         H            2.847378955076     0.855805025688     1.142503494685     1.007825032230
         H           -3.389337044924     0.629644025688     0.124684494685     1.007825032230

  Basis Set: AUG-CC-PVTZ
    Blend: AUG-CC-PVTZ
  Basis Set: (AUG-CC-PVTZ AUX)
    Blend: AUG-CC-PVTZ-JKFIT
	 Reference Energy          =    -418.7673432884850513 [Eh]
	 Singles Energy            =      -0.0000000000000000 [Eh]
	 Same-Spin Energy          =      -0.4083204634789389 [Eh]
	 Opposite-Spin Energy      =      -1.2867117070481668 [Eh]
	 Correlation Energy        =      -1.6950321705271056 [Eh]
	 Total Energy              =    -420.4623754590121507 [Eh]

	 ================> DF-SCS-MP2 Energies <==================
	-----------------------------------------------------------
	 SCS Same-Spin Scale       =       0.3333333333333333 [-]
	 SCS Opposite-Spin Scale   =       1.2000000000000000 [-]
	 SCS Same-Spin Energy      =      -0.1361068211596463 [Eh]
	 SCS Opposite-Spin Energy  =      -1.5440540484578003 [Eh]
	 SCS Correlation Energy    =      -1.6801608696174466 [Eh]
	 SCS Total Energy          =    -420.4475041581025039 [Eh]
	-----------------------------------------------------------

  Dipole Moment: [D]
     X:    -1.4173      Y:     0.7463      Z:    -2.5719     Total:     3.0299

*** Psi4 exiting successfully. Buy a developer a beer!
