                               Psi4 1.3.2 release

  ==> Input File <==

--------------------------------------------------------------------------
#psi4
#
memory 32 gb

molecule  {
0 1
  O        1.2197630    -1.3791890     0.7815710
  O       -2.8493200    -0.0743410    -0.2921690
  O       -1.2471260     1.2289340     0.6316900
  C        1.6098530     0.5514350    -0.6010430
  C        0.7924890    -0.5949300    -0.0578730
  C       -0.6155180    -0.7660970    -0.6108670
  C        2.9660570     0.6794250     0.0724790
  C       -1.5555894     0.2355931     0.0108455
  H        1.7167540     0.3993790    -1.6843760
  H        1.0152770     1.4637510    -0.4819620
  H       -0.6238888    -0.6609217    -1.7027381
  H       -0.9720840    -1.7722110    -0.3761960
  H        3.5474250    -0.2360290    -0.0491480
  H        3.5302360     1.5116820    -0.3550310
  H        2.8465530     0.8548240     1.1430380
  H       -3.3901630     0.6286630     0.1252190
units angstrom
no_reorient  #important for SAPT in psi4, default
symmetry c1  #important for SAPT in psi4, default
}

set PROPERTIES_ORIGIN ["COM"]
properties('MP2/aug-cc-pvtz', properties = ['dipole'])
--------------------------------------------------------------------------

    Molecular point group: c1
  Charge       = 0
  Multiplicity = 1
  Basis Set: AUG-CC-PVTZ
    Blend: AUG-CC-PVTZ
  Basis Set: (AUG-CC-PVTZ AUX)
    Blend: AUG-CC-PVTZ-JKFIT

    Orbital Energies [Eh]
    ---------------------

    Doubly Occupied:

       1A    -20.630375     2A    -20.572420     3A    -20.556671
       4A    -11.413350     5A    -11.343819     6A    -11.271199
       7A    -11.241531     8A    -11.217343     9A     -1.477938
      10A     -1.389052    11A     -1.378123    12A     -1.085161
      13A     -1.042010    14A     -0.901191    15A     -0.837730
      16A     -0.742413    17A     -0.719570    18A     -0.708107
      19A     -0.679994    20A     -0.647545    21A     -0.632562
      22A     -0.625982    23A     -0.600658    24A     -0.575915
      25A     -0.525995    26A     -0.518939    27A     -0.515387
      28A     -0.504488    29A     -0.491880    30A     -0.469785
      31A     -0.424335

  @DF-RHF Final Energy:  -418.76754159770661

   => Energetics <=

    Nuclear Repulsion Energy =            372.2926894685096499
    One-Electron Energy =               -1310.6375280078384549
    Two-Electron Energy =                 519.5772969416220803
    Total Energy =                       -418.7675415977066677
  Basis Set: (AUG-CC-PVTZ AUX)
    Blend: AUG-CC-PVTZ-RI
    Molecular point group: c1

    Geometry (in Angstrom), charge = 0, multiplicity = 1:

       Center              X                  Y                   Z               Mass
    ------------   -----------------  -----------------  -----------------  -----------------
         O            1.219027711487    -1.378146207725     0.779101173826    15.994914619570
         O           -2.850055288513    -0.073298207725    -0.294638826174    15.994914619570
         O           -1.247861288513     1.229976792275     0.629220173826    15.994914619570
         C            1.609117711487     0.552477792275    -0.603512826174    12.000000000000
         C            0.791753711487    -0.593887207725    -0.060342826174    12.000000000000
         C           -0.616253288513    -0.765054207725    -0.613336826174    12.000000000000
         C            2.965321711487     0.680467792275     0.070009173826    12.000000000000
         C           -1.556324688513     0.236635892275     0.008375673826    12.000000000000
         H            1.716018711487     0.400421792275    -1.686845826174     1.007825032230
         H            1.014541711487     1.464793792275    -0.484431826174     1.007825032230
         H           -0.624624088513    -0.659878907725    -1.705207926174     1.007825032230
         H           -0.972819288513    -1.771168207725    -0.378665826174     1.007825032230
         H            3.546689711487    -0.234986207725    -0.051617826174     1.007825032230
         H            3.529500711487     1.512724792275    -0.357500826174     1.007825032230
         H            2.845817711487     0.855866792275     1.140568173826     1.007825032230
         H           -3.390898288513     0.629705792275     0.122749173826     1.007825032230

  Basis Set: AUG-CC-PVTZ
    Blend: AUG-CC-PVTZ
  Basis Set: (AUG-CC-PVTZ AUX)
    Blend: AUG-CC-PVTZ-JKFIT
	 Reference Energy          =    -418.7675415977066109 [Eh]
	 Singles Energy            =      -0.0000000000000000 [Eh]
	 Same-Spin Energy          =      -0.4081700360812895 [Eh]
	 Opposite-Spin Energy      =      -1.2865735598988861 [Eh]
	 Correlation Energy        =      -1.6947435959801758 [Eh]
	 Total Energy              =    -420.4622851936867960 [Eh]

	 ================> DF-SCS-MP2 Energies <==================
	-----------------------------------------------------------
	 SCS Same-Spin Scale       =       0.3333333333333333 [-]
	 SCS Opposite-Spin Scale   =       1.2000000000000000 [-]
	 SCS Same-Spin Energy      =      -0.1360566786937632 [Eh]
	 SCS Opposite-Spin Energy  =      -1.5438882718786633 [Eh]
	 SCS Correlation Energy    =      -1.6799449505724264 [Eh]
	 SCS Total Energy          =    -420.4474865482790165 [Eh]
	-----------------------------------------------------------

  Dipole Moment: [D]
     X:    -1.2815      Y:     0.7988      Z:    -2.5130     Total:     2.9318

*** Psi4 exiting successfully. Buy a developer a beer!
