                               Psi4 1.3.2 release

  ==> Input File <==

--------------------------------------------------------------------------
#psi4
#
memory 32 gb

molecule  {
0 1
  O        1.2197630    -1.3791890     0.7815710
  O       -2.8493200    -0.0743410    -0.2921690
  O       -1.2471260     1.2289340     0.6316900
  C        1.6098530     0.5514350    -0.6010430
  C        0.7924890    -0.5949300    -0.0578730
  C       -0.6155180    -0.7660970    -0.6108670
  C        2.9660570     0.6794250     0.0724790
  C       -1.5358119     0.3253016     0.0397629
  H        1.7167540     0.3993790    -1.6843760
  H        1.0152770     1.4637510    -0.4819620
  H       -0.6366420    -0.6467360    -1.7011060
  H       -0.9720840    -1.7722110    -0.3761960
  H        3.5474250    -0.2360290    -0.0491480
  H        3.5302360     1.5116820    -0.3550310
  H        2.8465530     0.8548240     1.1430380
  H       -3.3901630     0.6286630     0.1252190
units angstrom
no_reorient  #important for SAPT in psi4, default
symmetry c1  #important for SAPT in psi4, default
}

set PROPERTIES_ORIGIN ["COM"]
properties('MP2/aug-cc-pvtz', properties = ['dipole'])
--------------------------------------------------------------------------

    Molecular point group: c1
  Charge       = 0
  Multiplicity = 1
  Basis Set: AUG-CC-PVTZ
    Blend: AUG-CC-PVTZ
  Basis Set: (AUG-CC-PVTZ AUX)
    Blend: AUG-CC-PVTZ-JKFIT

    Orbital Energies [Eh]
    ---------------------

    Doubly Occupied:

       1A    -20.615529     2A    -20.589012     3A    -20.554383
       4A    -11.404889     5A    -11.340268     6A    -11.267123
       7A    -11.242443     8A    -11.218110     9A     -1.515146
      10A     -1.393071    11A     -1.386352    12A     -1.077712
      13A     -1.032976    14A     -0.894748    15A     -0.821317
      16A     -0.747516    17A     -0.724055    18A     -0.716887
      19A     -0.681107    20A     -0.650167    21A     -0.637406
      22A     -0.624364    23A     -0.607269    24A     -0.574442
      25A     -0.527360    26A     -0.524907    27A     -0.519625
      28A     -0.515021    29A     -0.494808    30A     -0.465971
      31A     -0.419840

  @DF-RHF Final Energy:  -418.75534645128408

   => Energetics <=

    Nuclear Repulsion Energy =            372.8349280909968684
    One-Electron Energy =               -1311.6129019219024485
    Two-Electron Energy =                 520.0226273796214400
    Total Energy =                       -418.7553464512841401
  Basis Set: (AUG-CC-PVTZ AUX)
    Blend: AUG-CC-PVTZ-RI
    Molecular point group: c1

    Geometry (in Angstrom), charge = 0, multiplicity = 1:

       Center              X                  Y                   Z               Mass
    ------------   -----------------  -----------------  -----------------  -----------------
         O            1.217093354371    -1.387545808482     0.776096764946    15.994914619570
         O           -2.851989645629    -0.082697808482    -0.297643235054    15.994914619570
         O           -1.249795645629     1.220577191518     0.626215764946    15.994914619570
         C            1.607183354371     0.543078191518    -0.606517235054    12.000000000000
         C            0.789819354371    -0.603286808482    -0.063347235054    12.000000000000
         C           -0.618187645629    -0.774453808482    -0.616341235054    12.000000000000
         C            2.963387354371     0.671068191518     0.067004764946    12.000000000000
         C           -1.538481545629     0.316944791518     0.034288664946    12.000000000000
         H            1.714084354371     0.391022191518    -1.689850235054     1.007825032230
         H            1.012607354371     1.455394191518    -0.487436235054     1.007825032230
         H           -0.639311645629    -0.655092808482    -1.706580235054     1.007825032230
         H           -0.974753645629    -1.780567808482    -0.381670235054     1.007825032230
         H            3.544755354371    -0.244385808482    -0.054622235054     1.007825032230
         H            3.527566354371     1.503325191518    -0.360505235054     1.007825032230
         H            2.843883354371     0.846467191518     1.137563764946     1.007825032230
         H           -3.392832645629     0.620306191518     0.119744764946     1.007825032230

  Basis Set: AUG-CC-PVTZ
    Blend: AUG-CC-PVTZ
  Basis Set: (AUG-CC-PVTZ AUX)
    Blend: AUG-CC-PVTZ-JKFIT
	 Reference Energy          =    -418.7553464512840833 [Eh]
	 Singles Energy            =      -0.0000000000000000 [Eh]
	 Same-Spin Energy          =      -0.4065954248678401 [Eh]
	 Opposite-Spin Energy      =      -1.2836887054496067 [Eh]
	 Correlation Energy        =      -1.6902841303174467 [Eh]
	 Total Energy              =    -420.4456305816015060 [Eh]

	 ================> DF-SCS-MP2 Energies <==================
	-----------------------------------------------------------
	 SCS Same-Spin Scale       =       0.3333333333333333 [-]
	 SCS Opposite-Spin Scale   =       1.2000000000000000 [-]
	 SCS Same-Spin Energy      =      -0.1355318082892800 [Eh]
	 SCS Opposite-Spin Energy  =      -1.5404264465395279 [Eh]
	 SCS Correlation Energy    =      -1.6759582548288079 [Eh]
	 SCS Total Energy          =    -420.4313047061128827 [Eh]
	-----------------------------------------------------------

  Dipole Moment: [D]
     X:    -1.0289      Y:     1.3207      Z:    -2.2089     Total:     2.7716

*** Psi4 exiting successfully. Buy a developer a beer!
