                               Psi4 1.3.2 release

  ==> Input File <==

--------------------------------------------------------------------------
#psi4
#
memory 32 gb

molecule  {
0 1
  O        1.2197630    -1.3791890     0.7815710
  O       -2.8493200    -0.0743410    -0.2921690
  O       -1.2471260     1.2289340     0.6316900
  C        1.6098530     0.5514350    -0.6010430
  C        0.7934389    -0.5898021    -0.0457807
  C       -0.6155180    -0.7660970    -0.6108670
  C        2.9660570     0.6794250     0.0724790
  C       -1.5616300     0.2444870    -0.0131750
  H        1.7219044     0.4074499    -1.6849581
  H        1.0152770     1.4637510    -0.4819620
  H       -0.6366420    -0.6467360    -1.7011060
  H       -0.9720840    -1.7722110    -0.3761960
  H        3.5474250    -0.2360290    -0.0491480
  H        3.5302360     1.5116820    -0.3550310
  H        2.8465530     0.8548240     1.1430380
  H       -3.3901630     0.6286630     0.1252190
units angstrom
no_reorient  #important for SAPT in psi4, default
symmetry c1  #important for SAPT in psi4, default
}

set PROPERTIES_ORIGIN ["COM"]
properties('MP2/aug-cc-pvtz', properties = ['dipole'])
--------------------------------------------------------------------------

    Molecular point group: c1
  Charge       = 0
  Multiplicity = 1
  Basis Set: AUG-CC-PVTZ
    Blend: AUG-CC-PVTZ
  Basis Set: (AUG-CC-PVTZ AUX)
    Blend: AUG-CC-PVTZ-JKFIT

    Orbital Energies [Eh]
    ---------------------

    Doubly Occupied:

       1A    -20.632494     2A    -20.570138     3A    -20.557213
       4A    -11.412866     5A    -11.343846     6A    -11.270822
       7A    -11.240991     8A    -11.216992     9A     -1.479200
      10A     -1.392509    11A     -1.375908    12A     -1.084092
      13A     -1.041707    14A     -0.900995    15A     -0.838862
      16A     -0.742859    17A     -0.719659    18A     -0.707200
      19A     -0.681025    20A     -0.648334    21A     -0.632586
      22A     -0.626624    23A     -0.598324    24A     -0.577365
      25A     -0.526227    26A     -0.518960    27A     -0.515746
      28A     -0.503124    29A     -0.490886    30A     -0.469084
      31A     -0.423938

  @DF-RHF Final Energy:  -418.76824436907395

   => Energetics <=

    Nuclear Repulsion Energy =            372.3050209979332976
    One-Electron Energy =               -1310.6653823253552673
    Two-Electron Energy =                 519.5921169583480150
    Total Energy =                       -418.7682443690739547
  Basis Set: (AUG-CC-PVTZ AUX)
    Blend: AUG-CC-PVTZ-RI
    Molecular point group: c1

    Geometry (in Angstrom), charge = 0, multiplicity = 1:

       Center              X                  Y                   Z               Mass
    ------------   -----------------  -----------------  -----------------  -----------------
         O            1.219620148071    -1.379789436703     0.780325503300    15.994914619570
         O           -2.849462851929    -0.074941436703    -0.293414496700    15.994914619570
         O           -1.247268851929     1.228333563297     0.630444503300    15.994914619570
         C            1.609710148071     0.550834563297    -0.602288496700    12.000000000000
         C            0.793296048071    -0.590402536703    -0.047026196700    12.000000000000
         C           -0.615660851929    -0.766697436703    -0.612112496700    12.000000000000
         C            2.965914148071     0.678824563297     0.071233503300    12.000000000000
         C           -1.561772851929     0.243886563297    -0.014420496700    12.000000000000
         H            1.721761548071     0.406849463297    -1.686203596700     1.007825032230
         H            1.015134148071     1.463150563297    -0.483207496700     1.007825032230
         H           -0.636784851929    -0.647336436703    -1.702351496700     1.007825032230
         H           -0.972226851929    -1.772811436703    -0.377441496700     1.007825032230
         H            3.547282148071    -0.236629436703    -0.050393496700     1.007825032230
         H            3.530093148071     1.511081563297    -0.356276496700     1.007825032230
         H            2.846410148071     0.854223563297     1.141792503300     1.007825032230
         H           -3.390305851929     0.628062563297     0.123973503300     1.007825032230

  Basis Set: AUG-CC-PVTZ
    Blend: AUG-CC-PVTZ
  Basis Set: (AUG-CC-PVTZ AUX)
    Blend: AUG-CC-PVTZ-JKFIT
	 Reference Energy          =    -418.7682443690739547 [Eh]
	 Singles Energy            =      -0.0000000000000000 [Eh]
	 Same-Spin Energy          =      -0.4080836904437726 [Eh]
	 Opposite-Spin Energy      =      -1.2862604708740439 [Eh]
	 Correlation Energy        =      -1.6943441613178165 [Eh]
	 Total Energy              =    -420.4625885303917698 [Eh]

	 ================> DF-SCS-MP2 Energies <==================
	-----------------------------------------------------------
	 SCS Same-Spin Scale       =       0.3333333333333333 [-]
	 SCS Opposite-Spin Scale   =       1.2000000000000000 [-]
	 SCS Same-Spin Energy      =      -0.1360278968145908 [Eh]
	 SCS Opposite-Spin Energy  =      -1.5435125650488526 [Eh]
	 SCS Correlation Energy    =      -1.6795404618634435 [Eh]
	 SCS Total Energy          =    -420.4477848309373940 [Eh]
	-----------------------------------------------------------

  Dipole Moment: [D]
     X:    -1.3272      Y:     0.7755      Z:    -2.5433     Total:     2.9717

*** Psi4 exiting successfully. Buy a developer a beer!
