                               Psi4 1.3.2 release

  ==> Input File <==

--------------------------------------------------------------------------
#psi4
#
memory 32 gb

molecule  {
0 1
  O        1.2197630    -1.3791890     0.7815710
  O       -2.8493200    -0.0743410    -0.2921690
  O       -1.2471260     1.2289340     0.6316900
  C        1.6098530     0.5514350    -0.6010430
  C        0.7924890    -0.5949300    -0.0578730
  C       -0.5230296    -0.7548535    -0.5745422
  C        2.9660570     0.6794250     0.0724790
  C       -1.5616300     0.2444870    -0.0131750
  H        1.7167540     0.3993790    -1.6843760
  H        1.0152770     1.4637510    -0.4819620
  H       -0.6366420    -0.6467360    -1.7011060
  H       -0.9720840    -1.7722110    -0.3761960
  H        3.5474250    -0.2360290    -0.0491480
  H        3.5302360     1.5116820    -0.3550310
  H        2.8465530     0.8548240     1.1430380
  H       -3.3901630     0.6286630     0.1252190
units angstrom
no_reorient  #important for SAPT in psi4, default
symmetry c1  #important for SAPT in psi4, default
}

set PROPERTIES_ORIGIN ["COM"]
properties('MP2/aug-cc-pvtz', properties = ['dipole'])
--------------------------------------------------------------------------

    Molecular point group: c1
  Charge       = 0
  Multiplicity = 1
  Basis Set: AUG-CC-PVTZ
    Blend: AUG-CC-PVTZ
  Basis Set: (AUG-CC-PVTZ AUX)
    Blend: AUG-CC-PVTZ-JKFIT

    Orbital Energies [Eh]
    ---------------------

    Doubly Occupied:

       1A    -20.636982     2A    -20.569023     3A    -20.555747
       4A    -11.417012     5A    -11.337735     6A    -11.275946
       7A    -11.240216     8A    -11.216481     9A     -1.480503
      10A     -1.391281    11A     -1.376634    12A     -1.092408
      13A     -1.039677    14A     -0.903612    15A     -0.844303
      16A     -0.747809    17A     -0.720822    18A     -0.705573
      19A     -0.679926    20A     -0.655057    21A     -0.633728
      22A     -0.631899    23A     -0.593407    24A     -0.568721
      25A     -0.521496    26A     -0.517133    27A     -0.513685
      28A     -0.502066    29A     -0.490462    30A     -0.462441
      31A     -0.431983

  @DF-RHF Final Energy:  -418.75654821820200

   => Energetics <=

    Nuclear Repulsion Energy =            373.1357199301073706
    One-Electron Energy =               -1312.2770007266049106
    Two-Electron Energy =                 520.3847325782955977
    Total Energy =                       -418.7565482182019423
  Basis Set: (AUG-CC-PVTZ AUX)
    Blend: AUG-CC-PVTZ-RI
    Molecular point group: c1

    Geometry (in Angstrom), charge = 0, multiplicity = 1:

       Center              X                  Y                   Z               Mass
    ------------   -----------------  -----------------  -----------------  -----------------
         O            1.210199240542    -1.380351734319     0.777814660358    15.994914619570
         O           -2.858883759458    -0.075503734319    -0.295925339642    15.994914619570
         O           -1.256689759458     1.227771265681     0.627933660358    15.994914619570
         C            1.600289240542     0.550272265681    -0.604799339642    12.000000000000
         C            0.782925240542    -0.596092734319    -0.061629339642    12.000000000000
         C           -0.532593359458    -0.756016234319    -0.578298539642    12.000000000000
         C            2.956493240542     0.678262265681     0.068722660358    12.000000000000
         C           -1.571193759458     0.243324265681    -0.016931339642    12.000000000000
         H            1.707190240542     0.398216265681    -1.688132339642     1.007825032230
         H            1.005713240542     1.462588265681    -0.485718339642     1.007825032230
         H           -0.646205759458    -0.647898734319    -1.704862339642     1.007825032230
         H           -0.981647759458    -1.773373734319    -0.379952339642     1.007825032230
         H            3.537861240542    -0.237191734319    -0.052904339642     1.007825032230
         H            3.520672240542     1.510519265681    -0.358787339642     1.007825032230
         H            2.836989240542     0.853661265681     1.139281660358     1.007825032230
         H           -3.399726759458     0.627500265681     0.121462660358     1.007825032230

  Basis Set: AUG-CC-PVTZ
    Blend: AUG-CC-PVTZ
  Basis Set: (AUG-CC-PVTZ AUX)
    Blend: AUG-CC-PVTZ-JKFIT
	 Reference Energy          =    -418.7565482182019991 [Eh]
	 Singles Energy            =      -0.0000000000000000 [Eh]
	 Same-Spin Energy          =      -0.4089729189690710 [Eh]
	 Opposite-Spin Energy      =      -1.2875347229713756 [Eh]
	 Correlation Energy        =      -1.6965076419404466 [Eh]
	 Total Energy              =    -420.4530558601424559 [Eh]

	 ================> DF-SCS-MP2 Energies <==================
	-----------------------------------------------------------
	 SCS Same-Spin Scale       =       0.3333333333333333 [-]
	 SCS Opposite-Spin Scale   =       1.2000000000000000 [-]
	 SCS Same-Spin Energy      =      -0.1363243063230236 [Eh]
	 SCS Opposite-Spin Energy  =      -1.5450416675656506 [Eh]
	 SCS Correlation Energy    =      -1.6813659738886744 [Eh]
	 SCS Total Energy          =    -420.4379141920906591 [Eh]
	-----------------------------------------------------------

  Dipole Moment: [D]
     X:    -1.5215      Y:     0.7904      Z:    -2.5813     Total:     3.0989

*** Psi4 exiting successfully. Buy a developer a beer!
