                               Psi4 1.4a3.dev225

  ==> Input File <==

--------------------------------------------------------------------------
#psi4
#
memory 32 gb

molecule  {
0 1
  O        1.1896460     1.3864710    -0.7896670
  O       -2.9164350     0.0620530     0.2465870
  O       -1.2994600    -1.1722570    -0.7513140
  C        1.5277270    -0.5390120     0.6173550
  C        0.7516672     0.6432666     0.0106353
  C       -0.6915030     0.7929470     0.5540020
  C        2.9119880    -0.6669770    -0.0005940
  C       -1.6259000    -0.2196380    -0.0638170
  H        1.5906630    -0.3916430     1.7048170
  H        0.9378800    -1.4511620     0.4690430
  H       -0.7449460     0.6872940     1.6445860
  H       -1.0362610     1.7983420     0.2961770
  H        3.4930330     0.2441750     0.1549910
  H        3.4532110    -1.5066350     0.4428820
  H        2.8367130    -0.8315610    -1.0772290
  H       -3.4525110    -0.6329900    -0.1896390
units angstrom
no_reorient  #important for SAPT in psi4, default
symmetry c1  #important for SAPT in psi4, default
}

set PROPERTIES_ORIGIN ["COM"]
properties('MP2/aug-cc-pvtz', properties = ['dipole'])
--------------------------------------------------------------------------

    Molecular point group: c1
  Charge       = 0
  Multiplicity = 1
  Basis Set: AUG-CC-PVTZ
    Blend: AUG-CC-PVTZ
  Basis Set: (AUG-CC-PVTZ AUX)
    Blend: AUG-CC-PVTZ-JKFIT

    Orbital Energies [Eh]
    ---------------------

    Doubly Occupied:

       1A    -20.631313     2A    -20.568728     3A    -20.560826
       4A    -11.411688     5A    -11.340609     6A    -11.268393
       7A    -11.239751     8A    -11.216330     9A     -1.476823
      10A     -1.423193    11A     -1.374120    12A     -1.077075
      13A     -1.037084    14A     -0.894988    15A     -0.836323
      16A     -0.742382    17A     -0.718659    18A     -0.704951
      19A     -0.681093    20A     -0.650439    21A     -0.634889
      22A     -0.629896    23A     -0.596514    24A     -0.578011
      25A     -0.532218    26A     -0.527978    27A     -0.515852
      28A     -0.503153    29A     -0.491348    30A     -0.469861
      31A     -0.414703

  @DF-RHF Final Energy:  -418.76878894265627

   => Energetics <=

    Nuclear Repulsion Energy =            372.0004841136375831
    One-Electron Energy =               -1310.0401641871578704
    Two-Electron Energy =                 519.2708911308640154
    Total Energy =                       -418.7687889426562151
  Basis Set: (AUG-CC-PVTZ AUX)
    Blend: AUG-CC-PVTZ-RI
    Molecular point group: c1

    Geometry (in Angstrom), charge = 0, multiplicity = 1:

       Center              X                  Y                   Z               Mass
    ------------   -----------------  -----------------  -----------------  -----------------
         O            1.248102125402     1.365398415184    -0.756748058227    15.994914619570
         O           -2.857978874598     0.040980415184     0.279505941773    15.994914619570
         O           -1.241003874598    -1.193329584816    -0.718395058227    15.994914619570
         C            1.586183125402    -0.560084584816     0.650273941773    12.000000000000
         C            0.810123325402     0.622194015184     0.043554241773    12.000000000000
         C           -0.633046874598     0.771874415184     0.586920941773    12.000000000000
         C            2.970444125402    -0.688049584816     0.032324941773    12.000000000000
         C           -1.567443874598    -0.240710584816    -0.030898058227    12.000000000000
         H            1.649119125402    -0.412715584816     1.737735941773     1.007825032230
         H            0.996336125402    -1.472234584816     0.501961941773     1.007825032230
         H           -0.686489874598     0.666221415184     1.677504941773     1.007825032230
         H           -0.977804874598     1.777269415184     0.329095941773     1.007825032230
         H            3.551489125402     0.223102415184     0.187909941773     1.007825032230
         H            3.511667125402    -1.527707584816     0.475800941773     1.007825032230
         H            2.895169125402    -0.852633584816    -1.044310058227     1.007825032230
         H           -3.394054874598    -0.654062584816    -0.156720058227     1.007825032230

  Basis Set: AUG-CC-PVTZ
    Blend: AUG-CC-PVTZ
  Basis Set: (AUG-CC-PVTZ AUX)
    Blend: AUG-CC-PVTZ-JKFIT
	 Reference Energy          =    -418.7687889426562720 [Eh]
	 Singles Energy            =      -0.0000000000000000 [Eh]
	 Same-Spin Energy          =      -0.4067895051641880 [Eh]
	 Opposite-Spin Energy      =      -1.2838232956879225 [Eh]
	 Correlation Energy        =      -1.6906128008521106 [Eh]
	 Total Energy              =    -420.4594017435084083 [Eh]

	 ================> DF-SCS-MP2 Energies <==================
	-----------------------------------------------------------
	 SCS Same-Spin Scale       =       0.3333333333333333 [-]
	 SCS Opposite-Spin Scale   =       1.2000000000000000 [-]
	 SCS Same-Spin Energy      =      -0.1355965017213960 [Eh]
	 SCS Opposite-Spin Energy  =      -1.5405879548255070 [Eh]
	 SCS Correlation Energy    =      -1.6761844565469031 [Eh]
	 SCS Total Energy          =    -420.4449733992031497 [Eh]
	-----------------------------------------------------------

  Dipole Moment: [D]
     X:    -1.3234      Y:    -0.6345      Z:     2.4360     Total:     2.8440

*** Psi4 exiting successfully. Buy a developer a beer!
