                               Psi4 1.3.2 release

  ==> Input File <==

--------------------------------------------------------------------------
#psi4
#
memory 32 gb

molecule  {
0 1
  O        1.2197630    -1.3791890     0.7815710
  O       -2.8493200    -0.0743410    -0.2921690
  O       -1.2471260     1.2289340     0.6316900
  C        1.6098530     0.5514350    -0.6010430
  C        0.8121114    -0.6007671    -0.0413030
  C       -0.6155180    -0.7660970    -0.6108670
  C        2.9602249     0.6584875     0.0876791
  C       -1.5616300     0.2444870    -0.0131750
  H        1.7167540     0.3993790    -1.6843760
  H        1.0152770     1.4637510    -0.4819620
  H       -0.6366420    -0.6467360    -1.7011060
  H       -0.9720840    -1.7722110    -0.3761960
  H        3.5474250    -0.2360290    -0.0491480
  H        3.5302360     1.5116820    -0.3550310
  H        2.8465530     0.8548240     1.1430380
  H       -3.3901630     0.6286630     0.1252190
units angstrom
no_reorient  #important for SAPT in psi4, default
symmetry c1  #important for SAPT in psi4, default
}

set PROPERTIES_ORIGIN ["COM"]
properties('MP2/aug-cc-pvtz', properties = ['dipole'])
--------------------------------------------------------------------------

    Molecular point group: c1
  Charge       = 0
  Multiplicity = 1
  Basis Set: AUG-CC-PVTZ
    Blend: AUG-CC-PVTZ
  Basis Set: (AUG-CC-PVTZ AUX)
    Blend: AUG-CC-PVTZ-JKFIT

    Orbital Energies [Eh]
    ---------------------

    Doubly Occupied:

       1A    -20.631522     2A    -20.568927     3A    -20.558425
       4A    -11.411567     5A    -11.342243     6A    -11.268947
       7A    -11.240769     8A    -11.217235     9A     -1.478108
      10A     -1.403839    11A     -1.374958    12A     -1.081325
      13A     -1.040682    14A     -0.899783    15A     -0.836966
      16A     -0.742496    17A     -0.719031    18A     -0.705748
      19A     -0.680529    20A     -0.648300    21A     -0.634668
      22A     -0.628881    23A     -0.598039    24A     -0.576398
      25A     -0.525670    26A     -0.519995    27A     -0.518632
      28A     -0.504769    29A     -0.492920    30A     -0.469320
      31A     -0.420156

  @DF-RHF Final Energy:  -418.76847135622211

   => Energetics <=

    Nuclear Repulsion Energy =            372.4622128534957142
    One-Electron Energy =               -1310.9796795814077086
    Two-Electron Energy =                 519.7489953716899436
    Total Energy =                       -418.7684713562221077
  Basis Set: (AUG-CC-PVTZ AUX)
    Blend: AUG-CC-PVTZ-RI
    Molecular point group: c1

    Geometry (in Angstrom), charge = 0, multiplicity = 1:

       Center              X                  Y                   Z               Mass
    ------------   -----------------  -----------------  -----------------  -----------------
         O            1.218337101922    -1.376420431940     0.778285643993    15.994914619570
         O           -2.850745898078    -0.071572431940    -0.295454356007    15.994914619570
         O           -1.248551898078     1.231702568060     0.628404643993    15.994914619570
         C            1.608427101922     0.554203568060    -0.604328356007    12.000000000000
         C            0.810685501922    -0.597998531940    -0.044588356007    12.000000000000
         C           -0.616943898078    -0.763328431940    -0.614152356007    12.000000000000
         C            2.958799001922     0.661256068060     0.084393743993    12.000000000000
         C           -1.563055898078     0.247255568060    -0.016460356007    12.000000000000
         H            1.715328101922     0.402147568060    -1.687661356007     1.007825032230
         H            1.013851101922     1.466519568060    -0.485247356007     1.007825032230
         H           -0.638067898078    -0.643967431940    -1.704391356007     1.007825032230
         H           -0.973509898078    -1.769442431940    -0.379481356007     1.007825032230
         H            3.545999101922    -0.233260431940    -0.052433356007     1.007825032230
         H            3.528810101922     1.514450568060    -0.358316356007     1.007825032230
         H            2.845127101922     0.857592568060     1.139752643993     1.007825032230
         H           -3.391588898078     0.631431568060     0.121933643993     1.007825032230

  Basis Set: AUG-CC-PVTZ
    Blend: AUG-CC-PVTZ
  Basis Set: (AUG-CC-PVTZ AUX)
    Blend: AUG-CC-PVTZ-JKFIT
	 Reference Energy          =    -418.7684713562221077 [Eh]
	 Singles Energy            =      -0.0000000000000000 [Eh]
	 Same-Spin Energy          =      -0.4076205613552901 [Eh]
	 Opposite-Spin Energy      =      -1.2852620976546927 [Eh]
	 Correlation Energy        =      -1.6928826590099828 [Eh]
	 Total Energy              =    -420.4613540152320752 [Eh]

	 ================> DF-SCS-MP2 Energies <==================
	-----------------------------------------------------------
	 SCS Same-Spin Scale       =       0.3333333333333333 [-]
	 SCS Opposite-Spin Scale   =       1.2000000000000000 [-]
	 SCS Same-Spin Energy      =      -0.1358735204517633 [Eh]
	 SCS Opposite-Spin Energy  =      -1.5423145171856312 [Eh]
	 SCS Correlation Energy    =      -1.6781880376373945 [Eh]
	 SCS Total Energy          =    -420.4466593938594769 [Eh]
	-----------------------------------------------------------

  Dipole Moment: [D]
     X:    -1.2392      Y:     0.7323      Z:    -2.4933     Total:     2.8790

*** Psi4 exiting successfully. Buy a developer a beer!
