                               Psi4 1.3.2 release

  ==> Input File <==

--------------------------------------------------------------------------
#psi4
#
memory 32 gb

molecule  {
0 1
  O        1.2197630    -1.3791890     0.7815710
  O       -2.8493200    -0.0743410    -0.2921690
  O       -1.2471260     1.2289340     0.6316900
  C        1.6098530     0.5514350    -0.6010430
  C        0.7880989    -0.6238512    -0.1312633
  C       -0.6155180    -0.7660970    -0.6108670
  C        2.9660570     0.6794250     0.0724790
  C       -1.5616300     0.2444870    -0.0131750
  H        1.6856942     0.3512180    -1.6791527
  H        1.0152770     1.4637510    -0.4819620
  H       -0.6366420    -0.6467360    -1.7011060
  H       -0.9720840    -1.7722110    -0.3761960
  H        3.5474250    -0.2360290    -0.0491480
  H        3.5302360     1.5116820    -0.3550310
  H        2.8465530     0.8548240     1.1430380
  H       -3.3901630     0.6286630     0.1252190
units angstrom
no_reorient  #important for SAPT in psi4, default
symmetry c1  #important for SAPT in psi4, default
}

set PROPERTIES_ORIGIN ["COM"]
properties('MP2/aug-cc-pvtz', properties = ['dipole'])
--------------------------------------------------------------------------

    Molecular point group: c1
  Charge       = 0
  Multiplicity = 1
  Basis Set: AUG-CC-PVTZ
    Blend: AUG-CC-PVTZ
  Basis Set: (AUG-CC-PVTZ AUX)
    Blend: AUG-CC-PVTZ-JKFIT

    Orbital Energies [Eh]
    ---------------------

    Doubly Occupied:

       1A    -20.635048     2A    -20.571776     3A    -20.554343
       4A    -11.416533     5A    -11.346209     6A    -11.273756
       7A    -11.243291     8A    -11.218040     9A     -1.481325
      10A     -1.378591    11A     -1.364972    12A     -1.091005
      13A     -1.043537    14A     -0.906016    15A     -0.844792
      16A     -0.742242    17A     -0.721181    18A     -0.708442
      19A     -0.680898    20A     -0.647905    21A     -0.631796
      22A     -0.622753    23A     -0.599891    24A     -0.574486
      25A     -0.526255    26A     -0.517267    27A     -0.511835
      28A     -0.500746    29A     -0.488653    30A     -0.465871
      31A     -0.427384

  @DF-RHF Final Energy:  -418.75850998833477

   => Energetics <=

    Nuclear Repulsion Energy =            371.8670579457127587
    One-Electron Energy =               -1309.7774533831011468
    Two-Electron Energy =                 519.1518854490536796
    Total Energy =                       -418.7585099883347084
  Basis Set: (AUG-CC-PVTZ AUX)
    Blend: AUG-CC-PVTZ-RI
    Molecular point group: c1

    Geometry (in Angstrom), charge = 0, multiplicity = 1:

       Center              X                  Y                   Z               Mass
    ------------   -----------------  -----------------  -----------------  -----------------
         O            1.220486807681    -1.375780201334     0.789114505584    15.994914619570
         O           -2.848596192319    -0.070932201334    -0.284625494416    15.994914619570
         O           -1.246402192319     1.232342798666     0.639233505584    15.994914619570
         C            1.610576807681     0.554843798666    -0.593499494416    12.000000000000
         C            0.788822707681    -0.620442401334    -0.123719794416    12.000000000000
         C           -0.614794192319    -0.762688201334    -0.603323494416    12.000000000000
         C            2.966780807681     0.682833798666     0.080022505584    12.000000000000
         C           -1.560906192319     0.247895798666    -0.005631494416    12.000000000000
         H            1.686418007681     0.354626798666    -1.671609194416     1.007825032230
         H            1.016000807681     1.467159798666    -0.474418494416     1.007825032230
         H           -0.635918192319    -0.643327201334    -1.693562494416     1.007825032230
         H           -0.971360192319    -1.768802201334    -0.368652494416     1.007825032230
         H            3.548148807681    -0.232620201334    -0.041604494416     1.007825032230
         H            3.530959807681     1.515090798666    -0.347487494416     1.007825032230
         H            2.847276807681     0.858232798666     1.150581505584     1.007825032230
         H           -3.389439192319     0.632071798666     0.132762505584     1.007825032230

  Basis Set: AUG-CC-PVTZ
    Blend: AUG-CC-PVTZ
  Basis Set: (AUG-CC-PVTZ AUX)
    Blend: AUG-CC-PVTZ-JKFIT
	 Reference Energy          =    -418.7585099883347652 [Eh]
	 Singles Energy            =      -0.0000000000000000 [Eh]
	 Same-Spin Energy          =      -0.4095160523672137 [Eh]
	 Opposite-Spin Energy      =      -1.2893979543457101 [Eh]
	 Correlation Energy        =      -1.6989140067129238 [Eh]
	 Total Energy              =    -420.4574239950476908 [Eh]

	 ================> DF-SCS-MP2 Energies <==================
	-----------------------------------------------------------
	 SCS Same-Spin Scale       =       0.3333333333333333 [-]
	 SCS Opposite-Spin Scale   =       1.2000000000000000 [-]
	 SCS Same-Spin Energy      =      -0.1365053507890712 [Eh]
	 SCS Opposite-Spin Energy  =      -1.5472775452148522 [Eh]
	 SCS Correlation Energy    =      -1.6837828960039234 [Eh]
	 SCS Total Energy          =    -420.4422928843387126 [Eh]
	-----------------------------------------------------------

  Dipole Moment: [D]
     X:    -1.4672      Y:     0.8247      Z:    -2.6293     Total:     3.1219

*** Psi4 exiting successfully. Buy a developer a beer!
