                               Psi4 1.4a3.dev225

  ==> Input File <==

--------------------------------------------------------------------------
#psi4
#
memory 32 gb

molecule  {
0 1
  O        1.1896460     1.3864710    -0.7896670
  O       -2.9164350     0.0620530     0.2465870
  O       -1.2994600    -1.1722570    -0.7513140
  C        1.5277270    -0.5390120     0.6173550
  C        0.7330570     0.6116870     0.0446410
  C       -0.6915030     0.7929470     0.5540020
  C        2.9119880    -0.6669770    -0.0005940
  C       -1.6259000    -0.2196380    -0.0638170
  H        1.5906630    -0.3916430     1.7048170
  H        0.9378800    -1.4511620     0.4690430
  H       -0.7459204     0.6853678     1.6644692
  H       -1.0362610     1.7983420     0.2961770
  H        3.4930330     0.2441750     0.1549910
  H        3.4532110    -1.5066350     0.4428820
  H        2.8367130    -0.8315610    -1.0772290
  H       -3.4525110    -0.6329900    -0.1896390
units angstrom
no_reorient  #important for SAPT in psi4, default
symmetry c1  #important for SAPT in psi4, default
}

set PROPERTIES_ORIGIN ["COM"]
properties('MP2/aug-cc-pvtz', properties = ['dipole'])
--------------------------------------------------------------------------

    Molecular point group: c1
  Charge       = 0
  Multiplicity = 1
  Basis Set: AUG-CC-PVTZ
    Blend: AUG-CC-PVTZ
  Basis Set: (AUG-CC-PVTZ AUX)
    Blend: AUG-CC-PVTZ-JKFIT

    Orbital Energies [Eh]
    ---------------------

    Doubly Occupied:

       1A    -20.632953     2A    -20.570747     3A    -20.556873
       4A    -11.413995     5A    -11.344544     6A    -11.274047
       7A    -11.242167     8A    -11.217669     9A     -1.478606
      10A     -1.388258    11A     -1.375550    12A     -1.083555
      13A     -1.040959    14A     -0.901437    15A     -0.839752
      16A     -0.741653    17A     -0.719444    18A     -0.706354
      19A     -0.678336    20A     -0.649264    21A     -0.631930
      22A     -0.625487    23A     -0.598251    24A     -0.575359
      25A     -0.525797    26A     -0.517637    27A     -0.515461
      28A     -0.502912    29A     -0.489998    30A     -0.469610
      31A     -0.424639

  @DF-RHF Final Energy:  -418.76688800709962

   => Energetics <=

    Nuclear Repulsion Energy =            371.7302770144814303
    One-Electron Energy =               -1309.5278448923093038
    Two-Electron Energy =                 519.0306798707282496
    Total Energy =                       -418.7668880070996238
  Basis Set: (AUG-CC-PVTZ AUX)
    Blend: AUG-CC-PVTZ-RI
    Molecular point group: c1

    Geometry (in Angstrom), charge = 0, multiplicity = 1:

       Center              X                  Y                   Z               Mass
    ------------   -----------------  -----------------  -----------------  -----------------
         O            1.250034995357     1.368680665851    -0.760437131768    15.994914619570
         O           -2.856046004643     0.044262665851     0.275816868232    15.994914619570
         O           -1.239071004643    -1.190047334149    -0.722084131768    15.994914619570
         C            1.588115995357    -0.556802334149     0.646584868232    12.000000000000
         C            0.793445995357     0.593896665851     0.073870868232    12.000000000000
         C           -0.631114004643     0.775156665851     0.583231868232    12.000000000000
         C            2.972376995357    -0.684767334149     0.028635868232    12.000000000000
         C           -1.565511004643    -0.237428334149    -0.034587131768    12.000000000000
         H            1.651051995357    -0.409433334149     1.734046868232     1.007825032230
         H            0.998268995357    -1.468952334149     0.498272868232     1.007825032230
         H           -0.685531404643     0.667577465851     1.693699068232     1.007825032230
         H           -0.975872004643     1.780551665851     0.325406868232     1.007825032230
         H            3.553421995357     0.226384665851     0.184220868232     1.007825032230
         H            3.513599995357    -1.524425334149     0.472111868232     1.007825032230
         H            2.897101995357    -0.849351334149    -1.047999131768     1.007825032230
         H           -3.392122004643    -0.650780334149    -0.160409131768     1.007825032230

  Basis Set: AUG-CC-PVTZ
    Blend: AUG-CC-PVTZ
  Basis Set: (AUG-CC-PVTZ AUX)
    Blend: AUG-CC-PVTZ-JKFIT
	 Reference Energy          =    -418.7668880070996238 [Eh]
	 Singles Energy            =      -0.0000000000000000 [Eh]
	 Same-Spin Energy          =      -0.4082314389268260 [Eh]
	 Opposite-Spin Energy      =      -1.2869322379464665 [Eh]
	 Correlation Energy        =      -1.6951636768732925 [Eh]
	 Total Energy              =    -420.4620516839729021 [Eh]

	 ================> DF-SCS-MP2 Energies <==================
	-----------------------------------------------------------
	 SCS Same-Spin Scale       =       0.3333333333333333 [-]
	 SCS Opposite-Spin Scale   =       1.2000000000000000 [-]
	 SCS Same-Spin Energy      =      -0.1360771463089420 [Eh]
	 SCS Opposite-Spin Energy  =      -1.5443186855357598 [Eh]
	 SCS Correlation Energy    =      -1.6803958318447019 [Eh]
	 SCS Total Energy          =    -420.4472838389443154 [Eh]
	-----------------------------------------------------------

  Dipole Moment: [D]
     X:    -1.4261      Y:    -0.7956      Z:     2.5815     Total:     3.0547

*** Psi4 exiting successfully. Buy a developer a beer!
