                               Psi4 1.3.2 release

  ==> Input File <==

--------------------------------------------------------------------------
#psi4
#
memory 32 gb

molecule  {
0 1
  O        1.2565707    -1.3573897     0.7821121
  O       -2.8493200    -0.0743410    -0.2921690
  O       -1.2471260     1.2289340     0.6316900
  C        1.6098530     0.5514350    -0.6010430
  C        0.7924890    -0.5949300    -0.0578730
  C       -0.6077221    -0.7233157    -0.6414056
  C        2.9660570     0.6794250     0.0724790
  C       -1.5616300     0.2444870    -0.0131750
  H        1.7167540     0.3993790    -1.6843760
  H        1.0152770     1.4637510    -0.4819620
  H       -0.6366420    -0.6467360    -1.7011060
  H       -0.9720840    -1.7722110    -0.3761960
  H        3.5474250    -0.2360290    -0.0491480
  H        3.5302360     1.5116820    -0.3550310
  H        2.8465530     0.8548240     1.1430380
  H       -3.3901630     0.6286630     0.1252190
units angstrom
no_reorient  #important for SAPT in psi4, default
symmetry c1  #important for SAPT in psi4, default
}

set PROPERTIES_ORIGIN ["COM"]
properties('MP2/aug-cc-pvtz', properties = ['dipole'])
--------------------------------------------------------------------------

    Molecular point group: c1
  Charge       = 0
  Multiplicity = 1
  Basis Set: AUG-CC-PVTZ
    Blend: AUG-CC-PVTZ
  Basis Set: (AUG-CC-PVTZ AUX)
    Blend: AUG-CC-PVTZ-JKFIT

    Orbital Energies [Eh]
    ---------------------

    Doubly Occupied:

       1A    -20.634050     2A    -20.570865     3A    -20.558397
       4A    -11.414323     5A    -11.345068     6A    -11.274020
       7A    -11.238148     8A    -11.215117     9A     -1.480665
      10A     -1.389548    11A     -1.376968    12A     -1.088013
      13A     -1.040879    14A     -0.902023    15A     -0.839313
      16A     -0.743950    17A     -0.721307    18A     -0.710799
      19A     -0.683256    20A     -0.646059    21A     -0.631785
      22A     -0.626972    23A     -0.600589    24A     -0.575210
      25A     -0.522540    26A     -0.518005    27A     -0.512846
      28A     -0.502996    29A     -0.490833    30A     -0.469705
      31A     -0.424559

  @DF-RHF Final Energy:  -418.76338444453398

   => Energetics <=

    Nuclear Repulsion Energy =            372.4711962623364343
    One-Electron Energy =               -1310.9715477175677734
    Two-Electron Energy =                 519.7369670106972990
    Total Energy =                       -418.7633844445340401
  Basis Set: (AUG-CC-PVTZ AUX)
    Blend: AUG-CC-PVTZ-RI
    Molecular point group: c1

    Geometry (in Angstrom), charge = 0, multiplicity = 1:

       Center              X                  Y                   Z               Mass
    ------------   -----------------  -----------------  -----------------  -----------------
         O            1.250691419358    -1.364818252359     0.785195261578    15.994914619570
         O           -2.855199280642    -0.081769552359    -0.289085838422    15.994914619570
         O           -1.253005280642     1.221505447641     0.634773161578    15.994914619570
         C            1.603973719358     0.544006447641    -0.597959838422    12.000000000000
         C            0.786609719358    -0.602358552359    -0.054789838422    12.000000000000
         C           -0.613601380642    -0.730744252359    -0.638322438422    12.000000000000
         C            2.960177719358     0.671996447641     0.075562161578    12.000000000000
         C           -1.567509280642     0.237058447641    -0.010091838422    12.000000000000
         H            1.710874719358     0.391950447641    -1.681292838422     1.007825032230
         H            1.009397719358     1.456322447641    -0.478878838422     1.007825032230
         H           -0.642521280642    -0.654164552359    -1.698022838422     1.007825032230
         H           -0.977963280642    -1.779639552359    -0.373112838422     1.007825032230
         H            3.541545719358    -0.243457552359    -0.046064838422     1.007825032230
         H            3.524356719358     1.504253447641    -0.351947838422     1.007825032230
         H            2.840673719358     0.847395447641     1.146121161578     1.007825032230
         H           -3.396042280642     0.621234447641     0.128302161578     1.007825032230

  Basis Set: AUG-CC-PVTZ
    Blend: AUG-CC-PVTZ
  Basis Set: (AUG-CC-PVTZ AUX)
    Blend: AUG-CC-PVTZ-JKFIT
	 Reference Energy          =    -418.7633844445339832 [Eh]
	 Singles Energy            =      -0.0000000000000000 [Eh]
	 Same-Spin Energy          =      -0.4085775593287397 [Eh]
	 Opposite-Spin Energy      =      -1.2872097763069117 [Eh]
	 Correlation Energy        =      -1.6957873356356514 [Eh]
	 Total Energy              =    -420.4591717801696404 [Eh]

	 ================> DF-SCS-MP2 Energies <==================
	-----------------------------------------------------------
	 SCS Same-Spin Scale       =       0.3333333333333333 [-]
	 SCS Opposite-Spin Scale   =       1.2000000000000000 [-]
	 SCS Same-Spin Energy      =      -0.1361925197762466 [Eh]
	 SCS Opposite-Spin Energy  =      -1.5446517315682939 [Eh]
	 SCS Correlation Energy    =      -1.6808442513445405 [Eh]
	 SCS Total Energy          =    -420.4442286958785076 [Eh]
	-----------------------------------------------------------

  Dipole Moment: [D]
     X:    -1.4595      Y:     0.7212      Z:    -2.5665     Total:     3.0393

*** Psi4 exiting successfully. Buy a developer a beer!
