                               Psi4 1.3.2 release

  ==> Input File <==

--------------------------------------------------------------------------
#psi4
#
memory 32 gb

molecule  {
0 1
  O        1.2197630    -1.3791890     0.7815710
  O       -2.8493200    -0.0743410    -0.2921690
  O       -1.2471260     1.2289340     0.6316900
  C        1.6198535     0.5479345    -0.5932225
  C        0.7924890    -0.5949300    -0.0578730
  C       -0.6172589    -0.7766630    -0.6030043
  C        2.9660570     0.6794250     0.0724790
  C       -1.5616300     0.2444870    -0.0131750
  H        1.7167540     0.3993790    -1.6843760
  H        1.0152770     1.4637510    -0.4819620
  H       -0.6366420    -0.6467360    -1.7011060
  H       -0.9720840    -1.7722110    -0.3761960
  H        3.5474250    -0.2360290    -0.0491480
  H        3.5302360     1.5116820    -0.3550310
  H        2.8465530     0.8548240     1.1430380
  H       -3.3901630     0.6286630     0.1252190
units angstrom
no_reorient  #important for SAPT in psi4, default
symmetry c1  #important for SAPT in psi4, default
}

set PROPERTIES_ORIGIN ["COM"]
properties('MP2/aug-cc-pvtz', properties = ['dipole'])
--------------------------------------------------------------------------

    Molecular point group: c1
  Charge       = 0
  Multiplicity = 1
  Basis Set: AUG-CC-PVTZ
    Blend: AUG-CC-PVTZ
  Basis Set: (AUG-CC-PVTZ AUX)
    Blend: AUG-CC-PVTZ-JKFIT

    Orbital Energies [Eh]
    ---------------------

    Doubly Occupied:

       1A    -20.632850     2A    -20.570494     3A    -20.555811
       4A    -11.413549     5A    -11.343649     6A    -11.271632
       7A    -11.242160     8A    -11.216767     9A     -1.479487
      10A     -1.388761    11A     -1.376001    12A     -1.084545
      13A     -1.043633    14A     -0.901620    15A     -0.839815
      16A     -0.741981    17A     -0.719557    18A     -0.707247
      19A     -0.680172    20A     -0.649531    21A     -0.631575
      22A     -0.626261    23A     -0.598421    24A     -0.577406
      25A     -0.528904    26A     -0.519018    27A     -0.514986
      28A     -0.502520    29A     -0.489434    30A     -0.468111
      31A     -0.424429

  @DF-RHF Final Energy:  -418.76748183084879

   => Energetics <=

    Nuclear Repulsion Energy =            372.2511504238336215
    One-Electron Energy =               -1310.5566153767363176
    Two-Electron Energy =                 519.5379831220539018
    Total Energy =                       -418.7674818308487374
  Basis Set: (AUG-CC-PVTZ AUX)
    Blend: AUG-CC-PVTZ-RI
    Molecular point group: c1

    Geometry (in Angstrom), charge = 0, multiplicity = 1:

       Center              X                  Y                   Z               Mass
    ------------   -----------------  -----------------  -----------------  -----------------
         O            1.218909009883    -1.377734526641     0.779949127130    15.994914619570
         O           -2.850173990117    -0.072886526641    -0.293790872870    15.994914619570
         O           -1.247979990117     1.230388473359     0.630068127130    15.994914619570
         C            1.618999509883     0.549388973359    -0.594844372870    12.000000000000
         C            0.791635009883    -0.593475526641    -0.059494872870    12.000000000000
         C           -0.618112890117    -0.775208526641    -0.604626172870    12.000000000000
         C            2.965203009883     0.680879473359     0.070857127130    12.000000000000
         C           -1.562483990117     0.245941473359    -0.014796872870    12.000000000000
         H            1.715900009883     0.400833473359    -1.685997872870     1.007825032230
         H            1.014423009883     1.465205473359    -0.483583872870     1.007825032230
         H           -0.637495990117    -0.645281526641    -1.702727872870     1.007825032230
         H           -0.972937990117    -1.770756526641    -0.377817872870     1.007825032230
         H            3.546571009883    -0.234574526641    -0.050769872870     1.007825032230
         H            3.529382009883     1.513136473359    -0.356652872870     1.007825032230
         H            2.845699009883     0.856278473359     1.141416127130     1.007825032230
         H           -3.391016990117     0.630117473359     0.123597127130     1.007825032230

  Basis Set: AUG-CC-PVTZ
    Blend: AUG-CC-PVTZ
  Basis Set: (AUG-CC-PVTZ AUX)
    Blend: AUG-CC-PVTZ-JKFIT
	 Reference Energy          =    -418.7674818308487943 [Eh]
	 Singles Energy            =      -0.0000000000000000 [Eh]
	 Same-Spin Energy          =      -0.4082807466758032 [Eh]
	 Opposite-Spin Energy      =      -1.2865869389941191 [Eh]
	 Correlation Energy        =      -1.6948676856699223 [Eh]
	 Total Energy              =    -420.4623495165187137 [Eh]

	 ================> DF-SCS-MP2 Energies <==================
	-----------------------------------------------------------
	 SCS Same-Spin Scale       =       0.3333333333333333 [-]
	 SCS Opposite-Spin Scale   =       1.2000000000000000 [-]
	 SCS Same-Spin Energy      =      -0.1360935822252677 [Eh]
	 SCS Opposite-Spin Energy  =      -1.5439043267929429 [Eh]
	 SCS Correlation Energy    =      -1.6799979090182107 [Eh]
	 SCS Total Energy          =    -420.4474797398669921 [Eh]
	-----------------------------------------------------------

  Dipole Moment: [D]
     X:    -1.3476      Y:     0.7896      Z:    -2.5526     Total:     2.9925

*** Psi4 exiting successfully. Buy a developer a beer!
