                               Psi4 1.3.2 release

  ==> Input File <==

--------------------------------------------------------------------------
#psi4
#
memory 32 gb

molecule  {
0 1
  O        1.2197630    -1.3791890     0.7815710
  O       -2.8493200    -0.0743410    -0.2921690
  O       -1.2471260     1.2289340     0.6316900
  C        1.6098530     0.5514350    -0.6010430
  C        0.7924890    -0.5949300    -0.0578730
  C       -0.6155180    -0.7660970    -0.6108670
  C        2.9660570     0.6794250     0.0724790
  C       -1.5616300     0.2444870    -0.0131750
  H        1.7167540     0.3993790    -1.6843760
  H        1.0152770     1.4637510    -0.4819620
  H       -0.6347163    -0.6576171    -1.6017184
  H       -0.9720840    -1.7722110    -0.3761960
  H        3.5474250    -0.2360290    -0.0491480
  H        3.5302360     1.5116820    -0.3550310
  H        2.8465530     0.8548240     1.1430380
  H       -3.3901630     0.6286630     0.1252190
units angstrom
no_reorient  #important for SAPT in psi4, default
symmetry c1  #important for SAPT in psi4, default
}

set PROPERTIES_ORIGIN ["COM"]
properties('MP2/aug-cc-pvtz', properties = ['dipole'])
--------------------------------------------------------------------------

    Molecular point group: c1
  Charge       = 0
  Multiplicity = 1
  Basis Set: AUG-CC-PVTZ
    Blend: AUG-CC-PVTZ
  Basis Set: (AUG-CC-PVTZ AUX)
    Blend: AUG-CC-PVTZ-JKFIT

    Orbital Energies [Eh]
    ---------------------

    Doubly Occupied:

       1A    -20.633100     2A    -20.570222     3A    -20.556114
       4A    -11.413000     5A    -11.343391     6A    -11.259811
       7A    -11.241432     8A    -11.217234     9A     -1.479611
      10A     -1.388490    11A     -1.375950    12A     -1.090849
      13A     -1.044803    14A     -0.901713    15A     -0.841797
      16A     -0.746623    17A     -0.719713    18A     -0.711912
      19A     -0.687918    20A     -0.648373    21A     -0.632307
      22A     -0.626093    23A     -0.599915    24A     -0.583695
      25A     -0.526934    26A     -0.518876    27A     -0.515196
      28A     -0.503081    29A     -0.491037    30A     -0.468899
      31A     -0.424302

  @DF-RHF Final Energy:  -418.76213214780830

   => Energetics <=

    Nuclear Repulsion Energy =            372.7828041856795380
    One-Electron Energy =               -1311.5650897404455009
    Two-Electron Energy =                 520.0201534069576610
    Total Energy =                       -418.7621321478083019
  Basis Set: (AUG-CC-PVTZ AUX)
    Blend: AUG-CC-PVTZ-RI
    Molecular point group: c1

    Geometry (in Angstrom), charge = 0, multiplicity = 1:

       Center              X                  Y                   Z               Mass
    ------------   -----------------  -----------------  -----------------  -----------------
         O            1.219746378736    -1.379094590124     0.780707723455    15.994914619570
         O           -2.849336621264    -0.074246590124    -0.293032276545    15.994914619570
         O           -1.247142621264     1.229028409876     0.630826723455    15.994914619570
         C            1.609836378736     0.551529409876    -0.601906276545    12.000000000000
         C            0.792472378736    -0.594835590124    -0.058736276545    12.000000000000
         C           -0.615534621264    -0.766002590124    -0.611730276545    12.000000000000
         C            2.966040378736     0.679519409876     0.071615723455    12.000000000000
         C           -1.561646621264     0.244581409876    -0.014038276545    12.000000000000
         H            1.716737378736     0.399473409876    -1.685239276545     1.007825032230
         H            1.015260378736     1.463845409876    -0.482825276545     1.007825032230
         H           -0.634732921264    -0.657522690124    -1.602581676545     1.007825032230
         H           -0.972100621264    -1.772116590124    -0.377059276545     1.007825032230
         H            3.547408378736    -0.235934590124    -0.050011276545     1.007825032230
         H            3.530219378736     1.511776409876    -0.355894276545     1.007825032230
         H            2.846536378736     0.854918409876     1.142174723455     1.007825032230
         H           -3.390179621264     0.628757409876     0.124355723455     1.007825032230

  Basis Set: AUG-CC-PVTZ
    Blend: AUG-CC-PVTZ
  Basis Set: (AUG-CC-PVTZ AUX)
    Blend: AUG-CC-PVTZ-JKFIT
	 Reference Energy          =    -418.7621321478083019 [Eh]
	 Singles Energy            =      -0.0000000000000000 [Eh]
	 Same-Spin Energy          =      -0.4081795680199353 [Eh]
	 Opposite-Spin Energy      =      -1.2861095744109026 [Eh]
	 Correlation Energy        =      -1.6942891424308377 [Eh]
	 Total Energy              =    -420.4564212902391205 [Eh]

	 ================> DF-SCS-MP2 Energies <==================
	-----------------------------------------------------------
	 SCS Same-Spin Scale       =       0.3333333333333333 [-]
	 SCS Opposite-Spin Scale   =       1.2000000000000000 [-]
	 SCS Same-Spin Energy      =      -0.1360598560066451 [Eh]
	 SCS Opposite-Spin Energy  =      -1.5433314892930829 [Eh]
	 SCS Correlation Energy    =      -1.6793913452997280 [Eh]
	 SCS Total Energy          =    -420.4415234931080363 [Eh]
	-----------------------------------------------------------

  Dipole Moment: [D]
     X:    -1.3536      Y:     0.7851      Z:    -2.5578     Total:     2.9985

*** Psi4 exiting successfully. Buy a developer a beer!
