                               Psi4 1.3.2 release

  ==> Input File <==

--------------------------------------------------------------------------
#psi4
#
memory 32 gb

molecule  {
0 1
  O        1.2197630    -1.3791890     0.7815710
  O       -2.8493200    -0.0743410    -0.2921690
  O       -1.2471260     1.2289340     0.6316900
  C        1.6098530     0.5514350    -0.6010430
  C        0.7921039    -0.6073616    -0.0532040
  C       -0.6155180    -0.7660970    -0.6108670
  C        2.9660570     0.6794250     0.0724790
  C       -1.5616300     0.2444870    -0.0131750
  H        1.7167540     0.3993790    -1.6843760
  H        1.0152770     1.4637510    -0.4819620
  H       -0.6366420    -0.6467360    -1.7011060
  H       -0.9638130    -1.7740785    -0.3718294
  H        3.5474250    -0.2360290    -0.0491480
  H        3.5302360     1.5116820    -0.3550310
  H        2.8465530     0.8548240     1.1430380
  H       -3.3901630     0.6286630     0.1252190
units angstrom
no_reorient  #important for SAPT in psi4, default
symmetry c1  #important for SAPT in psi4, default
}

set PROPERTIES_ORIGIN ["COM"]
properties('MP2/aug-cc-pvtz', properties = ['dipole'])
--------------------------------------------------------------------------

    Molecular point group: c1
  Charge       = 0
  Multiplicity = 1
  Basis Set: AUG-CC-PVTZ
    Blend: AUG-CC-PVTZ
  Basis Set: (AUG-CC-PVTZ AUX)
    Blend: AUG-CC-PVTZ-JKFIT

    Orbital Energies [Eh]
    ---------------------

    Doubly Occupied:

       1A    -20.632817     2A    -20.570295     3A    -20.557684
       4A    -11.413428     5A    -11.343006     6A    -11.270750
       7A    -11.240520     8A    -11.216530     9A     -1.479428
      10A     -1.396332    11A     -1.376127    12A     -1.083814
      13A     -1.040624    14A     -0.899760    15A     -0.839489
      16A     -0.742638    17A     -0.719896    18A     -0.707438
      19A     -0.681595    20A     -0.648049    21A     -0.631884
      22A     -0.627753    23A     -0.598355    24A     -0.578093
      25A     -0.526040    26A     -0.520220    27A     -0.515537
      28A     -0.503151    29A     -0.491411    30A     -0.469429
      31A     -0.422584

  @DF-RHF Final Energy:  -418.76879591005451

   => Energetics <=

    Nuclear Repulsion Energy =            372.2759710717381267
    One-Electron Energy =               -1310.6001818993784127
    Two-Electron Energy =                 519.5554149175857219
    Total Energy =                       -418.7687959100545640
  Basis Set: (AUG-CC-PVTZ AUX)
    Blend: AUG-CC-PVTZ-RI
    Molecular point group: c1

    Geometry (in Angstrom), charge = 0, multiplicity = 1:

       Center              X                  Y                   Z               Mass
    ------------   -----------------  -----------------  -----------------  -----------------
         O            1.219731094007    -1.377887366733     0.781050140101    15.994914619570
         O           -2.849351905993    -0.073039366733    -0.292689859899    15.994914619570
         O           -1.247157905993     1.230235633267     0.631169140101    15.994914619570
         C            1.609821094007     0.552736633267    -0.601563859899    12.000000000000
         C            0.792071994007    -0.606059966733    -0.053724859899    12.000000000000
         C           -0.615549905993    -0.764795366733    -0.611387859899    12.000000000000
         C            2.966025094007     0.680726633267     0.071958140101    12.000000000000
         C           -1.561661905993     0.245788633267    -0.013695859899    12.000000000000
         H            1.716722094007     0.400680633267    -1.684896859899     1.007825032230
         H            1.015245094007     1.465052633267    -0.482482859899     1.007825032230
         H           -0.636673905993    -0.645434366733    -1.701626859899     1.007825032230
         H           -0.963844905993    -1.772776866733    -0.372350259899     1.007825032230
         H            3.547393094007    -0.234727366733    -0.049668859899     1.007825032230
         H            3.530204094007     1.512983633267    -0.355551859899     1.007825032230
         H            2.846521094007     0.856125633267     1.142517140101     1.007825032230
         H           -3.390194905993     0.629964633267     0.124698140101     1.007825032230

  Basis Set: AUG-CC-PVTZ
    Blend: AUG-CC-PVTZ
  Basis Set: (AUG-CC-PVTZ AUX)
    Blend: AUG-CC-PVTZ-JKFIT
	 Reference Energy          =    -418.7687959100545072 [Eh]
	 Singles Energy            =      -0.0000000000000000 [Eh]
	 Same-Spin Energy          =      -0.4079074244863083 [Eh]
	 Opposite-Spin Energy      =      -1.2859343922327522 [Eh]
	 Correlation Energy        =      -1.6938418167190605 [Eh]
	 Total Energy              =    -420.4626377267735506 [Eh]

	 ================> DF-SCS-MP2 Energies <==================
	-----------------------------------------------------------
	 SCS Same-Spin Scale       =       0.3333333333333333 [-]
	 SCS Opposite-Spin Scale   =       1.2000000000000000 [-]
	 SCS Same-Spin Energy      =      -0.1359691414954361 [Eh]
	 SCS Opposite-Spin Energy  =      -1.5431212706793025 [Eh]
	 SCS Correlation Energy    =      -1.6790904121747385 [Eh]
	 SCS Total Energy          =    -420.4478863222292375 [Eh]
	-----------------------------------------------------------

  Dipole Moment: [D]
     X:    -1.3585      Y:     0.7362      Z:    -2.5238     Total:     2.9593

*** Psi4 exiting successfully. Buy a developer a beer!
