                               Psi4 1.3.2 release

  ==> Input File <==

--------------------------------------------------------------------------
#psi4
#
memory 32 gb

molecule  {
0 1
  O        1.2197630    -1.3791890     0.7815710
  O       -2.8493200    -0.0743410    -0.2921690
  O       -1.2471260     1.2289340     0.6316900
  C        1.6098530     0.5514350    -0.6010430
  C        0.8022512    -0.6032407    -0.0608823
  C       -0.6155180    -0.7660970    -0.6108670
  C        2.9660570     0.6794250     0.0724790
  C       -1.5616300     0.2444870    -0.0131750
  H        1.7167540     0.3993790    -1.6843760
  H        1.0223556     1.4688281    -0.4858992
  H       -0.6366420    -0.6467360    -1.7011060
  H       -0.9720840    -1.7722110    -0.3761960
  H        3.5474250    -0.2360290    -0.0491480
  H        3.5302360     1.5116820    -0.3550310
  H        2.8465530     0.8548240     1.1430380
  H       -3.3901630     0.6286630     0.1252190
units angstrom
no_reorient  #important for SAPT in psi4, default
symmetry c1  #important for SAPT in psi4, default
}

set PROPERTIES_ORIGIN ["COM"]
properties('MP2/aug-cc-pvtz', properties = ['dipole'])
--------------------------------------------------------------------------

    Molecular point group: c1
  Charge       = 0
  Multiplicity = 1
  Basis Set: AUG-CC-PVTZ
    Blend: AUG-CC-PVTZ
  Basis Set: (AUG-CC-PVTZ AUX)
    Blend: AUG-CC-PVTZ-JKFIT

    Orbital Energies [Eh]
    ---------------------

    Doubly Occupied:

       1A    -20.632506     2A    -20.569782     3A    -20.557487
       4A    -11.412920     5A    -11.343776     6A    -11.270652
       7A    -11.241085     8A    -11.217068     9A     -1.479040
      10A     -1.393490    11A     -1.375630    12A     -1.083768
      13A     -1.041587    14A     -0.901143    15A     -0.839028
      16A     -0.742675    17A     -0.719585    18A     -0.706831
      19A     -0.680883    20A     -0.648518    21A     -0.632143
      22A     -0.627296    23A     -0.598107    24A     -0.577392
      25A     -0.526357    26A     -0.519711    27A     -0.515569
      28A     -0.502749    29A     -0.491038    30A     -0.468962
      31A     -0.423849

  @DF-RHF Final Energy:  -418.76848070100135

   => Energetics <=

    Nuclear Repulsion Energy =            372.1967165711295706
    One-Electron Energy =               -1310.4491425859002902
    Two-Electron Energy =                 519.4839453137692544
    Total Energy =                       -418.7684807010014083
  Basis Set: (AUG-CC-PVTZ AUX)
    Blend: AUG-CC-PVTZ-RI
    Molecular point group: c1

    Geometry (in Angstrom), charge = 0, multiplicity = 1:

       Center              X                  Y                   Z               Mass
    ------------   -----------------  -----------------  -----------------  -----------------
         O            1.218692157094    -1.378373803903     0.781916238143    15.994914619570
         O           -2.850390842906    -0.073525803903    -0.291823761857    15.994914619570
         O           -1.248196842906     1.229749196097     0.632035238143    15.994914619570
         C            1.608782157094     0.552250196097    -0.600697761857    12.000000000000
         C            0.801180357094    -0.602425503903    -0.060537061857    12.000000000000
         C           -0.616588842906    -0.765281803903    -0.610521761857    12.000000000000
         C            2.964986157094     0.680240196097     0.072824238143    12.000000000000
         C           -1.562700842906     0.245302196097    -0.012829761857    12.000000000000
         H            1.715683157094     0.400194196097    -1.684030761857     1.007825032230
         H            1.021284757094     1.469643296097    -0.485553961857     1.007825032230
         H           -0.637712842906    -0.645920803903    -1.700760761857     1.007825032230
         H           -0.973154842906    -1.771395803903    -0.375850761857     1.007825032230
         H            3.546354157094    -0.235213803903    -0.048802761857     1.007825032230
         H            3.529165157094     1.512497196097    -0.354685761857     1.007825032230
         H            2.845482157094     0.855639196097     1.143383238143     1.007825032230
         H           -3.391233842906     0.629478196097     0.125564238143     1.007825032230

  Basis Set: AUG-CC-PVTZ
    Blend: AUG-CC-PVTZ
  Basis Set: (AUG-CC-PVTZ AUX)
    Blend: AUG-CC-PVTZ-JKFIT
	 Reference Energy          =    -418.7684807010013515 [Eh]
	 Singles Energy            =      -0.0000000000000000 [Eh]
	 Same-Spin Energy          =      -0.4080193374827730 [Eh]
	 Opposite-Spin Energy      =      -1.2861631220670442 [Eh]
	 Correlation Energy        =      -1.6941824595498172 [Eh]
	 Total Energy              =    -420.4626631605511875 [Eh]

	 ================> DF-SCS-MP2 Energies <==================
	-----------------------------------------------------------
	 SCS Same-Spin Scale       =       0.3333333333333333 [-]
	 SCS Opposite-Spin Scale   =       1.2000000000000000 [-]
	 SCS Same-Spin Energy      =      -0.1360064458275910 [Eh]
	 SCS Opposite-Spin Energy  =      -1.5433957464804531 [Eh]
	 SCS Correlation Energy    =      -1.6794021923080440 [Eh]
	 SCS Total Energy          =    -420.4478828933093837 [Eh]
	-----------------------------------------------------------

  Dipole Moment: [D]
     X:    -1.3113      Y:     0.7698      Z:    -2.5435     Total:     2.9633

*** Psi4 exiting successfully. Buy a developer a beer!
