                               Psi4 1.3.2 release

  ==> Input File <==

--------------------------------------------------------------------------
#psi4
#
memory 32 gb

molecule  {
0 1
  O        1.2197630    -1.3791890     0.7815710
  O       -2.8493200    -0.0743410    -0.2921690
  O       -1.2471260     1.2289340     0.6316900
  C        1.6098530     0.5514350    -0.6010430
  C        0.7970019    -0.5927942    -0.0701842
  C       -0.6155180    -0.7660970    -0.6108670
  C        2.9660570     0.6794250     0.0724790
  C       -1.5616300     0.2444870    -0.0131750
  H        1.7167540     0.3993790    -1.6843760
  H        1.0152770     1.4637510    -0.4819620
  H       -0.6271977    -0.6451733    -1.7010759
  H       -0.9720840    -1.7722110    -0.3761960
  H        3.5474250    -0.2360290    -0.0491480
  H        3.5302360     1.5116820    -0.3550310
  H        2.8465530     0.8548240     1.1430380
  H       -3.3901630     0.6286630     0.1252190
units angstrom
no_reorient  #important for SAPT in psi4, default
symmetry c1  #important for SAPT in psi4, default
}

set PROPERTIES_ORIGIN ["COM"]
properties('MP2/aug-cc-pvtz', properties = ['dipole'])
--------------------------------------------------------------------------

    Molecular point group: c1
  Charge       = 0
  Multiplicity = 1
  Basis Set: AUG-CC-PVTZ
    Blend: AUG-CC-PVTZ
  Basis Set: (AUG-CC-PVTZ AUX)
    Blend: AUG-CC-PVTZ-JKFIT

    Orbital Energies [Eh]
    ---------------------

    Doubly Occupied:

       1A    -20.633033     2A    -20.570473     3A    -20.555987
       4A    -11.413653     5A    -11.344619     6A    -11.271634
       7A    -11.241773     8A    -11.217572     9A     -1.479624
      10A     -1.383851    11A     -1.375661    12A     -1.086023
      13A     -1.042892    14A     -0.903185    15A     -0.840252
      16A     -0.742364    17A     -0.719846    18A     -0.707585
      19A     -0.680545    20A     -0.648218    21A     -0.632602
      22A     -0.625077    23A     -0.598786    24A     -0.576725
      25A     -0.526172    26A     -0.518045    27A     -0.514403
      28A     -0.502487    29A     -0.490256    30A     -0.468413
      31A     -0.425884

  @DF-RHF Final Energy:  -418.76674980345473

   => Energetics <=

    Nuclear Repulsion Energy =            372.1851707608760194
    One-Electron Energy =               -1310.4285609196826954
    Two-Electron Energy =                 519.4766403553520604
    Total Energy =                       -418.7667498034546725
  Basis Set: (AUG-CC-PVTZ AUX)
    Blend: AUG-CC-PVTZ-RI
    Molecular point group: c1

    Geometry (in Angstrom), charge = 0, multiplicity = 1:

       Center              X                  Y                   Z               Mass
    ------------   -----------------  -----------------  -----------------  -----------------
         O            1.219214421423    -1.379423514266     0.782843656660    15.994914619570
         O           -2.849868578577    -0.074575514266    -0.290896343340    15.994914619570
         O           -1.247674578577     1.228699485734     0.632962656660    15.994914619570
         C            1.609304421423     0.551200485734    -0.599770343340    12.000000000000
         C            0.796453321423    -0.593028714266    -0.068911543340    12.000000000000
         C           -0.616066578577    -0.766331514266    -0.609594343340    12.000000000000
         C            2.965508421423     0.679190485734     0.073751656660    12.000000000000
         C           -1.562178578577     0.244252485734    -0.011902343340    12.000000000000
         H            1.716205421423     0.399144485734    -1.683103343340     1.007825032230
         H            1.014728421423     1.463516485734    -0.480689343340     1.007825032230
         H           -0.627746278577    -0.645407814266    -1.699803243340     1.007825032230
         H           -0.972632578577    -1.772445514266    -0.374923343340     1.007825032230
         H            3.546876421423    -0.236263514266    -0.047875343340     1.007825032230
         H            3.529687421423     1.511447485734    -0.353758343340     1.007825032230
         H            2.846004421423     0.854589485734     1.144310656660     1.007825032230
         H           -3.390711578577     0.628428485734     0.126491656660     1.007825032230

  Basis Set: AUG-CC-PVTZ
    Blend: AUG-CC-PVTZ
  Basis Set: (AUG-CC-PVTZ AUX)
    Blend: AUG-CC-PVTZ-JKFIT
	 Reference Energy          =    -418.7667498034547293 [Eh]
	 Singles Energy            =      -0.0000000000000000 [Eh]
	 Same-Spin Energy          =      -0.4084944963436911 [Eh]
	 Opposite-Spin Energy      =      -1.2871237144538330 [Eh]
	 Correlation Energy        =      -1.6956182107975240 [Eh]
	 Total Energy              =    -420.4623680142522630 [Eh]

	 ================> DF-SCS-MP2 Energies <==================
	-----------------------------------------------------------
	 SCS Same-Spin Scale       =       0.3333333333333333 [-]
	 SCS Opposite-Spin Scale   =       1.2000000000000000 [-]
	 SCS Same-Spin Energy      =      -0.1361648321145637 [Eh]
	 SCS Opposite-Spin Energy  =      -1.5445484573445996 [Eh]
	 SCS Correlation Energy    =      -1.6807132894591632 [Eh]
	 SCS Total Energy          =    -420.4474630929138925 [Eh]
	-----------------------------------------------------------

  Dipole Moment: [D]
     X:    -1.3369      Y:     0.8164      Z:    -2.5819     Total:     3.0200

*** Psi4 exiting successfully. Buy a developer a beer!
