                               Psi4 1.3.2 release

  ==> Input File <==

--------------------------------------------------------------------------
#psi4
#
memory 32 gb

molecule  {
0 1
  O        1.2197630    -1.3791890     0.7815710
  O       -2.8493200    -0.0743410    -0.2921690
  O       -1.2676928     1.2338854     0.6338113
  C        1.6098530     0.5514350    -0.6010430
  C        0.7924890    -0.5949300    -0.0578730
  C       -0.6361222    -0.7794001    -0.6204099
  C        2.9660570     0.6794250     0.0724790
  C       -1.5616300     0.2444870    -0.0131750
  H        1.7167540     0.3993790    -1.6843760
  H        1.0152770     1.4637510    -0.4819620
  H       -0.6366420    -0.6467360    -1.7011060
  H       -0.9720840    -1.7722110    -0.3761960
  H        3.5474250    -0.2360290    -0.0491480
  H        3.5302360     1.5116820    -0.3550310
  H        2.8465530     0.8548240     1.1430380
  H       -3.3901630     0.6286630     0.1252190
units angstrom
no_reorient  #important for SAPT in psi4, default
symmetry c1  #important for SAPT in psi4, default
}

set PROPERTIES_ORIGIN ["COM"]
properties('MP2/aug-cc-pvtz', properties = ['dipole'])
--------------------------------------------------------------------------

    Molecular point group: c1
  Charge       = 0
  Multiplicity = 1
  Basis Set: AUG-CC-PVTZ
    Blend: AUG-CC-PVTZ
  Basis Set: (AUG-CC-PVTZ AUX)
    Blend: AUG-CC-PVTZ-JKFIT

    Orbital Energies [Eh]
    ---------------------

    Doubly Occupied:

       1A    -20.630223     2A    -20.570625     3A    -20.557247
       4A    -11.412938     5A    -11.345660     6A    -11.271297
       7A    -11.242272     8A    -11.217752     9A     -1.479186
      10A     -1.388904    11A     -1.374323    12A     -1.083928
      13A     -1.042925    14A     -0.901086    15A     -0.838759
      16A     -0.742139    17A     -0.718561    18A     -0.707224
      19A     -0.681835    20A     -0.647260    21A     -0.632252
      22A     -0.624938    23A     -0.599255    24A     -0.580574
      25A     -0.527916    26A     -0.518898    27A     -0.515842
      28A     -0.502550    29A     -0.490914    30A     -0.470017
      31A     -0.422831

  @DF-RHF Final Energy:  -418.76718976607691

   => Energetics <=

    Nuclear Repulsion Energy =            371.7574064883139044
    One-Electron Energy =               -1309.5689341025040449
    Two-Electron Energy =                 519.0443378481132868
    Total Energy =                       -418.7671897660768536
  Basis Set: (AUG-CC-PVTZ AUX)
    Blend: AUG-CC-PVTZ-RI
    Molecular point group: c1

    Geometry (in Angstrom), charge = 0, multiplicity = 1:

       Center              X                  Y                   Z               Mass
    ------------   -----------------  -----------------  -----------------  -----------------
         O            1.224728443453    -1.378495922957     0.782265278263    15.994914619570
         O           -2.844354556547    -0.073647922957    -0.291474721737    15.994914619570
         O           -1.262727356547     1.234578477043     0.634505578263    15.994914619570
         C            1.614818443453     0.552128077043    -0.600348721737    12.000000000000
         C            0.797454443453    -0.594236922957    -0.057178721737    12.000000000000
         C           -0.631156756547    -0.778707022957    -0.619715621737    12.000000000000
         C            2.971022443453     0.680118077043     0.073173278263    12.000000000000
         C           -1.556664556547     0.245180077043    -0.012480721737    12.000000000000
         H            1.721719443453     0.400072077043    -1.683681721737     1.007825032230
         H            1.020242443453     1.464444077043    -0.481267721737     1.007825032230
         H           -0.631676556547    -0.646042922957    -1.700411721737     1.007825032230
         H           -0.967118556547    -1.771517922957    -0.375501721737     1.007825032230
         H            3.552390443453    -0.235335922957    -0.048453721737     1.007825032230
         H            3.535201443453     1.512375077043    -0.354336721737     1.007825032230
         H            2.851518443453     0.855517077043     1.143732278263     1.007825032230
         H           -3.385197556547     0.629356077043     0.125913278263     1.007825032230

  Basis Set: AUG-CC-PVTZ
    Blend: AUG-CC-PVTZ
  Basis Set: (AUG-CC-PVTZ AUX)
    Blend: AUG-CC-PVTZ-JKFIT
	 Reference Energy          =    -418.7671897660769105 [Eh]
	 Singles Energy            =      -0.0000000000000000 [Eh]
	 Same-Spin Energy          =      -0.4081216205680395 [Eh]
	 Opposite-Spin Energy      =      -1.2865027526941748 [Eh]
	 Correlation Energy        =      -1.6946243732622144 [Eh]
	 Total Energy              =    -420.4618141393391397 [Eh]

	 ================> DF-SCS-MP2 Energies <==================
	-----------------------------------------------------------
	 SCS Same-Spin Scale       =       0.3333333333333333 [-]
	 SCS Opposite-Spin Scale   =       1.2000000000000000 [-]
	 SCS Same-Spin Energy      =      -0.1360405401893465 [Eh]
	 SCS Opposite-Spin Energy  =      -1.5438033032330096 [Eh]
	 SCS Correlation Energy    =      -1.6798438434223562 [Eh]
	 SCS Total Energy          =    -420.4470336094992717 [Eh]
	-----------------------------------------------------------

  Dipole Moment: [D]
     X:    -1.2461      Y:     0.7673      Z:    -2.5575     Total:     2.9466

*** Psi4 exiting successfully. Buy a developer a beer!
