                               Psi4 1.3.2 release

  ==> Input File <==

--------------------------------------------------------------------------
#psi4
#
memory 32 gb

molecule  {
0 1
  O        1.2197630    -1.3791890     0.7815710
  O       -2.8493200    -0.0743410    -0.2921690
  O       -1.2471260     1.2289340     0.6316900
  C        1.6098530     0.5514350    -0.6010430
  C        0.7924890    -0.5949300    -0.0578730
  C       -0.6155180    -0.7660970    -0.6108670
  C        2.9660570     0.6794250     0.0724790
  C       -1.5653299     0.2540534    -0.0072811
  H        1.7167540     0.3993790    -1.6843760
  H        1.0152770     1.4637510    -0.4819620
  H       -0.6366420    -0.6467360    -1.7011060
  H       -0.9720840    -1.7722110    -0.3761960
  H        3.5474250    -0.2360290    -0.0491480
  H        3.5302360     1.5116820    -0.3550310
  H        2.8465530     0.8548240     1.1430380
  H       -3.3830203     0.6324295     0.1280428
units angstrom
no_reorient  #important for SAPT in psi4, default
symmetry c1  #important for SAPT in psi4, default
}

set PROPERTIES_ORIGIN ["COM"]
properties('MP2/aug-cc-pvtz', properties = ['dipole'])
--------------------------------------------------------------------------

    Molecular point group: c1
  Charge       = 0
  Multiplicity = 1
  Basis Set: AUG-CC-PVTZ
    Blend: AUG-CC-PVTZ
  Basis Set: (AUG-CC-PVTZ AUX)
    Blend: AUG-CC-PVTZ-JKFIT

    Orbital Energies [Eh]
    ---------------------

    Doubly Occupied:

       1A    -20.633025     2A    -20.571990     3A    -20.556133
       4A    -11.412558     5A    -11.343274     6A    -11.270511
       7A    -11.241079     8A    -11.217007     9A     -1.482338
      10A     -1.388782    11A     -1.381275    12A     -1.083072
      13A     -1.040407    14A     -0.900667    15A     -0.838512
      16A     -0.742694    17A     -0.720618    18A     -0.708309
      19A     -0.680538    20A     -0.648342    21A     -0.633169
      22A     -0.625934    23A     -0.599845    24A     -0.576842
      25A     -0.525685    26A     -0.518572    27A     -0.515045
      28A     -0.505337    29A     -0.491762    30A     -0.468752
      31A     -0.423898

  @DF-RHF Final Energy:  -418.76849396340378

   => Energetics <=

    Nuclear Repulsion Energy =            372.2907052843718816
    One-Electron Energy =               -1310.6264522016970204
    Two-Electron Energy =                 519.5672529539214111
    Total Energy =                       -418.7684939634037846
  Basis Set: (AUG-CC-PVTZ AUX)
    Blend: AUG-CC-PVTZ-RI
    Molecular point group: c1

    Geometry (in Angstrom), charge = 0, multiplicity = 1:

       Center              X                  Y                   Z               Mass
    ------------   -----------------  -----------------  -----------------  -----------------
         O            1.220083663290    -1.380211022550     0.780936876608    15.994914619570
         O           -2.848999336710    -0.075363022550    -0.292803123392    15.994914619570
         O           -1.246805336710     1.227911977450     0.631055876608    15.994914619570
         C            1.610173663290     0.550412977450    -0.601677123392    12.000000000000
         C            0.792809663290    -0.595952022550    -0.058507123392    12.000000000000
         C           -0.615197336710    -0.767119022550    -0.611501123392    12.000000000000
         C            2.966377663290     0.678402977450     0.071844876608    12.000000000000
         C           -1.565009236710     0.253031377450    -0.007915223392    12.000000000000
         H            1.717074663290     0.398356977450    -1.685010123392     1.007825032230
         H            1.015597663290     1.462728977450    -0.482596123392     1.007825032230
         H           -0.636321336710    -0.647758022550    -1.701740123392     1.007825032230
         H           -0.971763336710    -1.773233022550    -0.376830123392     1.007825032230
         H            3.547745663290    -0.237051022550    -0.049782123392     1.007825032230
         H            3.530556663290     1.510659977450    -0.355665123392     1.007825032230
         H            2.846873663290     0.853801977450     1.142403876608     1.007825032230
         H           -3.382699636710     0.631407477450     0.127408676608     1.007825032230

  Basis Set: AUG-CC-PVTZ
    Blend: AUG-CC-PVTZ
  Basis Set: (AUG-CC-PVTZ AUX)
    Blend: AUG-CC-PVTZ-JKFIT
	 Reference Energy          =    -418.7684939634037846 [Eh]
	 Singles Energy            =      -0.0000000000000000 [Eh]
	 Same-Spin Energy          =      -0.4080146047482037 [Eh]
	 Opposite-Spin Energy      =      -1.2861569654441678 [Eh]
	 Correlation Energy        =      -1.6941715701923714 [Eh]
	 Total Energy              =    -420.4626655335961800 [Eh]

	 ================> DF-SCS-MP2 Energies <==================
	-----------------------------------------------------------
	 SCS Same-Spin Scale       =       0.3333333333333333 [-]
	 SCS Opposite-Spin Scale   =       1.2000000000000000 [-]
	 SCS Same-Spin Energy      =      -0.1360048682494012 [Eh]
	 SCS Opposite-Spin Energy  =      -1.5433883585330013 [Eh]
	 SCS Correlation Energy    =      -1.6793932267824025 [Eh]
	 SCS Total Energy          =    -420.4478871901861794 [Eh]
	-----------------------------------------------------------

  Dipole Moment: [D]
     X:    -1.3621      Y:     0.8396      Z:    -2.5230     Total:     2.9876

*** Psi4 exiting successfully. Buy a developer a beer!
