                               Psi4 1.3.2 release

  ==> Input File <==

--------------------------------------------------------------------------
#psi4
#
memory 32 gb

molecule  {
0 1
  O        1.2197630    -1.3791890     0.7815710
  O       -2.8493200    -0.0743410    -0.2921690
  O       -1.2471260     1.2289340     0.6316900
  C        1.6098530     0.5514350    -0.6010430
  C        0.8273492    -0.6589156     0.0106150
  C       -0.6155180    -0.7660970    -0.6108670
  C        2.9660570     0.6794250     0.0724790
  C       -1.5616300     0.2444870    -0.0131750
  H        1.7167540     0.3993790    -1.6843760
  H        1.0152770     1.4637510    -0.4819620
  H       -0.6366420    -0.6467360    -1.7011060
  H       -0.9720840    -1.7722110    -0.3761960
  H        3.5474250    -0.2360290    -0.0491480
  H        3.5302360     1.5116820    -0.3550310
  H        2.8465530     0.8548240     1.1430380
  H       -3.3901630     0.6286630     0.1252190
units angstrom
no_reorient  #important for SAPT in psi4, default
symmetry c1  #important for SAPT in psi4, default
}

set PROPERTIES_ORIGIN ["COM"]
properties('MP2/aug-cc-pvtz', properties = ['dipole'])
--------------------------------------------------------------------------

    Molecular point group: c1
  Charge       = 0
  Multiplicity = 1
  Basis Set: AUG-CC-PVTZ
    Blend: AUG-CC-PVTZ
  Basis Set: (AUG-CC-PVTZ AUX)
    Blend: AUG-CC-PVTZ-JKFIT

    Orbital Energies [Eh]
    ---------------------

    Doubly Occupied:

       1A    -20.629299     2A    -20.566277     3A    -20.565245
       4A    -11.408767     5A    -11.336645     6A    -11.263728
       7A    -11.236115     8A    -11.214480     9A     -1.475962
      10A     -1.462950    11A     -1.372551    12A     -1.070233
      13A     -1.033338    14A     -0.888543    15A     -0.832390
      16A     -0.744463    17A     -0.718225    18A     -0.704224
      19A     -0.685857    20A     -0.651499    21A     -0.643187
      22A     -0.631194    23A     -0.594489    24A     -0.577455
      25A     -0.553622    26A     -0.531359    27A     -0.514863
      28A     -0.501513    29A     -0.491019    30A     -0.468036
      31A     -0.401898

  @DF-RHF Final Energy:  -418.75958017370806

   => Energetics <=

    Nuclear Repulsion Energy =            372.6610602607815395
    One-Electron Energy =               -1311.3024287190714858
    Two-Electron Energy =                 519.8817882845818303
    Total Energy =                       -418.7595801737080592
  Basis Set: (AUG-CC-PVTZ AUX)
    Blend: AUG-CC-PVTZ-RI
    Molecular point group: c1

    Geometry (in Angstrom), charge = 0, multiplicity = 1:

       Center              X                  Y                   Z               Mass
    ------------   -----------------  -----------------  -----------------  -----------------
         O            1.216158346329    -1.372572588601     0.774488790188    15.994914619570
         O           -2.852924653671    -0.067724588601    -0.299251209812    15.994914619570
         O           -1.250730653671     1.235550411399     0.624607790188    15.994914619570
         C            1.606248346329     0.558051411399    -0.608125209812    12.000000000000
         C            0.823744546329    -0.652299188601     0.003532790188    12.000000000000
         C           -0.619122653671    -0.759480588601    -0.617949209812    12.000000000000
         C            2.962452346329     0.686041411399     0.065396790188    12.000000000000
         C           -1.565234653671     0.251103411399    -0.020257209812    12.000000000000
         H            1.713149346329     0.405995411399    -1.691458209812     1.007825032230
         H            1.011672346329     1.470367411399    -0.489044209812     1.007825032230
         H           -0.640246653671    -0.640119588601    -1.708188209812     1.007825032230
         H           -0.975688653671    -1.765594588601    -0.383278209812     1.007825032230
         H            3.543820346329    -0.229412588601    -0.056230209812     1.007825032230
         H            3.526631346329     1.518298411399    -0.362113209812     1.007825032230
         H            2.842948346329     0.861440411399     1.135955790188     1.007825032230
         H           -3.393767653671     0.635279411399     0.118136790188     1.007825032230

  Basis Set: AUG-CC-PVTZ
    Blend: AUG-CC-PVTZ
  Basis Set: (AUG-CC-PVTZ AUX)
    Blend: AUG-CC-PVTZ-JKFIT
	 Reference Energy          =    -418.7595801737080592 [Eh]
	 Singles Energy            =      -0.0000000000000000 [Eh]
	 Same-Spin Energy          =      -0.4056479654158729 [Eh]
	 Opposite-Spin Energy      =      -1.2811106685637585 [Eh]
	 Correlation Energy        =      -1.6867586339796314 [Eh]
	 Total Energy              =    -420.4463388076877095 [Eh]

	 ================> DF-SCS-MP2 Energies <==================
	-----------------------------------------------------------
	 SCS Same-Spin Scale       =       0.3333333333333333 [-]
	 SCS Opposite-Spin Scale   =       1.2000000000000000 [-]
	 SCS Same-Spin Energy      =      -0.1352159884719576 [Eh]
	 SCS Opposite-Spin Energy  =      -1.5373328022765103 [Eh]
	 SCS Correlation Energy    =      -1.6725487907484680 [Eh]
	 SCS Total Energy          =    -420.4321289644565240 [Eh]
	-----------------------------------------------------------

  Dipole Moment: [D]
     X:    -1.1280      Y:     0.4330      Z:    -2.2313     Total:     2.5375

*** Psi4 exiting successfully. Buy a developer a beer!
