                               Psi4 1.4a3.dev225

  ==> Input File <==

--------------------------------------------------------------------------
#psi4
#
memory 32 gb

molecule  {
0 1
  O        1.1896460     1.3864710    -0.7896670
  O       -2.9164350     0.0620530     0.2465870
  O       -1.2994600    -1.1722570    -0.7513140
  C        1.5277270    -0.5390120     0.6173550
  C        0.7330570     0.6116870     0.0446410
  C       -0.6915030     0.7929470     0.5540020
  C        2.9119880    -0.6669770    -0.0005940
  C       -1.5949599    -0.1861089    -0.0433595
  H        1.5906630    -0.3916430     1.7048170
  H        0.9378800    -1.4511620     0.4690430
  H       -0.7449460     0.6872940     1.6445860
  H       -1.0362610     1.7983420     0.2961770
  H        3.4930330     0.2441750     0.1549910
  H        3.4532110    -1.5066350     0.4428820
  H        2.8367130    -0.8315610    -1.0772290
  H       -3.4525110    -0.6329900    -0.1896390
units angstrom
no_reorient  #important for SAPT in psi4, default
symmetry c1  #important for SAPT in psi4, default
}

set PROPERTIES_ORIGIN ["COM"]
properties('MP2/aug-cc-pvtz', properties = ['dipole'])
--------------------------------------------------------------------------

    Molecular point group: c1
  Charge       = 0
  Multiplicity = 1
  Basis Set: AUG-CC-PVTZ
    Blend: AUG-CC-PVTZ
  Basis Set: (AUG-CC-PVTZ AUX)
    Blend: AUG-CC-PVTZ-JKFIT

    Orbital Energies [Eh]
    ---------------------

    Doubly Occupied:

       1A    -20.628170     2A    -20.568192     3A    -20.559754
       4A    -11.417467     5A    -11.348050     6A    -11.274771
       7A    -11.243882     8A    -11.218875     9A     -1.464736
      10A     -1.390803    11A     -1.356621    12A     -1.095930
      13A     -1.048058    14A     -0.904686    15A     -0.838996
      16A     -0.743201    17A     -0.718253    18A     -0.703023
      19A     -0.682522    20A     -0.649289    21A     -0.630325
      22A     -0.625588    23A     -0.596144    24A     -0.576539
      25A     -0.527972    26A     -0.519003    27A     -0.517195
      28A     -0.498547    29A     -0.485082    30A     -0.470314
      31A     -0.427915

  @DF-RHF Final Energy:  -418.76000010419978

   => Energetics <=

    Nuclear Repulsion Energy =            371.8558240678606239
    One-Electron Energy =               -1309.7718357700462093
    Two-Electron Energy =                 519.1560115979858665
    Total Energy =                       -418.7600001041997757
  Basis Set: (AUG-CC-PVTZ AUX)
    Blend: AUG-CC-PVTZ-RI
    Molecular point group: c1

    Geometry (in Angstrom), charge = 0, multiplicity = 1:

       Center              X                  Y                   Z               Mass
    ------------   -----------------  -----------------  -----------------  -----------------
         O            1.246827138877     1.365196825047    -0.762379883797    15.994914619570
         O           -2.859253861123     0.040778825047     0.273874116203    15.994914619570
         O           -1.242278861123    -1.193531174953    -0.724026883797    15.994914619570
         C            1.584908138877    -0.560286174953     0.644642116203    12.000000000000
         C            0.790238138877     0.590412825047     0.071928116203    12.000000000000
         C           -0.634321861123     0.771672825047     0.581289116203    12.000000000000
         C            2.969169138877    -0.688251174953     0.026693116203    12.000000000000
         C           -1.537778761123    -0.207383074953    -0.016072383797    12.000000000000
         H            1.647844138877    -0.412917174953     1.732104116203     1.007825032230
         H            0.995061138877    -1.472436174953     0.496330116203     1.007825032230
         H           -0.687764861123     0.666019825047     1.671873116203     1.007825032230
         H           -0.979079861123     1.777067825047     0.323464116203     1.007825032230
         H            3.550214138877     0.222900825047     0.182278116203     1.007825032230
         H            3.510392138877    -1.527909174953     0.470169116203     1.007825032230
         H            2.893894138877    -0.852835174953    -1.049941883797     1.007825032230
         H           -3.395329861123    -0.654264174953    -0.162351883797     1.007825032230

  Basis Set: AUG-CC-PVTZ
    Blend: AUG-CC-PVTZ
  Basis Set: (AUG-CC-PVTZ AUX)
    Blend: AUG-CC-PVTZ-JKFIT
	 Reference Energy          =    -418.7600001041997757 [Eh]
	 Singles Energy            =      -0.0000000000000000 [Eh]
	 Same-Spin Energy          =      -0.4093493905634319 [Eh]
	 Opposite-Spin Energy      =      -1.2890313684537693 [Eh]
	 Correlation Energy        =      -1.6983807590172013 [Eh]
	 Total Energy              =    -420.4583808632169735 [Eh]

	 ================> DF-SCS-MP2 Energies <==================
	-----------------------------------------------------------
	 SCS Same-Spin Scale       =       0.3333333333333333 [-]
	 SCS Opposite-Spin Scale   =       1.2000000000000000 [-]
	 SCS Same-Spin Energy      =      -0.1364497968544773 [Eh]
	 SCS Opposite-Spin Energy  =      -1.5468376421445231 [Eh]
	 SCS Correlation Energy    =      -1.6832874389990005 [Eh]
	 SCS Total Energy          =    -420.4432875431987782 [Eh]
	-----------------------------------------------------------

  Dipole Moment: [D]
     X:    -1.1790      Y:    -0.6261      Z:     2.6793     Total:     2.9934

*** Psi4 exiting successfully. Buy a developer a beer!
