                               Psi4 1.3.2 release

  ==> Input File <==

--------------------------------------------------------------------------
#psi4
#
memory 32 gb

molecule  {
0 1
  O        1.2197630    -1.3791890     0.7815710
  O       -2.8493200    -0.0743410    -0.2921690
  O       -1.2471260     1.2289340     0.6316900
  C        1.6098530     0.5514350    -0.6010430
  C        0.7827891    -0.5865320    -0.0549051
  C       -0.6155180    -0.7660970    -0.6108670
  C        2.9660570     0.6794250     0.0724790
  C       -1.5616300     0.2444870    -0.0131750
  H        1.7167540     0.3993790    -1.6843760
  H        1.0082436     1.4586044    -0.4780338
  H       -0.6366420    -0.6467360    -1.7011060
  H       -0.9720840    -1.7722110    -0.3761960
  H        3.5474250    -0.2360290    -0.0491480
  H        3.5302360     1.5116820    -0.3550310
  H        2.8465530     0.8548240     1.1430380
  H       -3.3901630     0.6286630     0.1252190
units angstrom
no_reorient  #important for SAPT in psi4, default
symmetry c1  #important for SAPT in psi4, default
}

set PROPERTIES_ORIGIN ["COM"]
properties('MP2/aug-cc-pvtz', properties = ['dipole'])
--------------------------------------------------------------------------

    Molecular point group: c1
  Charge       = 0
  Multiplicity = 1
  Basis Set: AUG-CC-PVTZ
    Blend: AUG-CC-PVTZ
  Basis Set: (AUG-CC-PVTZ AUX)
    Blend: AUG-CC-PVTZ-JKFIT

    Orbital Energies [Eh]
    ---------------------

    Doubly Occupied:

       1A    -20.633247     2A    -20.571001     3A    -20.555976
       4A    -11.413906     5A    -11.344347     6A    -11.271852
       7A    -11.241446     8A    -11.217177     9A     -1.480008
      10A     -1.384712    11A     -1.376187    12A     -1.086397
      13A     -1.042365    14A     -0.902210    15A     -0.840392
      16A     -0.742771    17A     -0.720041    18A     -0.708193
      19A     -0.681025    20A     -0.647978    21A     -0.632395
      22A     -0.625295    23A     -0.599045    24A     -0.576848
      25A     -0.525776    26A     -0.517678    27A     -0.514355
      28A     -0.503108    29A     -0.490516    30A     -0.468736
      31A     -0.425360

  @DF-RHF Final Energy:  -418.76683845623000

   => Energetics <=

    Nuclear Repulsion Energy =            372.3051181484926815
    One-Electron Energy =               -1310.6632317427370253
    Two-Electron Energy =                 519.5912751380143391
    Total Energy =                       -418.7668384562299480
  Basis Set: (AUG-CC-PVTZ AUX)
    Blend: AUG-CC-PVTZ-RI
    Molecular point group: c1

    Geometry (in Angstrom), charge = 0, multiplicity = 1:

       Center              X                  Y                   Z               Mass
    ------------   -----------------  -----------------  -----------------  -----------------
         O            1.220827213512    -1.380012796167     0.781229851500    15.994914619570
         O           -2.848255786488    -0.075164796167    -0.292510148500    15.994914619570
         O           -1.246061786488     1.228110203833     0.631348851500    15.994914619570
         C            1.610917213512     0.550611203833    -0.601384148500    12.000000000000
         C            0.783853313512    -0.587355796167    -0.055246248500    12.000000000000
         C           -0.614453786488    -0.766920796167    -0.611208148500    12.000000000000
         C            2.967121213512     0.678601203833     0.072137851500    12.000000000000
         C           -1.560565786488     0.243663203833    -0.013516148500    12.000000000000
         H            1.717818213512     0.398555203833    -1.684717148500     1.007825032230
         H            1.009307813512     1.457780603833    -0.478374948500     1.007825032230
         H           -0.635577786488    -0.647559796167    -1.701447148500     1.007825032230
         H           -0.971019786488    -1.773034796167    -0.376537148500     1.007825032230
         H            3.548489213512    -0.236852796167    -0.049489148500     1.007825032230
         H            3.531300213512     1.510858203833    -0.355372148500     1.007825032230
         H            2.847617213512     0.854000203833     1.142696851500     1.007825032230
         H           -3.389098786488     0.627839203833     0.124877851500     1.007825032230

  Basis Set: AUG-CC-PVTZ
    Blend: AUG-CC-PVTZ
  Basis Set: (AUG-CC-PVTZ AUX)
    Blend: AUG-CC-PVTZ-JKFIT
	 Reference Energy          =    -418.7668384562300048 [Eh]
	 Singles Energy            =      -0.0000000000000000 [Eh]
	 Same-Spin Energy          =      -0.4084733477896018 [Eh]
	 Opposite-Spin Energy      =      -1.2870513703361395 [Eh]
	 Correlation Energy        =      -1.6955247181257413 [Eh]
	 Total Energy              =    -420.4623631743557439 [Eh]

	 ================> DF-SCS-MP2 Energies <==================
	-----------------------------------------------------------
	 SCS Same-Spin Scale       =       0.3333333333333333 [-]
	 SCS Opposite-Spin Scale   =       1.2000000000000000 [-]
	 SCS Same-Spin Energy      =      -0.1361577825965339 [Eh]
	 SCS Opposite-Spin Energy  =      -1.5444616444033674 [Eh]
	 SCS Correlation Energy    =      -1.6806194269999013 [Eh]
	 SCS Total Energy          =    -420.4474578832299017 [Eh]
	-----------------------------------------------------------

  Dipole Moment: [D]
     X:    -1.3871      Y:     0.7944      Z:    -2.5718     Total:     3.0281

*** Psi4 exiting successfully. Buy a developer a beer!
