                               Psi4 1.3.2 release

  ==> Input File <==

--------------------------------------------------------------------------
#psi4
#
memory 32 gb

molecule  {
0 1
  O        1.2197630    -1.3791890     0.7815710
  O       -2.8493200    -0.0743410    -0.2921690
  O       -1.3090888     1.2428827     0.6374619
  C        1.6098530     0.5514350    -0.6010430
  C        0.7924890    -0.5949300    -0.0578730
  C       -0.6781701    -0.8050668    -0.6389378
  C        2.9660570     0.6794250     0.0724790
  C       -1.5616300     0.2444870    -0.0131750
  H        1.7167540     0.3993790    -1.6843760
  H        1.0152770     1.4637510    -0.4819620
  H       -0.6366420    -0.6467360    -1.7011060
  H       -0.9720840    -1.7722110    -0.3761960
  H        3.5474250    -0.2360290    -0.0491480
  H        3.5302360     1.5116820    -0.3550310
  H        2.8465530     0.8548240     1.1430380
  H       -3.3901630     0.6286630     0.1252190
units angstrom
no_reorient  #important for SAPT in psi4, default
symmetry c1  #important for SAPT in psi4, default
}

set PROPERTIES_ORIGIN ["COM"]
properties('MP2/aug-cc-pvtz', properties = ['dipole'])
--------------------------------------------------------------------------

    Molecular point group: c1
  Charge       = 0
  Multiplicity = 1
  Basis Set: AUG-CC-PVTZ
    Blend: AUG-CC-PVTZ
  Basis Set: (AUG-CC-PVTZ AUX)
    Blend: AUG-CC-PVTZ-JKFIT

    Orbital Energies [Eh]
    ---------------------

    Doubly Occupied:

       1A    -20.624918     2A    -20.571049     3A    -20.558375
       4A    -11.412262     5A    -11.348672     6A    -11.271828
       7A    -11.244307     8A    -11.219016     9A     -1.478777
      10A     -1.388919    11A     -1.370838    12A     -1.082109
      13A     -1.044800    14A     -0.900301    15A     -0.837144
      16A     -0.741313    17A     -0.716416    18A     -0.706587
      19A     -0.684484    20A     -0.645610    21A     -0.632543
      22A     -0.622216    23A     -0.600197    24A     -0.586711
      25A     -0.531015    26A     -0.519803    27A     -0.516939
      28A     -0.501557    29A     -0.490894    30A     -0.471633
      31A     -0.418455

  @DF-RHF Final Energy:  -418.76082501284611

   => Energetics <=

    Nuclear Repulsion Energy =            370.8156162792116675
    One-Electron Energy =               -1307.6735110819154215
    Two-Electron Energy =                 518.0970697898576418
    Total Energy =                       -418.7608250128461123
  Basis Set: (AUG-CC-PVTZ AUX)
    Blend: AUG-CC-PVTZ-RI
    Molecular point group: c1

    Geometry (in Angstrom), charge = 0, multiplicity = 1:

       Center              X                  Y                   Z               Mass
    ------------   -----------------  -----------------  -----------------  -----------------
         O            1.234782101246    -1.377081936657     0.783678009989    15.994914619570
         O           -2.834300898754    -0.072233936657    -0.290061990011    15.994914619570
         O           -1.294069698754     1.244989763343     0.639568909989    15.994914619570
         C            1.624872101246     0.553542063343    -0.598935990011    12.000000000000
         C            0.807508101246    -0.592822936657    -0.055765990011    12.000000000000
         C           -0.663150998754    -0.802959736657    -0.636830790011    12.000000000000
         C            2.981076101246     0.681532063343     0.074586009989    12.000000000000
         C           -1.546610898754     0.246594063343    -0.011067990011    12.000000000000
         H            1.731773101246     0.401486063343    -1.682268990011     1.007825032230
         H            1.030296101246     1.465858063343    -0.479854990011     1.007825032230
         H           -0.621622898754    -0.644628936657    -1.698998990011     1.007825032230
         H           -0.957064898754    -1.770103936657    -0.374088990011     1.007825032230
         H            3.562444101246    -0.233921936657    -0.047040990011     1.007825032230
         H            3.545255101246     1.513789063343    -0.352923990011     1.007825032230
         H            2.861572101246     0.856931063343     1.145145009989     1.007825032230
         H           -3.375143898754     0.630770063343     0.127326009989     1.007825032230

  Basis Set: AUG-CC-PVTZ
    Blend: AUG-CC-PVTZ
  Basis Set: (AUG-CC-PVTZ AUX)
    Blend: AUG-CC-PVTZ-JKFIT
	 Reference Energy          =    -418.7608250128461123 [Eh]
	 Singles Energy            =      -0.0000000000000000 [Eh]
	 Same-Spin Energy          =      -0.4081174993850209 [Eh]
	 Opposite-Spin Energy      =      -1.2867851561945836 [Eh]
	 Correlation Energy        =      -1.6949026555796045 [Eh]
	 Total Energy              =    -420.4557276684257090 [Eh]

	 ================> DF-SCS-MP2 Energies <==================
	-----------------------------------------------------------
	 SCS Same-Spin Scale       =       0.3333333333333333 [-]
	 SCS Opposite-Spin Scale   =       1.2000000000000000 [-]
	 SCS Same-Spin Energy      =      -0.1360391664616736 [Eh]
	 SCS Opposite-Spin Energy  =      -1.5441421874335002 [Eh]
	 SCS Correlation Energy    =      -1.6801813538951738 [Eh]
	 SCS Total Energy          =    -420.4410063667413056 [Eh]
	-----------------------------------------------------------

  Dipole Moment: [D]
     X:    -1.0350      Y:     0.7420      Z:    -2.5526     Total:     2.8526

*** Psi4 exiting successfully. Buy a developer a beer!
