                               Psi4 1.3.2 release

  ==> Input File <==

--------------------------------------------------------------------------
#psi4
#
memory 32 gb

molecule  {
0 1
  O        1.2197630    -1.3791890     0.7815710
  O       -2.8493200    -0.0743410    -0.2921690
  O       -1.2471260     1.2289340     0.6316900
  C        1.6098530     0.5514350    -0.6010430
  C        0.7827708    -0.5918804    -0.0662204
  C       -0.6155180    -0.7660970    -0.6108670
  C        2.9688182     0.6898795     0.0648017
  C       -1.5616300     0.2444870    -0.0131750
  H        1.7167540     0.3993790    -1.6843760
  H        1.0152770     1.4637510    -0.4819620
  H       -0.6366420    -0.6467360    -1.7011060
  H       -0.9720840    -1.7722110    -0.3761960
  H        3.5474250    -0.2360290    -0.0491480
  H        3.5302360     1.5116820    -0.3550310
  H        2.8465530     0.8548240     1.1430380
  H       -3.3901630     0.6286630     0.1252190
units angstrom
no_reorient  #important for SAPT in psi4, default
symmetry c1  #important for SAPT in psi4, default
}

set PROPERTIES_ORIGIN ["COM"]
properties('MP2/aug-cc-pvtz', properties = ['dipole'])
--------------------------------------------------------------------------

    Molecular point group: c1
  Charge       = 0
  Multiplicity = 1
  Basis Set: AUG-CC-PVTZ
    Blend: AUG-CC-PVTZ
  Basis Set: (AUG-CC-PVTZ AUX)
    Blend: AUG-CC-PVTZ-JKFIT

    Orbital Energies [Eh]
    ---------------------

    Doubly Occupied:

       1A    -20.633535     2A    -20.571106     3A    -20.555918
       4A    -11.414320     5A    -11.345012     6A    -11.272291
       7A    -11.241610     8A    -11.217189     9A     -1.480214
      10A     -1.382482    11A     -1.375838    12A     -1.087154
      13A     -1.042571    14A     -0.902711    15A     -0.841126
      16A     -0.742930    17A     -0.720227    18A     -0.708363
      19A     -0.681268    20A     -0.648394    21A     -0.631301
      22A     -0.625090    23A     -0.598807    24A     -0.577482
      25A     -0.529331    26A     -0.516376    27A     -0.511706
      28A     -0.502472    29A     -0.489506    30A     -0.468242
      31A     -0.426500

  @DF-RHF Final Energy:  -418.76610168631692

   => Energetics <=

    Nuclear Repulsion Energy =            372.1530766897554372
    One-Electron Energy =               -1310.3562123941810569
    Two-Electron Energy =                 519.4370340181087613
    Total Energy =                       -418.7661016863169152
  Basis Set: (AUG-CC-PVTZ AUX)
    Blend: AUG-CC-PVTZ-RI
    Molecular point group: c1

    Geometry (in Angstrom), charge = 0, multiplicity = 1:

       Center              X                  Y                   Z               Mass
    ------------   -----------------  -----------------  -----------------  -----------------
         O            1.220482498716    -1.380585494085     0.783227916514    15.994914619570
         O           -2.848600501284    -0.075737494085    -0.290512083486    15.994914619570
         O           -1.246406501284     1.227537505915     0.633346916514    15.994914619570
         C            1.610572498716     0.550038505915    -0.599386083486    12.000000000000
         C            0.783490298716    -0.593276894085    -0.064563483486    12.000000000000
         C           -0.614798501284    -0.767493494085    -0.609210083486    12.000000000000
         C            2.969537698716     0.688483005915     0.066458616514    12.000000000000
         C           -1.560910501284     0.243090505915    -0.011518083486    12.000000000000
         H            1.717473498716     0.397982505915    -1.682719083486     1.007825032230
         H            1.015996498716     1.462354505915    -0.480305083486     1.007825032230
         H           -0.635922501284    -0.648132494085    -1.699449083486     1.007825032230
         H           -0.971364501284    -1.773607494085    -0.374539083486     1.007825032230
         H            3.548144498716    -0.237425494085    -0.047491083486     1.007825032230
         H            3.530955498716     1.510285505915    -0.353374083486     1.007825032230
         H            2.847272498716     0.853427505915     1.144694916514     1.007825032230
         H           -3.389443501284     0.627266505915     0.126875916514     1.007825032230

  Basis Set: AUG-CC-PVTZ
    Blend: AUG-CC-PVTZ
  Basis Set: (AUG-CC-PVTZ AUX)
    Blend: AUG-CC-PVTZ-JKFIT
	 Reference Energy          =    -418.7661016863169152 [Eh]
	 Singles Energy            =      -0.0000000000000000 [Eh]
	 Same-Spin Energy          =      -0.4085911024199452 [Eh]
	 Opposite-Spin Energy      =      -1.2873434157734074 [Eh]
	 Correlation Energy        =      -1.6959345181933525 [Eh]
	 Total Energy              =    -420.4620362045102411 [Eh]

	 ================> DF-SCS-MP2 Energies <==================
	-----------------------------------------------------------
	 SCS Same-Spin Scale       =       0.3333333333333333 [-]
	 SCS Opposite-Spin Scale   =       1.2000000000000000 [-]
	 SCS Same-Spin Energy      =      -0.1361970341399817 [Eh]
	 SCS Opposite-Spin Energy  =      -1.5448120989280889 [Eh]
	 SCS Correlation Energy    =      -1.6810091330680708 [Eh]
	 SCS Total Energy          =    -420.4471108193849886 [Eh]
	-----------------------------------------------------------

  Dipole Moment: [D]
     X:    -1.4019      Y:     0.8061      Z:    -2.5880     Total:     3.0517

*** Psi4 exiting successfully. Buy a developer a beer!
