                               Psi4 1.3.2 release

  ==> Input File <==

--------------------------------------------------------------------------
#psi4
#
memory 32 gb

molecule  {
0 1
  O        1.2197630    -1.3791890     0.7815710
  O       -2.8493200    -0.0743410    -0.2921690
  O       -1.2471260     1.2289340     0.6316900
  C        1.6098530     0.5514350    -0.6010430
  C        0.7631725    -0.6080126     0.0150772
  C       -0.6155180    -0.7660970    -0.6108670
  C        2.9660570     0.6794250     0.0724790
  C       -1.5616300     0.2444870    -0.0131750
  H        1.7167540     0.3993790    -1.6843760
  H        1.0152770     1.4637510    -0.4819620
  H       -0.6932486    -0.6562990    -1.6995436
  H       -0.9720840    -1.7722110    -0.3761960
  H        3.5474250    -0.2360290    -0.0491480
  H        3.5302360     1.5116820    -0.3550310
  H        2.8465530     0.8548240     1.1430380
  H       -3.3901630     0.6286630     0.1252190
units angstrom
no_reorient  #important for SAPT in psi4, default
symmetry c1  #important for SAPT in psi4, default
}

set PROPERTIES_ORIGIN ["COM"]
properties('MP2/aug-cc-pvtz', properties = ['dipole'])
--------------------------------------------------------------------------

    Molecular point group: c1
  Charge       = 0
  Multiplicity = 1
  Basis Set: AUG-CC-PVTZ
    Blend: AUG-CC-PVTZ
  Basis Set: (AUG-CC-PVTZ AUX)
    Blend: AUG-CC-PVTZ-JKFIT

    Orbital Energies [Eh]
    ---------------------

    Doubly Occupied:

       1A    -20.632056     2A    -20.570003     3A    -20.561399
       4A    -11.412116     5A    -11.341315     6A    -11.269564
       7A    -11.237720     8A    -11.214341     9A     -1.479053
      10A     -1.421973    11A     -1.376123    12A     -1.080560
      13A     -1.036000    14A     -0.892706    15A     -0.836608
      16A     -0.745274    17A     -0.720065    18A     -0.707259
      19A     -0.683990    20A     -0.648941    21A     -0.637155
      22A     -0.627778    23A     -0.597393    24A     -0.577399
      25A     -0.531113    26A     -0.526830    27A     -0.514549
      28A     -0.503219    29A     -0.491443    30A     -0.470150
      31A     -0.414065

  @DF-RHF Final Energy:  -418.76544294417261

   => Energetics <=

    Nuclear Repulsion Energy =            372.6322207972137903
    One-Electron Energy =               -1311.2790010039898334
    Two-Electron Energy =                 519.8813372626034379
    Total Energy =                       -418.7654429441726052
  Basis Set: (AUG-CC-PVTZ AUX)
    Blend: AUG-CC-PVTZ-RI
    Molecular point group: c1

    Geometry (in Angstrom), charge = 0, multiplicity = 1:

       Center              X                  Y                   Z               Mass
    ------------   -----------------  -----------------  -----------------  -----------------
         O            1.223286212588    -1.377753217023     0.774013802792    15.994914619570
         O           -2.845796787412    -0.072905217023    -0.299726197208    15.994914619570
         O           -1.243602787412     1.230369782977     0.624132802792    15.994914619570
         C            1.613376212588     0.552870782977    -0.608600197208    12.000000000000
         C            0.766695712588    -0.606576817023     0.007520002792    12.000000000000
         C           -0.611994787412    -0.764661217023    -0.618424197208    12.000000000000
         C            2.969580212588     0.680860782977     0.064921802792    12.000000000000
         C           -1.558106787412     0.245922782977    -0.020732197208    12.000000000000
         H            1.720277212588     0.400814782977    -1.691933197208     1.007825032230
         H            1.018800212588     1.465186782977    -0.489519197208     1.007825032230
         H           -0.689725387412    -0.654863217023    -1.707100797208     1.007825032230
         H           -0.968560787412    -1.770775217023    -0.383753197208     1.007825032230
         H            3.550948212588    -0.234593217023    -0.056705197208     1.007825032230
         H            3.533759212588     1.513117782977    -0.362588197208     1.007825032230
         H            2.850076212588     0.856259782977     1.135480802792     1.007825032230
         H           -3.386639787412     0.630098782977     0.117661802792     1.007825032230

  Basis Set: AUG-CC-PVTZ
    Blend: AUG-CC-PVTZ
  Basis Set: (AUG-CC-PVTZ AUX)
    Blend: AUG-CC-PVTZ-JKFIT
	 Reference Energy          =    -418.7654429441726052 [Eh]
	 Singles Energy            =      -0.0000000000000000 [Eh]
	 Same-Spin Energy          =      -0.4070922747505079 [Eh]
	 Opposite-Spin Energy      =      -1.2842030422910442 [Eh]
	 Correlation Energy        =      -1.6912953170415521 [Eh]
	 Total Energy              =    -420.4567382612141841 [Eh]

	 ================> DF-SCS-MP2 Energies <==================
	-----------------------------------------------------------
	 SCS Same-Spin Scale       =       0.3333333333333333 [-]
	 SCS Opposite-Spin Scale   =       1.2000000000000000 [-]
	 SCS Same-Spin Energy      =      -0.1356974249168360 [Eh]
	 SCS Opposite-Spin Energy  =      -1.5410436507492531 [Eh]
	 SCS Correlation Energy    =      -1.6767410756660890 [Eh]
	 SCS Total Energy          =    -420.4421840198386917 [Eh]
	-----------------------------------------------------------

  Dipole Moment: [D]
     X:    -1.4384      Y:     0.5645      Z:    -2.3945     Total:     2.8498

*** Psi4 exiting successfully. Buy a developer a beer!
