                               Psi4 1.3.2 release

  ==> Input File <==

--------------------------------------------------------------------------
#psi4
#
memory 32 gb

molecule  {
0 1
  O        1.2010607    -1.3895638     0.7811251
  O       -2.8493200    -0.0743410    -0.2921690
  O       -1.2471260     1.2289340     0.6316900
  C        1.5895460     0.5583772    -0.6163109
  C        0.7924890    -0.5949300    -0.0578730
  C       -0.6155180    -0.7660970    -0.6108670
  C        2.9660570     0.6794250     0.0724790
  C       -1.5616300     0.2444870    -0.0131750
  H        1.7167540     0.3993790    -1.6843760
  H        1.0152770     1.4637510    -0.4819620
  H       -0.6366420    -0.6467360    -1.7011060
  H       -0.9720840    -1.7722110    -0.3761960
  H        3.5474250    -0.2360290    -0.0491480
  H        3.5302360     1.5116820    -0.3550310
  H        2.8465530     0.8548240     1.1430380
  H       -3.3901630     0.6286630     0.1252190
units angstrom
no_reorient  #important for SAPT in psi4, default
symmetry c1  #important for SAPT in psi4, default
}

set PROPERTIES_ORIGIN ["COM"]
properties('MP2/aug-cc-pvtz', properties = ['dipole'])
--------------------------------------------------------------------------

    Molecular point group: c1
  Charge       = 0
  Multiplicity = 1
  Basis Set: AUG-CC-PVTZ
    Blend: AUG-CC-PVTZ
  Basis Set: (AUG-CC-PVTZ AUX)
    Blend: AUG-CC-PVTZ-JKFIT

    Orbital Energies [Eh]
    ---------------------

    Doubly Occupied:

       1A    -20.632344     2A    -20.569941     3A    -20.557724
       4A    -11.412776     5A    -11.344487     6A    -11.269389
       7A    -11.241169     8A    -11.218834     9A     -1.479021
      10A     -1.389366    11A     -1.375609    12A     -1.084819
      13A     -1.039376    14A     -0.901668    15A     -0.839783
      16A     -0.743933    17A     -0.719625    18A     -0.707240
      19A     -0.680752    20A     -0.647326    21A     -0.634145
      22A     -0.626315    23A     -0.598427    24A     -0.576291
      25A     -0.525136    26A     -0.518053    27A     -0.513128
      28A     -0.503826    29A     -0.493106    30A     -0.469581
      31A     -0.424606

  @DF-RHF Final Energy:  -418.76724388254132

   => Energetics <=

    Nuclear Repulsion Energy =            372.1635072460200035
    One-Electron Energy =               -1310.3859084113437348
    Two-Electron Energy =                 519.4551572827824657
    Total Energy =                       -418.7672438825412655
  Basis Set: (AUG-CC-PVTZ AUX)
    Blend: AUG-CC-PVTZ-RI
    Molecular point group: c1

    Geometry (in Angstrom), charge = 0, multiplicity = 1:

       Center              X                  Y                   Z               Mass
    ------------   -----------------  -----------------  -----------------  -----------------
         O            1.205738425379    -1.388851785337     0.782765217616    15.994914619570
         O           -2.844642274621    -0.073628985337    -0.290528882384    15.994914619570
         O           -1.242448274621     1.229646014663     0.633330117616    15.994914619570
         C            1.594223725379     0.559089214663    -0.614670782384    12.000000000000
         C            0.797166725379    -0.594217985337    -0.056232882384    12.000000000000
         C           -0.610840274621    -0.765384985337    -0.609226882384    12.000000000000
         C            2.970734725379     0.680137014663     0.074119117616    12.000000000000
         C           -1.556952274621     0.245199014663    -0.011534882384    12.000000000000
         H            1.721431725379     0.400091014663    -1.682735882384     1.007825032230
         H            1.019954725379     1.464463014663    -0.480321882384     1.007825032230
         H           -0.631964274621    -0.646023985337    -1.699465882384     1.007825032230
         H           -0.967406274621    -1.771498985337    -0.374555882384     1.007825032230
         H            3.552102725379    -0.235316985337    -0.047507882384     1.007825032230
         H            3.534913725379     1.512394014663    -0.353390882384     1.007825032230
         H            2.851230725379     0.855536014663     1.144678117616     1.007825032230
         H           -3.385485274621     0.629375014663     0.126859117616     1.007825032230

  Basis Set: AUG-CC-PVTZ
    Blend: AUG-CC-PVTZ
  Basis Set: (AUG-CC-PVTZ AUX)
    Blend: AUG-CC-PVTZ-JKFIT
	 Reference Energy          =    -418.7672438825413224 [Eh]
	 Singles Energy            =      -0.0000000000000000 [Eh]
	 Same-Spin Energy          =      -0.4080755542505923 [Eh]
	 Opposite-Spin Energy      =      -1.2865079906524675 [Eh]
	 Correlation Energy        =      -1.6945835449030597 [Eh]
	 Total Energy              =    -420.4618274274444047 [Eh]

	 ================> DF-SCS-MP2 Energies <==================
	-----------------------------------------------------------
	 SCS Same-Spin Scale       =       0.3333333333333333 [-]
	 SCS Opposite-Spin Scale   =       1.2000000000000000 [-]
	 SCS Same-Spin Energy      =      -0.1360251847501974 [Eh]
	 SCS Opposite-Spin Energy  =      -1.5438095887829608 [Eh]
	 SCS Correlation Energy    =      -1.6798347735331582 [Eh]
	 SCS Total Energy          =    -420.4470786560744955 [Eh]
	-----------------------------------------------------------

  Dipole Moment: [D]
     X:    -1.2951      Y:     0.7979      Z:    -2.5600     Total:     2.9779

*** Psi4 exiting successfully. Buy a developer a beer!
