                               Psi4 1.3.2 release

  ==> Input File <==

--------------------------------------------------------------------------
#psi4
#
memory 32 gb

molecule  {
0 1
  O        1.2197630    -1.3791890     0.7815710
  O       -2.8493200    -0.0743410    -0.2921690
  O       -1.2471260     1.2289340     0.6316900
  C        1.6098530     0.5514350    -0.6010430
  C        0.7924890    -0.5949300    -0.0578730
  C       -0.6155180    -0.7660970    -0.6108670
  C        2.9660570     0.6794250     0.0724790
  C       -1.5770152     0.2825995     0.0102686
  H        1.7167540     0.3993790    -1.6843760
  H        1.0152770     1.4637510    -0.4819620
  H       -0.6366420    -0.6467360    -1.7011060
  H       -0.9720840    -1.7722110    -0.3761960
  H        3.5474250    -0.2360290    -0.0491480
  H        3.5302360     1.5116820    -0.3550310
  H        2.8465530     0.8548240     1.1430380
  H       -3.3613504     0.6434051     0.1363212
units angstrom
no_reorient  #important for SAPT in psi4, default
symmetry c1  #important for SAPT in psi4, default
}

set PROPERTIES_ORIGIN ["COM"]
properties('MP2/aug-cc-pvtz', properties = ['dipole'])
--------------------------------------------------------------------------

    Molecular point group: c1
  Charge       = 0
  Multiplicity = 1
  Basis Set: AUG-CC-PVTZ
    Blend: AUG-CC-PVTZ
  Basis Set: (AUG-CC-PVTZ AUX)
    Blend: AUG-CC-PVTZ-JKFIT

    Orbital Energies [Eh]
    ---------------------

    Doubly Occupied:

       1A    -20.633633     2A    -20.576849     3A    -20.554290
       4A    -11.410250     5A    -11.340953     6A    -11.267931
       7A    -11.240524     8A    -11.216644     9A     -1.492418
      10A     -1.398288    11A     -1.385802    12A     -1.077872
      13A     -1.035177    14A     -0.897663    15A     -0.834762
      16A     -0.743906    17A     -0.723166    18A     -0.711155
      19A     -0.680060    20A     -0.649236    21A     -0.636170
      22A     -0.624618    23A     -0.602673    24A     -0.575703
      25A     -0.524702    26A     -0.519828    27A     -0.516062
      28A     -0.511607    29A     -0.492825    30A     -0.466956
      31A     -0.421458

  @DF-RHF Final Energy:  -418.76722951313201

   => Energetics <=

    Nuclear Repulsion Energy =            372.4185670578819440
    One-Electron Energy =               -1310.8452289233971442
    Two-Electron Energy =                 519.6594323523831918
    Total Energy =                       -418.7672295131319515
  Basis Set: (AUG-CC-PVTZ AUX)
    Blend: AUG-CC-PVTZ-RI
    Molecular point group: c1

    Geometry (in Angstrom), charge = 0, multiplicity = 1:

       Center              X                  Y                   Z               Mass
    ------------   -----------------  -----------------  -----------------  -----------------
         O            1.221103799798    -1.383258181338     0.779050236458    15.994914619570
         O           -2.847979200202    -0.078410181338    -0.294689763542    15.994914619570
         O           -1.245785200202     1.224864818662     0.629169236458    15.994914619570
         C            1.611193799798     0.547365818662    -0.603563763542    12.000000000000
         C            0.793829799798    -0.598999181338    -0.060393763542    12.000000000000
         C           -0.614177200202    -0.770166181338    -0.613387763542    12.000000000000
         C            2.967397799798     0.675355818662     0.069958236458    12.000000000000
         C           -1.575674400202     0.278530318662     0.007747836458    12.000000000000
         H            1.718094799798     0.395309818662    -1.686896763542     1.007825032230
         H            1.016617799798     1.459681818662    -0.484482763542     1.007825032230
         H           -0.635301200202    -0.650805181338    -1.703626763542     1.007825032230
         H           -0.970743200202    -1.776280181338    -0.378716763542     1.007825032230
         H            3.548765799798    -0.240098181338    -0.051668763542     1.007825032230
         H            3.531576799798     1.507612818662    -0.357551763542     1.007825032230
         H            2.847893799798     0.850754818662     1.140517236458     1.007825032230
         H           -3.360009600202     0.639335918662     0.133800436458     1.007825032230

  Basis Set: AUG-CC-PVTZ
    Blend: AUG-CC-PVTZ
  Basis Set: (AUG-CC-PVTZ AUX)
    Blend: AUG-CC-PVTZ-JKFIT
	 Reference Energy          =    -418.7672295131320084 [Eh]
	 Singles Energy            =      -0.0000000000000000 [Eh]
	 Same-Spin Energy          =      -0.4074585367618397 [Eh]
	 Opposite-Spin Energy      =      -1.2850553598017505 [Eh]
	 Correlation Energy        =      -1.6925138965635902 [Eh]
	 Total Energy              =    -420.4597434096955908 [Eh]

	 ================> DF-SCS-MP2 Energies <==================
	-----------------------------------------------------------
	 SCS Same-Spin Scale       =       0.3333333333333333 [-]
	 SCS Opposite-Spin Scale   =       1.2000000000000000 [-]
	 SCS Same-Spin Energy      =      -0.1358195122539466 [Eh]
	 SCS Opposite-Spin Energy  =      -1.5420664317621005 [Eh]
	 SCS Correlation Energy    =      -1.6778859440160470 [Eh]
	 SCS Total Energy          =    -420.4451154571480629 [Eh]
	-----------------------------------------------------------

  Dipole Moment: [D]
     X:    -1.4056      Y:     1.0171      Z:    -2.4157     Total:     2.9742

*** Psi4 exiting successfully. Buy a developer a beer!
