                               Psi4 1.4a3.dev225

  ==> Input File <==

--------------------------------------------------------------------------
#psi4
#
memory 32 gb

molecule  {
0 1
  O        1.1896460     1.3864710    -0.7896670
  O       -2.9164350     0.0620530     0.2465870
  O       -1.2994600    -1.1722570    -0.7513140
  C        1.5277270    -0.5390120     0.6173550
  C        0.7330570     0.6116870     0.0446410
  C       -0.6915030     0.7929470     0.5540020
  C        2.9119880    -0.6669770    -0.0005940
  C       -1.6312545    -0.2040124    -0.0525401
  H        1.5906630    -0.3916430     1.7048170
  H        0.9378800    -1.4511620     0.4690430
  H       -0.7449460     0.6872940     1.6445860
  H       -1.0362610     1.7983420     0.2961770
  H        3.4930330     0.2441750     0.1549910
  H        3.4532110    -1.5066350     0.4428820
  H        2.8367130    -0.8315610    -1.0772290
  H       -3.4525110    -0.6329900    -0.1896390
units angstrom
no_reorient  #important for SAPT in psi4, default
symmetry c1  #important for SAPT in psi4, default
}

set PROPERTIES_ORIGIN ["COM"]
properties('MP2/aug-cc-pvtz', properties = ['dipole'])
--------------------------------------------------------------------------

    Molecular point group: c1
  Charge       = 0
  Multiplicity = 1
  Basis Set: AUG-CC-PVTZ
    Blend: AUG-CC-PVTZ
  Basis Set: (AUG-CC-PVTZ AUX)
    Blend: AUG-CC-PVTZ-JKFIT

    Orbital Energies [Eh]
    ---------------------

    Doubly Occupied:

       1A    -20.636249     2A    -20.566901     3A    -20.557144
       4A    -11.415405     5A    -11.345145     6A    -11.272588
       7A    -11.241997     8A    -11.217511     9A     -1.479468
      10A     -1.388359    11A     -1.365800    12A     -1.086396
      13A     -1.042964    14A     -0.903093    15A     -0.843601
      16A     -0.742659    17A     -0.719029    18A     -0.706605
      19A     -0.681059    20A     -0.650304    21A     -0.630868
      22A     -0.626179    23A     -0.594733    24A     -0.578093
      25A     -0.526209    26A     -0.517309    27A     -0.515171
      28A     -0.499021    29A     -0.486789    30A     -0.468659
      31A     -0.425322

  @DF-RHF Final Energy:  -418.76531204087843

   => Energetics <=

    Nuclear Repulsion Energy =            371.7454682306293989
    One-Electron Energy =               -1309.5603026987344037
    Two-Electron Energy =                 519.0495224272265204
    Total Energy =                       -418.7653120408784844
  Basis Set: (AUG-CC-PVTZ AUX)
    Blend: AUG-CC-PVTZ-RI
    Molecular point group: c1

    Geometry (in Angstrom), charge = 0, multiplicity = 1:

       Center              X                  Y                   Z               Mass
    ------------   -----------------  -----------------  -----------------  -----------------
         O            1.250580220892     1.367048155654    -0.761430554014    15.994914619570
         O           -2.855500779108     0.042630155654     0.274823445986    15.994914619570
         O           -1.238525779108    -1.191679844346    -0.723077554014    15.994914619570
         C            1.588661220892    -0.558434844346     0.645591445986    12.000000000000
         C            0.793991220892     0.592264155654     0.072877445986    12.000000000000
         C           -0.630568779108     0.773524155654     0.582238445986    12.000000000000
         C            2.972922220892    -0.686399844346     0.027642445986    12.000000000000
         C           -1.570320279108    -0.223435244346    -0.024303654014    12.000000000000
         H            1.651597220892    -0.411065844346     1.733053445986     1.007825032230
         H            0.998814220892    -1.470584844346     0.497279445986     1.007825032230
         H           -0.684011779108     0.667871155654     1.672822445986     1.007825032230
         H           -0.975326779108     1.778919155654     0.324413445986     1.007825032230
         H            3.553967220892     0.224752155654     0.183227445986     1.007825032230
         H            3.514145220892    -1.526057844346     0.471118445986     1.007825032230
         H            2.897647220892    -0.850983844346    -1.048992554014     1.007825032230
         H           -3.391576779108    -0.652412844346    -0.161402554014     1.007825032230

  Basis Set: AUG-CC-PVTZ
    Blend: AUG-CC-PVTZ
  Basis Set: (AUG-CC-PVTZ AUX)
    Blend: AUG-CC-PVTZ-JKFIT
	 Reference Energy          =    -418.7653120408784275 [Eh]
	 Singles Energy            =      -0.0000000000000000 [Eh]
	 Same-Spin Energy          =      -0.4086058186993423 [Eh]
	 Opposite-Spin Energy      =      -1.2874779440177349 [Eh]
	 Correlation Energy        =      -1.6960837627170773 [Eh]
	 Total Energy              =    -420.4613958035955079 [Eh]

	 ================> DF-SCS-MP2 Energies <==================
	-----------------------------------------------------------
	 SCS Same-Spin Scale       =       0.3333333333333333 [-]
	 SCS Opposite-Spin Scale   =       1.2000000000000000 [-]
	 SCS Same-Spin Energy      =      -0.1362019395664474 [Eh]
	 SCS Opposite-Spin Energy  =      -1.5449735328212817 [Eh]
	 SCS Correlation Energy    =      -1.6811754723877290 [Eh]
	 SCS Total Energy          =    -420.4464875132661632 [Eh]
	-----------------------------------------------------------

  Dipole Moment: [D]
     X:    -1.4885      Y:    -0.7012      Z:     2.6516     Total:     3.1206

*** Psi4 exiting successfully. Buy a developer a beer!
