                               Psi4 1.3.2 release

  ==> Input File <==

--------------------------------------------------------------------------
#psi4
#
memory 32 gb

molecule  {
0 1
  O        1.2197630    -1.3791890     0.7815710
  O       -2.8493200    -0.0743410    -0.2921690
  O       -1.2471260     1.2289340     0.6316900
  C        1.6098530     0.5514350    -0.6010430
  C        0.8519695    -0.6434627    -0.0765410
  C       -0.6155180    -0.7660970    -0.6108670
  C        2.9660570     0.6794250     0.0724790
  C       -1.5616300     0.2444870    -0.0131750
  H        1.7167540     0.3993790    -1.6843760
  H        1.0584091     1.4931583    -0.5057109
  H       -0.6366420    -0.6467360    -1.7011060
  H       -0.9720840    -1.7722110    -0.3761960
  H        3.5474250    -0.2360290    -0.0491480
  H        3.5302360     1.5116820    -0.3550310
  H        2.8465530     0.8548240     1.1430380
  H       -3.3901630     0.6286630     0.1252190
units angstrom
no_reorient  #important for SAPT in psi4, default
symmetry c1  #important for SAPT in psi4, default
}

set PROPERTIES_ORIGIN ["COM"]
properties('MP2/aug-cc-pvtz', properties = ['dipole'])
--------------------------------------------------------------------------

    Molecular point group: c1
  Charge       = 0
  Multiplicity = 1
  Basis Set: AUG-CC-PVTZ
    Blend: AUG-CC-PVTZ
  Basis Set: (AUG-CC-PVTZ AUX)
    Blend: AUG-CC-PVTZ-JKFIT

    Orbital Energies [Eh]
    ---------------------

    Doubly Occupied:

       1A    -20.630563     2A    -20.566756     3A    -20.561633
       4A    -11.410407     5A    -11.343234     6A    -11.267329
       7A    -11.240661     8A    -11.216953     9A     -1.476597
      10A     -1.415980    11A     -1.373013    12A     -1.078099
      13A     -1.039068    14A     -0.898661    15A     -0.835444
      16A     -0.743555    17A     -0.718105    18A     -0.703805
      19A     -0.681028    20A     -0.650008    21A     -0.632485
      22A     -0.631250    23A     -0.595638    24A     -0.577504
      25A     -0.530060    26A     -0.527781    27A     -0.515855
      28A     -0.501353    29A     -0.491255    30A     -0.467857
      31A     -0.418186

  @DF-RHF Final Energy:  -418.76618381547252

   => Energetics <=

    Nuclear Repulsion Energy =            371.9026544665571805
    One-Electron Energy =               -1309.8574302005899881
    Two-Electron Energy =                 519.1885919185602916
    Total Energy =                       -418.7661838154725729
  Basis Set: (AUG-CC-PVTZ AUX)
    Blend: AUG-CC-PVTZ-RI
    Molecular point group: c1

    Geometry (in Angstrom), charge = 0, multiplicity = 1:

       Center              X                  Y                   Z               Mass
    ------------   -----------------  -----------------  -----------------  -----------------
         O            1.213237872684    -1.374425902994     0.783707499535    15.994914619570
         O           -2.855845127316    -0.069577902994    -0.290032500465    15.994914619570
         O           -1.253651127316     1.233697097006     0.633826499535    15.994914619570
         C            1.603327872684     0.556198097006    -0.598906500465    12.000000000000
         C            0.845444372684    -0.638699602994    -0.074404500465    12.000000000000
         C           -0.622043127316    -0.761333902994    -0.608730500465    12.000000000000
         C            2.959531872684     0.684188097006     0.074615499535    12.000000000000
         C           -1.568155127316     0.249250097006    -0.011038500465    12.000000000000
         H            1.710228872684     0.404142097006    -1.682239500465     1.007825032230
         H            1.051883972684     1.497921397006    -0.503574400465     1.007825032230
         H           -0.643167127316    -0.641972902994    -1.698969500465     1.007825032230
         H           -0.978609127316    -1.767447902994    -0.374059500465     1.007825032230
         H            3.540899872684    -0.231265902994    -0.047011500465     1.007825032230
         H            3.523710872684     1.516445097006    -0.352894500465     1.007825032230
         H            2.840027872684     0.859587097006     1.145174499535     1.007825032230
         H           -3.396688127316     0.633426097006     0.127355499535     1.007825032230

  Basis Set: AUG-CC-PVTZ
    Blend: AUG-CC-PVTZ
  Basis Set: (AUG-CC-PVTZ AUX)
    Blend: AUG-CC-PVTZ-JKFIT
	 Reference Energy          =    -418.7661838154725160 [Eh]
	 Singles Energy            =      -0.0000000000000000 [Eh]
	 Same-Spin Energy          =      -0.4072032241665566 [Eh]
	 Opposite-Spin Energy      =      -1.2846398184787713 [Eh]
	 Correlation Energy        =      -1.6918430426453279 [Eh]
	 Total Energy              =    -420.4580268581178188 [Eh]

	 ================> DF-SCS-MP2 Energies <==================
	-----------------------------------------------------------
	 SCS Same-Spin Scale       =       0.3333333333333333 [-]
	 SCS Opposite-Spin Scale   =       1.2000000000000000 [-]
	 SCS Same-Spin Energy      =      -0.1357344080555189 [Eh]
	 SCS Opposite-Spin Energy  =      -1.5415677821745255 [Eh]
	 SCS Correlation Energy    =      -1.6773021902300445 [Eh]
	 SCS Total Energy          =    -420.4434860057025389 [Eh]
	-----------------------------------------------------------

  Dipole Moment: [D]
     X:    -1.0996      Y:     0.7044      Z:    -2.4671     Total:     2.7914

*** Psi4 exiting successfully. Buy a developer a beer!
