                               Psi4 1.4a3.dev225

  ==> Input File <==

--------------------------------------------------------------------------
#psi4
#
memory 32 gb

molecule  {
0 1
  O        1.1896460     1.3864710    -0.7896670
  O       -2.9164350     0.0620530     0.2465870
  O       -1.2994600    -1.1722570    -0.7513140
  C        1.5277270    -0.5390120     0.6173550
  C        0.7330570     0.6116870     0.0446410
  C       -0.6915030     0.7929470     0.5540020
  C        2.9119880    -0.6669770    -0.0005940
  C       -1.6449218    -0.2154860    -0.0592418
  H        1.5906630    -0.3916430     1.7048170
  H        0.9378800    -1.4511620     0.4690430
  H       -0.7449460     0.6872940     1.6445860
  H       -1.0362610     1.7983420     0.2961770
  H        3.4930330     0.2441750     0.1549910
  H        3.4532110    -1.5066350     0.4428820
  H        2.8367130    -0.8315610    -1.0772290
  H       -3.4525110    -0.6329900    -0.1896390
units angstrom
no_reorient  #important for SAPT in psi4, default
symmetry c1  #important for SAPT in psi4, default
}

set PROPERTIES_ORIGIN ["COM"]
properties('MP2/aug-cc-pvtz', properties = ['dipole'])
--------------------------------------------------------------------------

    Molecular point group: c1
  Charge       = 0
  Multiplicity = 1
  Basis Set: AUG-CC-PVTZ
    Blend: AUG-CC-PVTZ
  Basis Set: (AUG-CC-PVTZ AUX)
    Blend: AUG-CC-PVTZ-JKFIT

    Orbital Energies [Eh]
    ---------------------

    Doubly Occupied:

       1A    -20.638794     2A    -20.567401     3A    -20.555959
       4A    -11.414336     5A    -11.343767     6A    -11.271357
       7A    -11.241276     8A    -11.216995     9A     -1.485342
      10A     -1.387364    11A     -1.372094    12A     -1.082502
      13A     -1.040245    14A     -0.902125    15A     -0.844691
      16A     -0.742554    17A     -0.720410    18A     -0.707210
      19A     -0.680646    20A     -0.650699    21A     -0.631469
      22A     -0.625931    23A     -0.594896    24A     -0.577960
      25A     -0.525416    26A     -0.516780    27A     -0.514448
      28A     -0.500448    29A     -0.487992    30A     -0.467717
      31A     -0.424031

  @DF-RHF Final Energy:  -418.76678429424430

   => Energetics <=

    Nuclear Repulsion Energy =            371.7246501529823490
    One-Electron Energy =               -1309.5171596761711044
    Two-Electron Energy =                 519.0257252289444523
    Total Energy =                       -418.7667842942443031
  Basis Set: (AUG-CC-PVTZ AUX)
    Blend: AUG-CC-PVTZ-RI
    Molecular point group: c1

    Geometry (in Angstrom), charge = 0, multiplicity = 1:

       Center              X                  Y                   Z               Mass
    ------------   -----------------  -----------------  -----------------  -----------------
         O            1.251993502697     1.368234595560    -0.760737557543    15.994914619570
         O           -2.854087497303     0.043816595560     0.275516442457    15.994914619570
         O           -1.237112497303    -1.190493404440    -0.722384557543    15.994914619570
         C            1.590074502697    -0.557248404440     0.646284442457    12.000000000000
         C            0.795404502697     0.593450595560     0.073570442457    12.000000000000
         C           -0.629155497303     0.774710595560     0.582931442457    12.000000000000
         C            2.974335502697    -0.685213404440     0.028335442457    12.000000000000
         C           -1.582574297303    -0.233722404440    -0.030312357543    12.000000000000
         H            1.653010502697    -0.409879404440     1.733746442457     1.007825032230
         H            1.000227502697    -1.469398404440     0.497972442457     1.007825032230
         H           -0.682598497303     0.669057595560     1.673515442457     1.007825032230
         H           -0.973913497303     1.780105595560     0.325106442457     1.007825032230
         H            3.555380502697     0.225938595560     0.183920442457     1.007825032230
         H            3.515558502697    -1.524871404440     0.471811442457     1.007825032230
         H            2.899060502697    -0.849797404440    -1.048299557543     1.007825032230
         H           -3.390163497303    -0.651226404440    -0.160709557543     1.007825032230

  Basis Set: AUG-CC-PVTZ
    Blend: AUG-CC-PVTZ
  Basis Set: (AUG-CC-PVTZ AUX)
    Blend: AUG-CC-PVTZ-JKFIT
	 Reference Energy          =    -418.7667842942443031 [Eh]
	 Singles Energy            =      -0.0000000000000000 [Eh]
	 Same-Spin Energy          =      -0.4082615279863464 [Eh]
	 Opposite-Spin Energy      =      -1.2867803462468750 [Eh]
	 Correlation Energy        =      -1.6950418742332214 [Eh]
	 Total Energy              =    -420.4618261684775007 [Eh]

	 ================> DF-SCS-MP2 Energies <==================
	-----------------------------------------------------------
	 SCS Same-Spin Scale       =       0.3333333333333333 [-]
	 SCS Opposite-Spin Scale   =       1.2000000000000000 [-]
	 SCS Same-Spin Energy      =      -0.1360871759954488 [Eh]
	 SCS Opposite-Spin Energy  =      -1.5441364154962500 [Eh]
	 SCS Correlation Energy    =      -1.6802235914916988 [Eh]
	 SCS Total Energy          =    -420.4470078857360136 [Eh]
	-----------------------------------------------------------

  Dipole Moment: [D]
     X:    -1.6005      Y:    -0.7573      Z:     2.6221     Total:     3.1639

*** Psi4 exiting successfully. Buy a developer a beer!
