                               Psi4 1.3.2 release

  ==> Input File <==

--------------------------------------------------------------------------
#psi4
#
memory 32 gb

molecule  {
0 1
  O        1.2197630    -1.3791890     0.7815710
  O       -2.8493200    -0.0743410    -0.2921690
  O       -1.2471260     1.2289340     0.6316900
  C        1.6098530     0.5514350    -0.6010430
  C        0.9008164    -0.4429993    -0.1298607
  C       -0.6155180    -0.7660970    -0.6108670
  C        2.9660570     0.6794250     0.0724790
  C       -1.5616300     0.2444870    -0.0131750
  H        1.7167540     0.3993790    -1.6843760
  H        1.0152770     1.4637510    -0.4819620
  H       -0.6366420    -0.6467360    -1.7011060
  H       -0.9720840    -1.7722110    -0.3761960
  H        3.5474250    -0.2360290    -0.0491480
  H        3.5302360     1.5116820    -0.3550310
  H        2.8465530     0.8548240     1.1430380
  H       -3.3901630     0.6286630     0.1252190
units angstrom
no_reorient  #important for SAPT in psi4, default
symmetry c1  #important for SAPT in psi4, default
}

set PROPERTIES_ORIGIN ["COM"]
properties('MP2/aug-cc-pvtz', properties = ['dipole'])
--------------------------------------------------------------------------

    Molecular point group: c1
  Charge       = 0
  Multiplicity = 1
  Basis Set: AUG-CC-PVTZ
    Blend: AUG-CC-PVTZ
  Basis Set: (AUG-CC-PVTZ AUX)
    Blend: AUG-CC-PVTZ-JKFIT

    Orbital Energies [Eh]
    ---------------------

    Doubly Occupied:

       1A    -20.629972     2A    -20.567587     3A    -20.544161
       4A    -11.409027     5A    -11.354552     6A    -11.275090
       7A    -11.244900     8A    -11.227377     9A     -1.476574
      10A     -1.374090    11A     -1.316675    12A     -1.122462
      13A     -1.043121    14A     -0.931783    15A     -0.833366
      16A     -0.742803    17A     -0.719169    18A     -0.704417
      19A     -0.670310    20A     -0.656463    21A     -0.649600
      22A     -0.610956    23A     -0.596697    24A     -0.567292
      25A     -0.534688    26A     -0.523888    27A     -0.510066
      28A     -0.497586    29A     -0.475520    30A     -0.445220
      31A     -0.420565

  @DF-RHF Final Energy:  -418.69967769060509

   => Energetics <=

    Nuclear Repulsion Energy =            372.0244723439294035
    One-Electron Energy =               -1310.0963484559849803
    Two-Electron Energy =                 519.3721984214505483
    Total Energy =                       -418.6996776906050854
  Basis Set: (AUG-CC-PVTZ AUX)
    Blend: AUG-CC-PVTZ-RI
    Molecular point group: c1

    Geometry (in Angstrom), charge = 0, multiplicity = 1:

       Center              X                  Y                   Z               Mass
    ------------   -----------------  -----------------  -----------------  -----------------
         O            1.208561391770    -1.394899645026     0.789014830511    15.994914619570
         O           -2.860521608230    -0.090051645026    -0.284725169489    15.994914619570
         O           -1.258327608230     1.213223354974     0.639133830511    15.994914619570
         C            1.598651391770     0.535724354974    -0.593599169489    12.000000000000
         C            0.889614791770    -0.458709945026    -0.122416869489    12.000000000000
         C           -0.626719608230    -0.781807645026    -0.603423169489    12.000000000000
         C            2.954855391770     0.663714354974     0.079922830511    12.000000000000
         C           -1.572831608230     0.228776354974    -0.005731169489    12.000000000000
         H            1.705552391770     0.383668354974    -1.676932169489     1.007825032230
         H            1.004075391770     1.448040354974    -0.474518169489     1.007825032230
         H           -0.647843608230    -0.662446645026    -1.693662169489     1.007825032230
         H           -0.983285608230    -1.787921645026    -0.368752169489     1.007825032230
         H            3.536223391770    -0.251739645026    -0.041704169489     1.007825032230
         H            3.519034391770     1.495971354974    -0.347587169489     1.007825032230
         H            2.835351391770     0.839113354974     1.150481830511     1.007825032230
         H           -3.401364608230     0.612952354974     0.132662830511     1.007825032230

  Basis Set: AUG-CC-PVTZ
    Blend: AUG-CC-PVTZ
  Basis Set: (AUG-CC-PVTZ AUX)
    Blend: AUG-CC-PVTZ-JKFIT
	 Reference Energy          =    -418.6996776906050854 [Eh]
	 Singles Energy            =      -0.0000000000000000 [Eh]
	 Same-Spin Energy          =      -0.4138387838604922 [Eh]
	 Opposite-Spin Energy      =      -1.2967935411101812 [Eh]
	 Correlation Energy        =      -1.7106323249706734 [Eh]
	 Total Energy              =    -420.4103100155757602 [Eh]

	 ================> DF-SCS-MP2 Energies <==================
	-----------------------------------------------------------
	 SCS Same-Spin Scale       =       0.3333333333333333 [-]
	 SCS Opposite-Spin Scale   =       1.2000000000000000 [-]
	 SCS Same-Spin Energy      =      -0.1379462612868307 [Eh]
	 SCS Opposite-Spin Energy  =      -1.5561522493322173 [Eh]
	 SCS Correlation Energy    =      -1.6940985106190480 [Eh]
	 SCS Total Energy          =    -420.3937762012241137 [Eh]
	-----------------------------------------------------------

  Dipole Moment: [D]
     X:    -0.7731      Y:     1.3970      Z:    -2.8826     Total:     3.2952

*** Psi4 exiting successfully. Buy a developer a beer!
