                               Psi4 1.3.2 release

  ==> Input File <==

--------------------------------------------------------------------------
#psi4
#
memory 32 gb

molecule  {
0 1
  O        1.2197630    -1.3791890     0.7815710
  O       -2.8493200    -0.0743410    -0.2921690
  O       -1.2471260     1.2289340     0.6316900
  C        1.6098530     0.5514350    -0.6010430
  C        0.7924890    -0.5949300    -0.0578730
  C       -0.6155180    -0.7660970    -0.6108670
  C        2.9660570     0.6794250     0.0724790
  C       -1.5691276     0.2635947    -0.0014089
  H        1.7167540     0.3993790    -1.6843760
  H        1.0152770     1.4637510    -0.4819620
  H       -0.6366420    -0.6467360    -1.7011060
  H       -0.9720840    -1.7722110    -0.3761960
  H        3.5474250    -0.2360290    -0.0491480
  H        3.5302360     1.5116820    -0.3550310
  H        2.8465530     0.8548240     1.1430380
  H       -3.3758369     0.6361423     0.1308345
units angstrom
no_reorient  #important for SAPT in psi4, default
symmetry c1  #important for SAPT in psi4, default
}

set PROPERTIES_ORIGIN ["COM"]
properties('MP2/aug-cc-pvtz', properties = ['dipole'])
--------------------------------------------------------------------------

    Molecular point group: c1
  Charge       = 0
  Multiplicity = 1
  Basis Set: AUG-CC-PVTZ
    Blend: AUG-CC-PVTZ
  Basis Set: (AUG-CC-PVTZ AUX)
    Blend: AUG-CC-PVTZ-JKFIT

    Orbital Energies [Eh]
    ---------------------

    Doubly Occupied:

       1A    -20.633198     2A    -20.573596     3A    -20.555532
       4A    -11.411741     5A    -11.342506     6A    -11.269708
       7A    -11.240900     8A    -11.216891     9A     -1.485411
      10A     -1.389739    11A     -1.385188    12A     -1.081214
      13A     -1.038741    14A     -0.899664    15A     -0.837286
      16A     -0.742878    17A     -0.721490    18A     -0.709154
      19A     -0.680244    20A     -0.648546    21A     -0.634141
      22A     -0.625531    23A     -0.600928    24A     -0.576494
      25A     -0.525340    26A     -0.518783    27A     -0.515079
      28A     -0.507802    29A     -0.492357    30A     -0.468371
      31A     -0.423113

  @DF-RHF Final Energy:  -418.76861272662086

   => Energetics <=

    Nuclear Repulsion Energy =            372.3316485720886817
    One-Electron Energy =               -1310.6973936734200379
    Two-Electron Energy =                 519.5971323747105544
    Total Energy =                       -418.7686127266208587
  Basis Set: (AUG-CC-PVTZ AUX)
    Blend: AUG-CC-PVTZ-RI
    Molecular point group: c1

    Geometry (in Angstrom), charge = 0, multiplicity = 1:

       Center              X                  Y                   Z               Mass
    ------------   -----------------  -----------------  -----------------  -----------------
         O            1.220413983557    -1.381229895095     0.780305410669    15.994914619570
         O           -2.848669016443    -0.076381895095    -0.293434589331    15.994914619570
         O           -1.246475016443     1.226893104905     0.630424410669    15.994914619570
         C            1.610503983557     0.549394104905    -0.602308589331    12.000000000000
         C            0.793139983557    -0.596970895095    -0.059138589331    12.000000000000
         C           -0.614867016443    -0.768137895095    -0.612132589331    12.000000000000
         C            2.966707983557     0.677384104905     0.071213410669    12.000000000000
         C           -1.568476616443     0.261553804905    -0.002674489331    12.000000000000
         H            1.717404983557     0.397338104905    -1.685641589331     1.007825032230
         H            1.015927983557     1.461710104905    -0.483227589331     1.007825032230
         H           -0.635991016443    -0.648776895095    -1.702371589331     1.007825032230
         H           -0.971433016443    -1.774251895095    -0.377461589331     1.007825032230
         H            3.548075983557    -0.238069895095    -0.050413589331     1.007825032230
         H            3.530886983557     1.509641104905    -0.356296589331     1.007825032230
         H            2.847203983557     0.852783104905     1.141772410669     1.007825032230
         H           -3.375185916443     0.634101404905     0.129568910669     1.007825032230

  Basis Set: AUG-CC-PVTZ
    Blend: AUG-CC-PVTZ
  Basis Set: (AUG-CC-PVTZ AUX)
    Blend: AUG-CC-PVTZ-JKFIT
	 Reference Energy          =    -418.7686127266208587 [Eh]
	 Singles Energy            =      -0.0000000000000000 [Eh]
	 Same-Spin Energy          =      -0.4078104713673382 [Eh]
	 Opposite-Spin Energy      =      -1.2857579592133537 [Eh]
	 Correlation Energy        =      -1.6935684305806920 [Eh]
	 Total Energy              =    -420.4621811572015417 [Eh]

	 ================> DF-SCS-MP2 Energies <==================
	-----------------------------------------------------------
	 SCS Same-Spin Scale       =       0.3333333333333333 [-]
	 SCS Opposite-Spin Scale   =       1.2000000000000000 [-]
	 SCS Same-Spin Energy      =      -0.1359368237891127 [Eh]
	 SCS Opposite-Spin Energy  =      -1.5429095510560245 [Eh]
	 SCS Correlation Energy    =      -1.6788463748451372 [Eh]
	 SCS Total Energy          =    -420.4474591014659950 [Eh]
	-----------------------------------------------------------

  Dipole Moment: [D]
     X:    -1.3754      Y:     0.8978      Z:    -2.4877     Total:     2.9810

*** Psi4 exiting successfully. Buy a developer a beer!
