                               Psi4 1.3.2 release

  ==> Input File <==

--------------------------------------------------------------------------
#psi4
#
memory 32 gb

molecule  {
0 1
  O        1.2197630    -1.3791890     0.7815710
  O       -2.8493200    -0.0743410    -0.2921690
  O       -1.2471260     1.2289340     0.6316900
  C        1.6098530     0.5514350    -0.6010430
  C        0.7924890    -0.5949300    -0.0578730
  C       -0.8004947    -0.7885840    -0.6835165
  C        2.9660570     0.6794250     0.0724790
  C       -1.5616300     0.2444870    -0.0131750
  H        1.7167540     0.3993790    -1.6843760
  H        1.0152770     1.4637510    -0.4819620
  H       -0.6366420    -0.6467360    -1.7011060
  H       -0.9720840    -1.7722110    -0.3761960
  H        3.5474250    -0.2360290    -0.0491480
  H        3.5302360     1.5116820    -0.3550310
  H        2.8465530     0.8548240     1.1430380
  H       -3.3901630     0.6286630     0.1252190
units angstrom
no_reorient  #important for SAPT in psi4, default
symmetry c1  #important for SAPT in psi4, default
}

set PROPERTIES_ORIGIN ["COM"]
properties('MP2/aug-cc-pvtz', properties = ['dipole'])
--------------------------------------------------------------------------

    Molecular point group: c1
  Charge       = 0
  Multiplicity = 1
  Basis Set: AUG-CC-PVTZ
    Blend: AUG-CC-PVTZ
  Basis Set: (AUG-CC-PVTZ AUX)
    Blend: AUG-CC-PVTZ-JKFIT

    Orbital Energies [Eh]
    ---------------------

    Doubly Occupied:

       1A    -20.626036     2A    -20.574039     3A    -20.559359
       4A    -11.410294     5A    -11.351416     6A    -11.267286
       7A    -11.243393     8A    -11.218287     9A     -1.479631
      10A     -1.386869    11A     -1.376090    12A     -1.079116
      13A     -1.047643    14A     -0.898742    15A     -0.836173
      16A     -0.737588    17A     -0.718927    18A     -0.710567
      19A     -0.689755    20A     -0.639817    21A     -0.631791
      22A     -0.610824    23A     -0.604296    24A     -0.589165
      25A     -0.530164    26A     -0.520559    27A     -0.514458
      28A     -0.503261    29A     -0.491720    30A     -0.476449
      31A     -0.399294

  @DF-RHF Final Energy:  -418.73445546351735

   => Energetics <=

    Nuclear Repulsion Energy =            370.7156707501547999
    One-Electron Energy =               -1307.4542339327999798
    Two-Electron Energy =                 518.0041077191278873
    Total Energy =                       -418.7344554635172926
  Basis Set: (AUG-CC-PVTZ AUX)
    Blend: AUG-CC-PVTZ-RI
    Molecular point group: c1

    Geometry (in Angstrom), charge = 0, multiplicity = 1:

       Center              X                  Y                   Z               Mass
    ------------   -----------------  -----------------  -----------------  -----------------
         O            1.238890816599    -1.376863795813     0.789083264650    15.994914619570
         O           -2.830192183401    -0.072015795813    -0.284656735350    15.994914619570
         O           -1.227998183401     1.231259204187     0.639202264650    15.994914619570
         C            1.628980816599     0.553760204187    -0.593530735350    12.000000000000
         C            0.811616816599    -0.592604795813    -0.050360735350    12.000000000000
         C           -0.781366883401    -0.786258795813    -0.676004235350    12.000000000000
         C            2.985184816599     0.681750204187     0.079991264650    12.000000000000
         C           -1.542502183401     0.246812204187    -0.005662735350    12.000000000000
         H            1.735881816599     0.401704204187    -1.676863735350     1.007825032230
         H            1.034404816599     1.466076204187    -0.474449735350     1.007825032230
         H           -0.617514183401    -0.644410795813    -1.693593735350     1.007825032230
         H           -0.952956183401    -1.769885795813    -0.368683735350     1.007825032230
         H            3.566552816599    -0.233703795813    -0.041635735350     1.007825032230
         H            3.549363816599     1.514007204187    -0.347518735350     1.007825032230
         H            2.865680816599     0.857149204187     1.150550264650     1.007825032230
         H           -3.371035183401     0.630988204187     0.132731264650     1.007825032230

  Basis Set: AUG-CC-PVTZ
    Blend: AUG-CC-PVTZ
  Basis Set: (AUG-CC-PVTZ AUX)
    Blend: AUG-CC-PVTZ-JKFIT
	 Reference Energy          =    -418.7344554635173495 [Eh]
	 Singles Energy            =      -0.0000000000000000 [Eh]
	 Same-Spin Energy          =      -0.4098547083025547 [Eh]
	 Opposite-Spin Energy      =      -1.2903181286395589 [Eh]
	 Correlation Energy        =      -1.7001728369421136 [Eh]
	 Total Energy              =    -420.4346283004594511 [Eh]

	 ================> DF-SCS-MP2 Energies <==================
	-----------------------------------------------------------
	 SCS Same-Spin Scale       =       0.3333333333333333 [-]
	 SCS Opposite-Spin Scale   =       1.2000000000000000 [-]
	 SCS Same-Spin Energy      =      -0.1366182361008516 [Eh]
	 SCS Opposite-Spin Energy  =      -1.5483817543674705 [Eh]
	 SCS Correlation Energy    =      -1.6849999904683219 [Eh]
	 SCS Total Energy          =    -420.4194554539856767 [Eh]
	-----------------------------------------------------------

  Dipole Moment: [D]
     X:    -0.9736      Y:     0.7997      Z:    -2.4624     Total:     2.7660

*** Psi4 exiting successfully. Buy a developer a beer!
