                               Psi4 1.3.2 release

  ==> Input File <==

--------------------------------------------------------------------------
#psi4
#
memory 32 gb

molecule  {
0 1
  O        1.2197630    -1.3791890     0.7815710
  O       -2.8493200    -0.0743410    -0.2921690
  O       -1.2471260     1.2289340     0.6316900
  C        1.5692363     0.5645616    -0.6319053
  C        0.7924890    -0.5949300    -0.0578730
  C       -0.6074835    -0.7237107    -0.6418907
  C        2.9660570     0.6794250     0.0724790
  C       -1.5616300     0.2444870    -0.0131750
  H        1.7167540     0.3993790    -1.6843760
  H        1.0152770     1.4637510    -0.4819620
  H       -0.6366420    -0.6467360    -1.7011060
  H       -0.9720840    -1.7722110    -0.3761960
  H        3.5474250    -0.2360290    -0.0491480
  H        3.5302360     1.5116820    -0.3550310
  H        2.8465530     0.8548240     1.1430380
  H       -3.3901630     0.6286630     0.1252190
units angstrom
no_reorient  #important for SAPT in psi4, default
symmetry c1  #important for SAPT in psi4, default
}

set PROPERTIES_ORIGIN ["COM"]
properties('MP2/aug-cc-pvtz', properties = ['dipole'])
--------------------------------------------------------------------------

    Molecular point group: c1
  Charge       = 0
  Multiplicity = 1
  Basis Set: AUG-CC-PVTZ
    Blend: AUG-CC-PVTZ
  Basis Set: (AUG-CC-PVTZ AUX)
    Blend: AUG-CC-PVTZ-JKFIT

    Orbital Energies [Eh]
    ---------------------

    Doubly Occupied:

       1A    -20.633020     2A    -20.570013     3A    -20.560433
       4A    -11.413137     5A    -11.345975     6A    -11.270304
       7A    -11.238212     8A    -11.218512     9A     -1.479685
      10A     -1.390144    11A     -1.376166    12A     -1.087731
      13A     -1.035921    14A     -0.901816    15A     -0.839636
      16A     -0.746372    17A     -0.720814    18A     -0.710145
      19A     -0.683007    20A     -0.644823    21A     -0.635460
      22A     -0.627371    23A     -0.600507    24A     -0.572750
      25A     -0.523890    26A     -0.519126    27A     -0.507325
      28A     -0.501837    29A     -0.494838    30A     -0.470842
      31A     -0.424683

  @DF-RHF Final Energy:  -418.76144676022182

   => Energetics <=

    Nuclear Repulsion Energy =            372.2670898574005491
    One-Electron Energy =               -1310.5680844286123374
    Two-Electron Energy =                 519.5395478109899159
    Total Energy =                       -418.7614467602218156
  Basis Set: (AUG-CC-PVTZ AUX)
    Blend: AUG-CC-PVTZ-RI
    Molecular point group: c1

    Geometry (in Angstrom), charge = 0, multiplicity = 1:

       Center              X                  Y                   Z               Mass
    ------------   -----------------  -----------------  -----------------  -----------------
         O            1.223132299987    -1.384929459074     0.787970253396    15.994914619570
         O           -2.845950700013    -0.080081459074    -0.285769746604    15.994914619570
         O           -1.243756700013     1.223193540926     0.638089253396    15.994914619570
         C            1.572605599987     0.558821140926    -0.625506046604    12.000000000000
         C            0.795858299987    -0.600670459074    -0.051473746604    12.000000000000
         C           -0.604114200013    -0.729451159074    -0.635491446604    12.000000000000
         C            2.969426299987     0.673684540926     0.078878253396    12.000000000000
         C           -1.558260700013     0.238746540926    -0.006775746604    12.000000000000
         H            1.720123299987     0.393638540926    -1.677976746604     1.007825032230
         H            1.018646299987     1.458010540926    -0.475562746604     1.007825032230
         H           -0.633272700013    -0.652476459074    -1.694706746604     1.007825032230
         H           -0.968714700013    -1.777951459074    -0.369796746604     1.007825032230
         H            3.550794299987    -0.241769459074    -0.042748746604     1.007825032230
         H            3.533605299987     1.505941540926    -0.348631746604     1.007825032230
         H            2.849922299987     0.849083540926     1.149437253396     1.007825032230
         H           -3.386793700013     0.622922540926     0.131618253396     1.007825032230

  Basis Set: AUG-CC-PVTZ
    Blend: AUG-CC-PVTZ
  Basis Set: (AUG-CC-PVTZ AUX)
    Blend: AUG-CC-PVTZ-JKFIT
	 Reference Energy          =    -418.7614467602218156 [Eh]
	 Singles Energy            =      -0.0000000000000000 [Eh]
	 Same-Spin Energy          =      -0.4082825157279723 [Eh]
	 Opposite-Spin Energy      =      -1.2871020560163986 [Eh]
	 Correlation Energy        =      -1.6953845717443707 [Eh]
	 Total Energy              =    -420.4568313319662138 [Eh]

	 ================> DF-SCS-MP2 Energies <==================
	-----------------------------------------------------------
	 SCS Same-Spin Scale       =       0.3333333333333333 [-]
	 SCS Opposite-Spin Scale   =       1.2000000000000000 [-]
	 SCS Same-Spin Energy      =      -0.1360941719093241 [Eh]
	 SCS Opposite-Spin Energy  =      -1.5445224672196782 [Eh]
	 SCS Correlation Energy    =      -1.6806166391290023 [Eh]
	 SCS Total Energy          =    -420.4420633993508432 [Eh]
	-----------------------------------------------------------

  Dipole Moment: [D]
     X:    -1.3527      Y:     0.7561      Z:    -2.5730     Total:     3.0037

*** Psi4 exiting successfully. Buy a developer a beer!
