                               Psi4 1.3.2 release

  ==> Input File <==

--------------------------------------------------------------------------
#psi4
#
memory 32 gb

molecule  {
0 1
  O        1.2197630    -1.3791890     0.7815710
  O       -2.8493200    -0.0743410    -0.2921690
  O       -1.2471260     1.2289340     0.6316900
  C        1.6098530     0.5514350    -0.6010430
  C        0.7654767    -0.5344377    -0.0135632
  C       -0.6155180    -0.7660970    -0.6108670
  C        2.9660570     0.6794250     0.0724790
  C       -1.5012353     0.2730890     0.0288524
  H        1.7167540     0.3993790    -1.6843760
  H        1.0152770     1.4637510    -0.4819620
  H       -0.6366420    -0.6467360    -1.7011060
  H       -0.9720840    -1.7722110    -0.3761960
  H        3.5474250    -0.2360290    -0.0491480
  H        3.5302360     1.5116820    -0.3550310
  H        2.8465530     0.8548240     1.1430380
  H       -3.3901630     0.6286630     0.1252190
units angstrom
no_reorient  #important for SAPT in psi4, default
symmetry c1  #important for SAPT in psi4, default
}

set PROPERTIES_ORIGIN ["COM"]
properties('MP2/aug-cc-pvtz', properties = ['dipole'])
--------------------------------------------------------------------------

    Molecular point group: c1
  Charge       = 0
  Multiplicity = 1
  Basis Set: AUG-CC-PVTZ
    Blend: AUG-CC-PVTZ
  Basis Set: (AUG-CC-PVTZ AUX)
    Blend: AUG-CC-PVTZ-JKFIT

    Orbital Energies [Eh]
    ---------------------

    Doubly Occupied:

       1A    -20.610445     2A    -20.586219     3A    -20.557124
       4A    -11.409477     5A    -11.347024     6A    -11.273427
       7A    -11.245372     8A    -11.220003     9A     -1.488925
      10A     -1.377909    11A     -1.376343    12A     -1.090156
      13A     -1.045188    14A     -0.901486    15A     -0.821418
      16A     -0.747343    17A     -0.718488    18A     -0.711895
      19A     -0.680694    20A     -0.644933    21A     -0.635069
      22A     -0.622740    23A     -0.608004    24A     -0.573478
      25A     -0.527538    26A     -0.520700    27A     -0.515812
      28A     -0.513431    29A     -0.494158    30A     -0.470197
      31A     -0.426192

  @DF-RHF Final Energy:  -418.75463302095244

   => Energetics <=

    Nuclear Repulsion Energy =            373.0127028529943232
    One-Electron Energy =               -1312.0122947414661212
    Two-Electron Energy =                 520.2449588675193581
    Total Energy =                       -418.7546330209523830
  Basis Set: (AUG-CC-PVTZ AUX)
    Blend: AUG-CC-PVTZ-RI
    Molecular point group: c1

    Geometry (in Angstrom), charge = 0, multiplicity = 1:

       Center              X                  Y                   Z               Mass
    ------------   -----------------  -----------------  -----------------  -----------------
         O            1.216311159822    -1.388401979735     0.772643074531    15.994914619570
         O           -2.852771840178    -0.083553979735    -0.301096925469    15.994914619570
         O           -1.250577840178     1.219721020265     0.622762074531    15.994914619570
         C            1.606401159822     0.542222020265    -0.609970925469    12.000000000000
         C            0.762024859822    -0.543650679735    -0.022491125469    12.000000000000
         C           -0.618969840178    -0.775309979735    -0.619794925469    12.000000000000
         C            2.962605159822     0.670212020265     0.063551074531    12.000000000000
         C           -1.504687140178     0.263876020265     0.019924474531    12.000000000000
         H            1.713302159822     0.390166020265    -1.693303925469     1.007825032230
         H            1.011825159822     1.454538020265    -0.490889925469     1.007825032230
         H           -0.640093840178    -0.655948979735    -1.710033925469     1.007825032230
         H           -0.975535840178    -1.781423979735    -0.385123925469     1.007825032230
         H            3.543973159822    -0.245241979735    -0.058075925469     1.007825032230
         H            3.526784159822     1.502469020265    -0.363958925469     1.007825032230
         H            2.843101159822     0.845611020265     1.134110074531     1.007825032230
         H           -3.393614840178     0.619450020265     0.116291074531     1.007825032230

  Basis Set: AUG-CC-PVTZ
    Blend: AUG-CC-PVTZ
  Basis Set: (AUG-CC-PVTZ AUX)
    Blend: AUG-CC-PVTZ-JKFIT
	 Reference Energy          =    -418.7546330209524399 [Eh]
	 Singles Energy            =      -0.0000000000000000 [Eh]
	 Same-Spin Energy          =      -0.4085444267437956 [Eh]
	 Opposite-Spin Energy      =      -1.2877625181884513 [Eh]
	 Correlation Energy        =      -1.6963069449322470 [Eh]
	 Total Energy              =    -420.4509399658846860 [Eh]

	 ================> DF-SCS-MP2 Energies <==================
	-----------------------------------------------------------
	 SCS Same-Spin Scale       =       0.3333333333333333 [-]
	 SCS Opposite-Spin Scale   =       1.2000000000000000 [-]
	 SCS Same-Spin Energy      =      -0.1361814755812652 [Eh]
	 SCS Opposite-Spin Energy  =      -1.5453150218261416 [Eh]
	 SCS Correlation Energy    =      -1.6814964974074067 [Eh]
	 SCS Total Energy          =    -420.4361295183598486 [Eh]
	-----------------------------------------------------------

  Dipole Moment: [D]
     X:    -0.7595      Y:     1.1176      Z:    -2.3675     Total:     2.7259

*** Psi4 exiting successfully. Buy a developer a beer!
