                               Psi4 1.3.2 release

  ==> Input File <==

--------------------------------------------------------------------------
#psi4
#
memory 32 gb

molecule  {
0 1
  O        1.2197630    -1.3791890     0.7815710
  O       -2.8493200    -0.0743410    -0.2921690
  O       -1.2471260     1.2289340     0.6316900
  C        1.6098530     0.5514350    -0.6010430
  C        0.7929571    -0.5453433    -0.0769663
  C       -0.6155180    -0.7660970    -0.6108670
  C        2.9660570     0.6794250     0.0724790
  C       -1.5616300     0.2444870    -0.0131750
  H        1.7167540     0.3993790    -1.6843760
  H        1.0152770     1.4637510    -0.4819620
  H       -0.6366420    -0.6467360    -1.7011060
  H       -1.0048901    -1.7639762    -0.3938378
  H        3.5474250    -0.2360290    -0.0491480
  H        3.5302360     1.5116820    -0.3550310
  H        2.8465530     0.8548240     1.1430380
  H       -3.3901630     0.6286630     0.1252190
units angstrom
no_reorient  #important for SAPT in psi4, default
symmetry c1  #important for SAPT in psi4, default
}

set PROPERTIES_ORIGIN ["COM"]
properties('MP2/aug-cc-pvtz', properties = ['dipole'])
--------------------------------------------------------------------------

    Molecular point group: c1
  Charge       = 0
  Multiplicity = 1
  Basis Set: AUG-CC-PVTZ
    Blend: AUG-CC-PVTZ
  Basis Set: (AUG-CC-PVTZ AUX)
    Blend: AUG-CC-PVTZ-JKFIT

    Orbital Energies [Eh]
    ---------------------

    Doubly Occupied:

       1A    -20.633184     2A    -20.570851     3A    -20.552778
       4A    -11.413451     5A    -11.348341     6A    -11.273610
       7A    -11.243692     8A    -11.219431     9A     -1.479986
      10A     -1.377654    11A     -1.358798    12A     -1.090918
      13A     -1.047196    14A     -0.909492    15A     -0.840598
      16A     -0.743294    17A     -0.719727    18A     -0.708102
      19A     -0.678693    20A     -0.649804    21A     -0.635559
      22A     -0.619993    23A     -0.599392    24A     -0.571995
      25A     -0.527686    26A     -0.517285    27A     -0.513031
      28A     -0.501067    29A     -0.485764    30A     -0.464452
      31A     -0.430256

  @DF-RHF Final Energy:  -418.75842491857077

   => Energetics <=

    Nuclear Repulsion Energy =            372.1811783071195237
    One-Electron Energy =               -1310.4270486036746206
    Two-Electron Energy =                 519.4874453779842725
    Total Energy =                       -418.7584249185707677
  Basis Set: (AUG-CC-PVTZ AUX)
    Blend: AUG-CC-PVTZ-RI
    Molecular point group: c1

    Geometry (in Angstrom), charge = 0, multiplicity = 1:

       Center              X                  Y                   Z               Mass
    ------------   -----------------  -----------------  -----------------  -----------------
         O            1.219999606224    -1.384388169975     0.783698440403    15.994914619570
         O           -2.849083393776    -0.079540169975    -0.290041559597    15.994914619570
         O           -1.246889393776     1.223734830025     0.633817440403    15.994914619570
         C            1.610089606224     0.546235830025    -0.598915559597    12.000000000000
         C            0.793193706224    -0.550542469975    -0.074838859597    12.000000000000
         C           -0.615281393776    -0.771296169975    -0.608739559597    12.000000000000
         C            2.966293606224     0.674225830025     0.074606440403    12.000000000000
         C           -1.561393393776     0.239287830025    -0.011047559597    12.000000000000
         H            1.716990606224     0.394179830025    -1.682248559597     1.007825032230
         H            1.015513606224     1.458551830025    -0.479834559597     1.007825032230
         H           -0.636405393776    -0.651935169975    -1.698978559597     1.007825032230
         H           -1.004653493776    -1.769175369975    -0.391710359597     1.007825032230
         H            3.547661606224    -0.241228169975    -0.047020559597     1.007825032230
         H            3.530472606224     1.506482830025    -0.352903559597     1.007825032230
         H            2.846789606224     0.849624830025     1.145165440403     1.007825032230
         H           -3.389926393776     0.623463830025     0.127346440403     1.007825032230

  Basis Set: AUG-CC-PVTZ
    Blend: AUG-CC-PVTZ
  Basis Set: (AUG-CC-PVTZ AUX)
    Blend: AUG-CC-PVTZ-JKFIT
	 Reference Energy          =    -418.7584249185707677 [Eh]
	 Singles Energy            =      -0.0000000000000000 [Eh]
	 Same-Spin Energy          =      -0.4097801220066463 [Eh]
	 Opposite-Spin Energy      =      -1.2895908275267707 [Eh]
	 Correlation Energy        =      -1.6993709495334171 [Eh]
	 Total Energy              =    -420.4577958681041991 [Eh]

	 ================> DF-SCS-MP2 Energies <==================
	-----------------------------------------------------------
	 SCS Same-Spin Scale       =       0.3333333333333333 [-]
	 SCS Opposite-Spin Scale   =       1.2000000000000000 [-]
	 SCS Same-Spin Energy      =      -0.1365933740022154 [Eh]
	 SCS Opposite-Spin Energy  =      -1.5475089930321249 [Eh]
	 SCS Correlation Energy    =      -1.6841023670343402 [Eh]
	 SCS Total Energy          =    -420.4425272856050810 [Eh]
	-----------------------------------------------------------

  Dipole Moment: [D]
     X:    -1.3183      Y:     0.9531      Z:    -2.6851     Total:     3.1394

*** Psi4 exiting successfully. Buy a developer a beer!
