                               Psi4 1.3.2 release

  ==> Input File <==

--------------------------------------------------------------------------
#psi4
#
memory 32 gb

molecule  {
0 1
  O        1.2197630    -1.3791890     0.7815710
  O       -2.8493200    -0.0743410    -0.2921690
  O       -1.2471260     1.2289340     0.6316900
  C        1.6098530     0.5514350    -0.6010430
  C        0.8014072    -0.5906717    -0.0825365
  C       -0.6155180    -0.7660970    -0.6108670
  C        2.9660570     0.6794250     0.0724790
  C       -1.5616300     0.2444870    -0.0131750
  H        1.7167540     0.3993790    -1.6843760
  H        1.0152770     1.4637510    -0.4819620
  H       -0.6177526    -0.6436198    -1.7009627
  H       -0.9720840    -1.7722110    -0.3761960
  H        3.5474250    -0.2360290    -0.0491480
  H        3.5302360     1.5116820    -0.3550310
  H        2.8465530     0.8548240     1.1430380
  H       -3.3901630     0.6286630     0.1252190
units angstrom
no_reorient  #important for SAPT in psi4, default
symmetry c1  #important for SAPT in psi4, default
}

set PROPERTIES_ORIGIN ["COM"]
properties('MP2/aug-cc-pvtz', properties = ['dipole'])
--------------------------------------------------------------------------

    Molecular point group: c1
  Charge       = 0
  Multiplicity = 1
  Basis Set: AUG-CC-PVTZ
    Blend: AUG-CC-PVTZ
  Basis Set: (AUG-CC-PVTZ AUX)
    Blend: AUG-CC-PVTZ-JKFIT

    Orbital Energies [Eh]
    ---------------------

    Doubly Occupied:

       1A    -20.633191     2A    -20.570560     3A    -20.555261
       4A    -11.413896     5A    -11.345232     6A    -11.272030
       7A    -11.242277     8A    -11.218023     9A     -1.479728
      10A     -1.379742    11A     -1.374279    12A     -1.087040
      13A     -1.043767    14A     -0.904699    15A     -0.840797
      16A     -0.742066    17A     -0.719887    18A     -0.707677
      19A     -0.680174    20A     -0.648222    21A     -0.633030
      22A     -0.623851    23A     -0.598994    24A     -0.576153
      25A     -0.526403    26A     -0.517880    27A     -0.513762
      28A     -0.501931    29A     -0.489517    30A     -0.467765
      31A     -0.426952

  @DF-RHF Final Energy:  -418.76522609593275

   => Energetics <=

    Nuclear Repulsion Energy =            372.1182363578470813
    One-Electron Energy =               -1310.2973546186440217
    Two-Electron Energy =                 519.4138921648641372
    Total Energy =                       -418.7652260959328032
  Basis Set: (AUG-CC-PVTZ AUX)
    Blend: AUG-CC-PVTZ-RI
    Molecular point group: c1

    Geometry (in Angstrom), charge = 0, multiplicity = 1:

       Center              X                  Y                   Z               Mass
    ------------   -----------------  -----------------  -----------------  -----------------
         O            1.218676859718    -1.379656485183     0.784119976384    15.994914619570
         O           -2.850406140282    -0.074808485183    -0.289620023616    15.994914619570
         O           -1.248212140282     1.228466514817     0.634238976384    15.994914619570
         C            1.608766859718     0.550967514817    -0.598494023616    12.000000000000
         C            0.800321059718    -0.591139185183    -0.079987523616    12.000000000000
         C           -0.616604140282    -0.766564485183    -0.608318023616    12.000000000000
         C            2.964970859718     0.678957514817     0.075027976384    12.000000000000
         C           -1.562716140282     0.244019514817    -0.010626023616    12.000000000000
         H            1.715667859718     0.398911514817    -1.681827023616     1.007825032230
         H            1.014190859718     1.463283514817    -0.479413023616     1.007825032230
         H           -0.618838740282    -0.644087285183    -1.698413723616     1.007825032230
         H           -0.973170140282    -1.772678485183    -0.373647023616     1.007825032230
         H            3.546338859718    -0.236496485183    -0.046599023616     1.007825032230
         H            3.529149859718     1.511214514817    -0.352482023616     1.007825032230
         H            2.845466859718     0.854356514817     1.145586976384     1.007825032230
         H           -3.391249140282     0.628195514817     0.127767976384     1.007825032230

  Basis Set: AUG-CC-PVTZ
    Blend: AUG-CC-PVTZ
  Basis Set: (AUG-CC-PVTZ AUX)
    Blend: AUG-CC-PVTZ-JKFIT
	 Reference Energy          =    -418.7652260959327464 [Eh]
	 Singles Energy            =      -0.0000000000000000 [Eh]
	 Same-Spin Energy          =      -0.4087708471217302 [Eh]
	 Opposite-Spin Energy      =      -1.2876995795576323 [Eh]
	 Correlation Energy        =      -1.6964704266793624 [Eh]
	 Total Energy              =    -420.4616965226121010 [Eh]

	 ================> DF-SCS-MP2 Energies <==================
	-----------------------------------------------------------
	 SCS Same-Spin Scale       =       0.3333333333333333 [-]
	 SCS Opposite-Spin Scale   =       1.2000000000000000 [-]
	 SCS Same-Spin Energy      =      -0.1362569490405767 [Eh]
	 SCS Opposite-Spin Energy  =      -1.5452394954691586 [Eh]
	 SCS Correlation Energy    =      -1.6814964445097353 [Eh]
	 SCS Total Energy          =    -420.4467225404424653 [Eh]
	-----------------------------------------------------------

  Dipole Moment: [D]
     X:    -1.3245      Y:     0.8498      Z:    -2.6050     Total:     3.0434

*** Psi4 exiting successfully. Buy a developer a beer!
