                               Psi4 1.3.2 release

  ==> Input File <==

--------------------------------------------------------------------------
#psi4
#
memory 32 gb

molecule  {
0 1
  O        1.1632883    -1.4095841     0.7794668
  O       -2.8493200    -0.0743410    -0.2921690
  O       -1.2471260     1.2289340     0.6316900
  C        1.5482099     0.5712057    -0.6463319
  C        0.7924890    -0.5949300    -0.0578730
  C       -0.6155180    -0.7660970    -0.6108670
  C        2.9660570     0.6794250     0.0724790
  C       -1.5616300     0.2444870    -0.0131750
  H        1.7167540     0.3993790    -1.6843760
  H        1.0152770     1.4637510    -0.4819620
  H       -0.6366420    -0.6467360    -1.7011060
  H       -0.9720840    -1.7722110    -0.3761960
  H        3.5474250    -0.2360290    -0.0491480
  H        3.5302360     1.5116820    -0.3550310
  H        2.8465530     0.8548240     1.1430380
  H       -3.3901630     0.6286630     0.1252190
units angstrom
no_reorient  #important for SAPT in psi4, default
symmetry c1  #important for SAPT in psi4, default
}

set PROPERTIES_ORIGIN ["COM"]
properties('MP2/aug-cc-pvtz', properties = ['dipole'])
--------------------------------------------------------------------------

    Molecular point group: c1
  Charge       = 0
  Multiplicity = 1
  Basis Set: AUG-CC-PVTZ
    Blend: AUG-CC-PVTZ
  Basis Set: (AUG-CC-PVTZ AUX)
    Blend: AUG-CC-PVTZ-JKFIT

    Orbital Energies [Eh]
    ---------------------

    Doubly Occupied:

       1A    -20.631258     2A    -20.569021     3A    -20.559680
       4A    -11.411477     5A    -11.345624     6A    -11.265629
       7A    -11.241614     8A    -11.222235     9A     -1.477998
      10A     -1.390335    11A     -1.374760    12A     -1.084594
      13A     -1.034802    14A     -0.901698    15A     -0.839926
      16A     -0.746493    17A     -0.719113    18A     -0.706795
      19A     -0.680480    20A     -0.646660    21A     -0.638253
      22A     -0.626418    23A     -0.598153    24A     -0.574663
      25A     -0.527312    26A     -0.521213    27A     -0.509205
      28A     -0.499286    29A     -0.495412    30A     -0.469912
      31A     -0.423237

  @DF-RHF Final Energy:  -418.76096736458123

   => Energetics <=

    Nuclear Repulsion Energy =            372.0351006771745119
    One-Electron Energy =               -1310.1256236421270387
    Two-Electron Energy =                 519.3295556003712363
    Total Energy =                       -418.7609673645812336
  Basis Set: (AUG-CC-PVTZ AUX)
    Blend: AUG-CC-PVTZ-RI
    Molecular point group: c1

    Geometry (in Angstrom), charge = 0, multiplicity = 1:

       Center              X                  Y                   Z               Mass
    ------------   -----------------  -----------------  -----------------  -----------------
         O            1.177446634534    -1.407439213345     0.784439836347    15.994914619570
         O           -2.835161665466    -0.072196113345    -0.287195963653    15.994914619570
         O           -1.232967665466     1.231078886655     0.636663036347    15.994914619570
         C            1.562368234534     0.573350586655    -0.641358863653    12.000000000000
         C            0.806647334534    -0.592785113345    -0.052899963653    12.000000000000
         C           -0.601359665466    -0.763952113345    -0.605893963653    12.000000000000
         C            2.980215334534     0.681569886655     0.077452036347    12.000000000000
         C           -1.547471665466     0.246631886655    -0.008201963653    12.000000000000
         H            1.730912334534     0.401523886655    -1.679402963653     1.007825032230
         H            1.029435334534     1.465895886655    -0.476988963653     1.007825032230
         H           -0.622483665466    -0.644591113345    -1.696132963653     1.007825032230
         H           -0.957925665466    -1.770066113345    -0.371222963653     1.007825032230
         H            3.561583334534    -0.233884113345    -0.044174963653     1.007825032230
         H            3.544394334534     1.513826886655    -0.350057963653     1.007825032230
         H            2.860711334534     0.856968886655     1.148011036347     1.007825032230
         H           -3.376004665466     0.630807886655     0.130192036347     1.007825032230

  Basis Set: AUG-CC-PVTZ
    Blend: AUG-CC-PVTZ
  Basis Set: (AUG-CC-PVTZ AUX)
    Blend: AUG-CC-PVTZ-JKFIT
	 Reference Energy          =    -418.7609673645812336 [Eh]
	 Singles Energy            =      -0.0000000000000000 [Eh]
	 Same-Spin Energy          =      -0.4079399968580018 [Eh]
	 Opposite-Spin Energy      =      -1.2867387562724653 [Eh]
	 Correlation Energy        =      -1.6946787531304670 [Eh]
	 Total Energy              =    -420.4556461177116944 [Eh]

	 ================> DF-SCS-MP2 Energies <==================
	-----------------------------------------------------------
	 SCS Same-Spin Scale       =       0.3333333333333333 [-]
	 SCS Opposite-Spin Scale   =       1.2000000000000000 [-]
	 SCS Same-Spin Energy      =      -0.1359799989526672 [Eh]
	 SCS Opposite-Spin Energy  =      -1.5440865075269583 [Eh]
	 SCS Correlation Energy    =      -1.6800665064796256 [Eh]
	 SCS Total Energy          =    -420.4410338710608812 [Eh]
	-----------------------------------------------------------

  Dipole Moment: [D]
     X:    -1.1797      Y:     0.8264      Z:    -2.5583     Total:     2.9359

*** Psi4 exiting successfully. Buy a developer a beer!
