                               Psi4 1.3.2 release

  ==> Input File <==

--------------------------------------------------------------------------
#psi4
#
memory 32 gb

molecule  {
0 1
  O        1.2197630    -1.3791890     0.7815710
  O       -2.8493200    -0.0743410    -0.2921690
  O       -1.2471260     1.2289340     0.6316900
  C        1.5485700     0.5705961    -0.6470765
  C        0.7924890    -0.5949300    -0.0578730
  C       -0.6028260    -0.7024555    -0.6571381
  C        2.9660570     0.6794250     0.0724790
  C       -1.5616300     0.2444870    -0.0131750
  H        1.7167540     0.3993790    -1.6843760
  H        1.0152770     1.4637510    -0.4819620
  H       -0.6366420    -0.6467360    -1.7011060
  H       -0.9720840    -1.7722110    -0.3761960
  H        3.5474250    -0.2360290    -0.0491480
  H        3.5302360     1.5116820    -0.3550310
  H        2.8465530     0.8548240     1.1430380
  H       -3.3901630     0.6286630     0.1252190
units angstrom
no_reorient  #important for SAPT in psi4, default
symmetry c1  #important for SAPT in psi4, default
}

set PROPERTIES_ORIGIN ["COM"]
properties('MP2/aug-cc-pvtz', properties = ['dipole'])
--------------------------------------------------------------------------

    Molecular point group: c1
  Charge       = 0
  Multiplicity = 1
  Basis Set: AUG-CC-PVTZ
    Blend: AUG-CC-PVTZ
  Basis Set: (AUG-CC-PVTZ AUX)
    Blend: AUG-CC-PVTZ-JKFIT

    Orbital Energies [Eh]
    ---------------------

    Doubly Occupied:

       1A    -20.633107     2A    -20.569848     3A    -20.562322
       4A    -11.413161     5A    -11.347162     6A    -11.270154
       7A    -11.237067     8A    -11.219191     9A     -1.479773
      10A     -1.390825    11A     -1.376267    12A     -1.089357
      13A     -1.033229    14A     -0.901850    15A     -0.839776
      16A     -0.748668    17A     -0.721358    18A     -0.712222
      19A     -0.683446    20A     -0.644452    21A     -0.637017
      22A     -0.628429    23A     -0.602063    24A     -0.568809
      25A     -0.524236    26A     -0.520238    27A     -0.508822
      28A     -0.496474    29A     -0.493932    30A     -0.471147
      31A     -0.423982

  @DF-RHF Final Energy:  -418.75380318030926

   => Energetics <=

    Nuclear Repulsion Energy =            372.2825352479121648
    One-Electron Energy =               -1310.5759130665087469
    Two-Electron Energy =                 519.5395746382872630
    Total Energy =                       -418.7538031803093190
  Basis Set: (AUG-CC-PVTZ AUX)
    Blend: AUG-CC-PVTZ-RI
    Molecular point group: c1

    Geometry (in Angstrom), charge = 0, multiplicity = 1:

       Center              X                  Y                   Z               Mass
    ------------   -----------------  -----------------  -----------------  -----------------
         O            1.224787707110    -1.387751379752     0.791115721332    15.994914619570
         O           -2.844295292890    -0.082903379752    -0.282624278668    15.994914619570
         O           -1.242101292890     1.220371620248     0.641234721332    15.994914619570
         C            1.553594707110     0.562033720248    -0.637531778668    12.000000000000
         C            0.797513707110    -0.603492379752    -0.048328278668    12.000000000000
         C           -0.597801292890    -0.711017879752    -0.647593378668    12.000000000000
         C            2.971081707110     0.670862620248     0.082023721332    12.000000000000
         C           -1.556605292890     0.235924620248    -0.003630278668    12.000000000000
         H            1.721778707110     0.390816620248    -1.674831278668     1.007825032230
         H            1.020301707110     1.455188620248    -0.472417278668     1.007825032230
         H           -0.631617292890    -0.655298379752    -1.691561278668     1.007825032230
         H           -0.967059292890    -1.780773379752    -0.366651278668     1.007825032230
         H            3.552449707110    -0.244591379752    -0.039603278668     1.007825032230
         H            3.535260707110     1.503119620248    -0.345486278668     1.007825032230
         H            2.851577707110     0.846261620248     1.152582721332     1.007825032230
         H           -3.385138292890     0.620100620248     0.134763721332     1.007825032230

  Basis Set: AUG-CC-PVTZ
    Blend: AUG-CC-PVTZ
  Basis Set: (AUG-CC-PVTZ AUX)
    Blend: AUG-CC-PVTZ-JKFIT
	 Reference Energy          =    -418.7538031803092622 [Eh]
	 Singles Energy            =      -0.0000000000000000 [Eh]
	 Same-Spin Energy          =      -0.4084375831790670 [Eh]
	 Opposite-Spin Energy      =      -1.2876599813661920 [Eh]
	 Correlation Energy        =      -1.6960975645452590 [Eh]
	 Total Energy              =    -420.4499007448545171 [Eh]

	 ================> DF-SCS-MP2 Energies <==================
	-----------------------------------------------------------
	 SCS Same-Spin Scale       =       0.3333333333333333 [-]
	 SCS Opposite-Spin Scale   =       1.2000000000000000 [-]
	 SCS Same-Spin Energy      =      -0.1361458610596890 [Eh]
	 SCS Opposite-Spin Energy  =      -1.5451919776394303 [Eh]
	 SCS Correlation Energy    =      -1.6813378386991193 [Eh]
	 SCS Total Energy          =    -420.4351410190083698 [Eh]
	-----------------------------------------------------------

  Dipole Moment: [D]
     X:    -1.3509      Y:     0.7452      Z:    -2.5776     Total:     3.0041

*** Psi4 exiting successfully. Buy a developer a beer!
