                               Psi4 1.4a3.dev225

  ==> Input File <==

--------------------------------------------------------------------------
#psi4
#
memory 32 gb

molecule  {
0 1
  O        1.1896460     1.3864710    -0.7896670
  O       -2.9164350     0.0620530     0.2465870
  O       -1.2994600    -1.1722570    -0.7513140
  C        1.5277270    -0.5390120     0.6173550
  C        0.7330570     0.6116870     0.0446410
  C       -0.6915030     0.7929470     0.5540020
  C        2.9119880    -0.6669770    -0.0005940
  C       -1.6392863    -0.1805739    -0.0356248
  H        1.5906630    -0.3916430     1.7048170
  H        0.9378800    -1.4511620     0.4690430
  H       -0.7449460     0.6872940     1.6445860
  H       -1.0362610     1.7983420     0.2961770
  H        3.4930330     0.2441750     0.1549910
  H        3.4532110    -1.5066350     0.4428820
  H        2.8367130    -0.8315610    -1.0772290
  H       -3.4525110    -0.6329900    -0.1896390
units angstrom
no_reorient  #important for SAPT in psi4, default
symmetry c1  #important for SAPT in psi4, default
}

set PROPERTIES_ORIGIN ["COM"]
properties('MP2/aug-cc-pvtz', properties = ['dipole'])
--------------------------------------------------------------------------

    Molecular point group: c1
  Charge       = 0
  Multiplicity = 1
  Basis Set: AUG-CC-PVTZ
    Blend: AUG-CC-PVTZ
  Basis Set: (AUG-CC-PVTZ AUX)
    Blend: AUG-CC-PVTZ-JKFIT

    Orbital Energies [Eh]
    ---------------------

    Doubly Occupied:

       1A    -20.641030     2A    -20.561148     3A    -20.557743
       4A    -11.417542     5A    -11.346277     6A    -11.273674
       7A    -11.241700     8A    -11.217249     9A     -1.483511
      10A     -1.388822    11A     -1.349208    12A     -1.089672
      13A     -1.044964    14A     -0.905770    15A     -0.848773
      16A     -0.744083    17A     -0.718937    18A     -0.706846
      19A     -0.683136    20A     -0.652184    21A     -0.629445
      22A     -0.627564    23A     -0.587910    24A     -0.579997
      25A     -0.526516    26A     -0.516895    27A     -0.514795
      28A     -0.495299    29A     -0.479223    30A     -0.466189
      31A     -0.426374

  @DF-RHF Final Energy:  -418.75984012579767

   => Energetics <=

    Nuclear Repulsion Energy =            371.6359707210623924
    One-Electron Energy =               -1309.3466746567944483
    Two-Electron Energy =                 518.9508638099343898
    Total Energy =                       -418.7598401257976093
  Basis Set: (AUG-CC-PVTZ AUX)
    Blend: AUG-CC-PVTZ-RI
    Molecular point group: c1

    Geometry (in Angstrom), charge = 0, multiplicity = 1:

       Center              X                  Y                   Z               Mass
    ------------   -----------------  -----------------  -----------------  -----------------
         O            1.251410757779     1.364624472440    -0.763179698741    15.994914619570
         O           -2.854670242221     0.040206472440     0.273074301259    15.994914619570
         O           -1.237695242221    -1.194103527560    -0.724826698741    15.994914619570
         C            1.589491757779    -0.560858527560     0.643842301259    12.000000000000
         C            0.794821757779     0.589840472440     0.071128301259    12.000000000000
         C           -0.629738242221     0.771100472440     0.580489301259    12.000000000000
         C            2.973752757779    -0.688823527560     0.025893301259    12.000000000000
         C           -1.577521542221    -0.202420427560    -0.009137498741    12.000000000000
         H            1.652427757779    -0.413489527560     1.731304301259     1.007825032230
         H            0.999644757779    -1.473008527560     0.495530301259     1.007825032230
         H           -0.683181242221     0.665447472440     1.671073301259     1.007825032230
         H           -0.974496242221     1.776495472440     0.322664301259     1.007825032230
         H            3.554797757779     0.222328472440     0.181478301259     1.007825032230
         H            3.514975757779    -1.528481527560     0.469369301259     1.007825032230
         H            2.898477757779    -0.853407527560    -1.050741698741     1.007825032230
         H           -3.390746242221    -0.654836527560    -0.163151698741     1.007825032230

  Basis Set: AUG-CC-PVTZ
    Blend: AUG-CC-PVTZ
  Basis Set: (AUG-CC-PVTZ AUX)
    Blend: AUG-CC-PVTZ-JKFIT
	 Reference Energy          =    -418.7598401257976661 [Eh]
	 Singles Energy            =      -0.0000000000000000 [Eh]
	 Same-Spin Energy          =      -0.4092287835700938 [Eh]
	 Opposite-Spin Energy      =      -1.2885490100886146 [Eh]
	 Correlation Energy        =      -1.6977777936587084 [Eh]
	 Total Energy              =    -420.4576179194563679 [Eh]

	 ================> DF-SCS-MP2 Energies <==================
	-----------------------------------------------------------
	 SCS Same-Spin Scale       =       0.3333333333333333 [-]
	 SCS Opposite-Spin Scale   =       1.2000000000000000 [-]
	 SCS Same-Spin Energy      =      -0.1364095945233646 [Eh]
	 SCS Opposite-Spin Energy  =      -1.5462588121063374 [Eh]
	 SCS Correlation Energy    =      -1.6826684066297020 [Eh]
	 SCS Total Energy          =    -420.4425085324273823 [Eh]
	-----------------------------------------------------------

  Dipole Moment: [D]
     X:    -1.5783      Y:    -0.5640      Z:     2.7513     Total:     3.2216

*** Psi4 exiting successfully. Buy a developer a beer!
