                               Psi4 1.3.2 release

  ==> Input File <==

--------------------------------------------------------------------------
#psi4
#
memory 32 gb

molecule  {
0 1
  O        1.2197630    -1.3791890     0.7815710
  O       -2.8493200    -0.0743410    -0.2921690
  O       -1.2471260     1.2289340     0.6316900
  C        1.6688957     0.5291318    -0.5535207
  C        0.7924890    -0.5949300    -0.0578730
  C       -0.6243508    -0.8292693    -0.5630802
  C        2.9660570     0.6794250     0.0724790
  C       -1.5616300     0.2444870    -0.0131750
  H        1.7167540     0.3993790    -1.6843760
  H        1.0152770     1.4637510    -0.4819620
  H       -0.6366420    -0.6467360    -1.7011060
  H       -0.9720840    -1.7722110    -0.3761960
  H        3.5474250    -0.2360290    -0.0491480
  H        3.5302360     1.5116820    -0.3550310
  H        2.8465530     0.8548240     1.1430380
  H       -3.3901630     0.6286630     0.1252190
units angstrom
no_reorient  #important for SAPT in psi4, default
symmetry c1  #important for SAPT in psi4, default
}

set PROPERTIES_ORIGIN ["COM"]
properties('MP2/aug-cc-pvtz', properties = ['dipole'])
--------------------------------------------------------------------------

    Molecular point group: c1
  Charge       = 0
  Multiplicity = 1
  Basis Set: AUG-CC-PVTZ
    Blend: AUG-CC-PVTZ
  Basis Set: (AUG-CC-PVTZ AUX)
    Blend: AUG-CC-PVTZ-JKFIT

    Orbital Energies [Eh]
    ---------------------

    Doubly Occupied:

       1A    -20.632730     2A    -20.571058     3A    -20.551379
       4A    -11.414585     5A    -11.342319     6A    -11.274242
       7A    -11.247495     8A    -11.215042     9A     -1.479305
      10A     -1.387899    11A     -1.375952    12A     -1.083373
      13A     -1.052229    14A     -0.901287    15A     -0.840852
      16A     -0.740012    17A     -0.717938    18A     -0.708376
      19A     -0.675331    20A     -0.657621    21A     -0.629429
      22A     -0.626997    23A     -0.598515    24A     -0.574983
      25A     -0.549436    26A     -0.517674    27A     -0.511554
      28A     -0.500866    29A     -0.482072    30A     -0.461445
      31A     -0.422309

  @DF-RHF Final Energy:  -418.75298742132139

   => Energetics <=

    Nuclear Repulsion Energy =            372.2736831361889926
    One-Electron Energy =               -1310.5647275731921582
    Two-Electron Energy =                 519.5380570156817157
    Total Energy =                       -418.7529874213214498
  Basis Set: (AUG-CC-PVTZ AUX)
    Blend: AUG-CC-PVTZ-RI
    Molecular point group: c1

    Geometry (in Angstrom), charge = 0, multiplicity = 1:

       Center              X                  Y                   Z               Mass
    ------------   -----------------  -----------------  -----------------  -----------------
         O            1.214571094149    -1.370350402458     0.771715325596    15.994914619570
         O           -2.854511905851    -0.065502402458    -0.302024674404    15.994914619570
         O           -1.252317905851     1.237772597542     0.621834325596    15.994914619570
         C            1.663703794149     0.537970397542    -0.563376374404    12.000000000000
         C            0.787297094149    -0.586091402458    -0.067728674404    12.000000000000
         C           -0.629542705851    -0.820430702458    -0.572935874404    12.000000000000
         C            2.960865094149     0.688263597542     0.062623325596    12.000000000000
         C           -1.566821905851     0.253325597542    -0.023030674404    12.000000000000
         H            1.711562094149     0.408217597542    -1.694231674404     1.007825032230
         H            1.010085094149     1.472589597542    -0.491817674404     1.007825032230
         H           -0.641833905851    -0.637897402458    -1.710961674404     1.007825032230
         H           -0.977275905851    -1.763372402458    -0.386051674404     1.007825032230
         H            3.542233094149    -0.227190402458    -0.059003674404     1.007825032230
         H            3.525044094149     1.520520597542    -0.364886674404     1.007825032230
         H            2.841361094149     0.863662597542     1.133182325596     1.007825032230
         H           -3.395354905851     0.637501597542     0.115363325596     1.007825032230

  Basis Set: AUG-CC-PVTZ
    Blend: AUG-CC-PVTZ
  Basis Set: (AUG-CC-PVTZ AUX)
    Blend: AUG-CC-PVTZ-JKFIT
	 Reference Energy          =    -418.7529874213213930 [Eh]
	 Singles Energy            =      -0.0000000000000000 [Eh]
	 Same-Spin Energy          =      -0.4088296328560319 [Eh]
	 Opposite-Spin Energy      =      -1.2873731560235289 [Eh]
	 Correlation Energy        =      -1.6962027888795608 [Eh]
	 Total Energy              =    -420.4491902102009817 [Eh]

	 ================> DF-SCS-MP2 Energies <==================
	-----------------------------------------------------------
	 SCS Same-Spin Scale       =       0.3333333333333333 [-]
	 SCS Opposite-Spin Scale   =       1.2000000000000000 [-]
	 SCS Same-Spin Energy      =      -0.1362765442853440 [Eh]
	 SCS Opposite-Spin Energy  =      -1.5448477872282347 [Eh]
	 SCS Correlation Energy    =      -1.6811243315135787 [Eh]
	 SCS Total Energy          =    -420.4341117528349514 [Eh]
	-----------------------------------------------------------

  Dipole Moment: [D]
     X:    -1.3258      Y:     0.8303      Z:    -2.5160     Total:     2.9627

*** Psi4 exiting successfully. Buy a developer a beer!
