                               Psi4 1.3.2 release

  ==> Input File <==

--------------------------------------------------------------------------
#psi4
#
memory 32 gb

molecule  {
0 1
  O        1.2197630    -1.3791890     0.7815710
  O       -2.8493200    -0.0743410    -0.2921690
  O       -1.2883492     1.2385355     0.6357354
  C        1.6098530     0.5514350    -0.6010430
  C        0.7924890    -0.5949300    -0.0578730
  C       -0.6570084    -0.7923914    -0.6297678
  C        2.9660570     0.6794250     0.0724790
  C       -1.5616300     0.2444870    -0.0131750
  H        1.7167540     0.3993790    -1.6843760
  H        1.0152770     1.4637510    -0.4819620
  H       -0.6366420    -0.6467360    -1.7011060
  H       -0.9720840    -1.7722110    -0.3761960
  H        3.5474250    -0.2360290    -0.0491480
  H        3.5302360     1.5116820    -0.3550310
  H        2.8465530     0.8548240     1.1430380
  H       -3.3901630     0.6286630     0.1252190
units angstrom
no_reorient  #important for SAPT in psi4, default
symmetry c1  #important for SAPT in psi4, default
}

set PROPERTIES_ORIGIN ["COM"]
properties('MP2/aug-cc-pvtz', properties = ['dipole'])
--------------------------------------------------------------------------

    Molecular point group: c1
  Charge       = 0
  Multiplicity = 1
  Basis Set: AUG-CC-PVTZ
    Blend: AUG-CC-PVTZ
  Basis Set: (AUG-CC-PVTZ AUX)
    Blend: AUG-CC-PVTZ-JKFIT

    Orbital Energies [Eh]
    ---------------------

    Doubly Occupied:

       1A    -20.627569     2A    -20.570845     3A    -20.557797
       4A    -11.412555     5A    -11.347205     6A    -11.271484
       7A    -11.243291     8A    -11.218385     9A     -1.478936
      10A     -1.388881    11A     -1.372591    12A     -1.082949
      13A     -1.043863    14A     -0.900632    15A     -0.837897
      16A     -0.741686    17A     -0.717425    18A     -0.706909
      19A     -0.683020    20A     -0.646374    21A     -0.632352
      22A     -0.623550    23A     -0.599808    24A     -0.583800
      25A     -0.529581    26A     -0.519326    27A     -0.516451
      28A     -0.502072    29A     -0.490941    30A     -0.470920
      31A     -0.420765

  @DF-RHF Final Energy:  -418.76482191651127

   => Energetics <=

    Nuclear Repulsion Energy =            371.2788584968511714
    One-Electron Energy =               -1308.6076347594071194
    Two-Electron Energy =                 518.5639543460446248
    Total Energy =                       -418.7648219165113233
  Basis Set: (AUG-CC-PVTZ AUX)
    Blend: AUG-CC-PVTZ-RI
    Molecular point group: c1

    Geometry (in Angstrom), charge = 0, multiplicity = 1:

       Center              X                  Y                   Z               Mass
    ------------   -----------------  -----------------  -----------------  -----------------
         O            1.229735294396    -1.377793471314     0.782967741429    15.994914619570
         O           -2.839347705604    -0.072945471314    -0.290772258571    15.994914619570
         O           -1.278376905604     1.239931028686     0.637132141429    15.994914619570
         C            1.619825294396     0.552830528686    -0.599646258571    12.000000000000
         C            0.802461294396    -0.593534471314    -0.056476258571    12.000000000000
         C           -0.647036105604    -0.790995871314    -0.628371058571    12.000000000000
         C            2.976029294396     0.680820528686     0.073875741429    12.000000000000
         C           -1.551657705604     0.245882528686    -0.011778258571    12.000000000000
         H            1.726726294396     0.400774528686    -1.682979258571     1.007825032230
         H            1.025249294396     1.465146528686    -0.480565258571     1.007825032230
         H           -0.626669705604    -0.645340471314    -1.699709258571     1.007825032230
         H           -0.962111705604    -1.770815471314    -0.374799258571     1.007825032230
         H            3.557397294396    -0.234633471314    -0.047751258571     1.007825032230
         H            3.540208294396     1.513077528686    -0.353634258571     1.007825032230
         H            2.856525294396     0.856219528686     1.144434741429     1.007825032230
         H           -3.380190705604     0.630058528686     0.126615741429     1.007825032230

  Basis Set: AUG-CC-PVTZ
    Blend: AUG-CC-PVTZ
  Basis Set: (AUG-CC-PVTZ AUX)
    Blend: AUG-CC-PVTZ-JKFIT
	 Reference Energy          =    -418.7648219165112664 [Eh]
	 Singles Energy            =      -0.0000000000000000 [Eh]
	 Same-Spin Energy          =      -0.4080821120265239 [Eh]
	 Opposite-Spin Energy      =      -1.2865697033768306 [Eh]
	 Correlation Energy        =      -1.6946518154033545 [Eh]
	 Total Energy              =    -420.4594737319146134 [Eh]

	 ================> DF-SCS-MP2 Energies <==================
	-----------------------------------------------------------
	 SCS Same-Spin Scale       =       0.3333333333333333 [-]
	 SCS Opposite-Spin Scale   =       1.2000000000000000 [-]
	 SCS Same-Spin Energy      =      -0.1360273706755080 [Eh]
	 SCS Opposite-Spin Energy  =      -1.5438836440521968 [Eh]
	 SCS Correlation Energy    =      -1.6799110147277048 [Eh]
	 SCS Total Energy          =    -420.4447329312389456 [Eh]
	-----------------------------------------------------------

  Dipole Moment: [D]
     X:    -1.1413      Y:     0.7539      Z:    -2.5558     Total:     2.8988

*** Psi4 exiting successfully. Buy a developer a beer!
