                               Psi4 1.3.2 release

  ==> Input File <==

--------------------------------------------------------------------------
#psi4
#
memory 32 gb

molecule  {
0 1
  O        1.2197630    -1.3791890     0.7815710
  O       -2.8493200    -0.0743410    -0.2921690
  O       -1.2471260     1.2289340     0.6316900
  C        1.6098530     0.5514350    -0.6010430
  C        0.7924890    -0.5949300    -0.0578730
  C       -0.6155180    -0.7660970    -0.6108670
  C        2.9660570     0.6794250     0.0724790
  C       -1.5616300     0.2444870    -0.0131750
  H        1.7167540     0.3993790    -1.6843760
  H        1.0152770     1.4637510    -0.4819620
  H       -0.6404934    -0.6249738    -1.8998812
  H       -0.9720840    -1.7722110    -0.3761960
  H        3.5474250    -0.2360290    -0.0491480
  H        3.5302360     1.5116820    -0.3550310
  H        2.8465530     0.8548240     1.1430380
  H       -3.3901630     0.6286630     0.1252190
units angstrom
no_reorient  #important for SAPT in psi4, default
symmetry c1  #important for SAPT in psi4, default
}

set PROPERTIES_ORIGIN ["COM"]
properties('MP2/aug-cc-pvtz', properties = ['dipole'])
--------------------------------------------------------------------------

    Molecular point group: c1
  Charge       = 0
  Multiplicity = 1
  Basis Set: AUG-CC-PVTZ
    Blend: AUG-CC-PVTZ
  Basis Set: (AUG-CC-PVTZ AUX)
    Blend: AUG-CC-PVTZ-JKFIT

    Orbital Energies [Eh]
    ---------------------

    Doubly Occupied:

       1A    -20.632677     2A    -20.571270     3A    -20.558513
       4A    -11.414744     5A    -11.345896     6A    -11.291720
       7A    -11.240962     8A    -11.216971     9A     -1.479678
      10A     -1.390526    11A     -1.376538    12A     -1.079285
      13A     -1.037956    14A     -0.901858    15A     -0.837854
      16A     -0.739895    17A     -0.720459    18A     -0.704732
      19A     -0.666429    20A     -0.648078    21A     -0.632348
      22A     -0.627150    23A     -0.597883    24A     -0.559922
      25A     -0.524123    26A     -0.516634    27A     -0.514072
      28A     -0.502397    29A     -0.489867    30A     -0.468924
      31A     -0.425679

  @DF-RHF Final Energy:  -418.74740289170541

   => Energetics <=

    Nuclear Repulsion Energy =            371.3380624837815276
    One-Electron Energy =               -1308.7408532268486852
    Two-Electron Energy =                 518.6553878513617519
    Total Energy =                       -418.7474028917054056
  Basis Set: (AUG-CC-PVTZ AUX)
    Blend: AUG-CC-PVTZ-RI
    Molecular point group: c1

    Geometry (in Angstrom), charge = 0, multiplicity = 1:

       Center              X                  Y                   Z               Mass
    ------------   -----------------  -----------------  -----------------  -----------------
         O            1.219796550552    -1.379378084202     0.783297148795    15.994914619570
         O           -2.849286449448    -0.074530084202    -0.290442851205    15.994914619570
         O           -1.247092449448     1.228744915798     0.633416148795    15.994914619570
         C            1.609886550552     0.551245915798    -0.599316851205    12.000000000000
         C            0.792522550552    -0.595119084202    -0.056146851205    12.000000000000
         C           -0.615484449448    -0.766286084202    -0.609140851205    12.000000000000
         C            2.966090550552     0.679235915798     0.074205148795    12.000000000000
         C           -1.561596449448     0.244297915798    -0.011448851205    12.000000000000
         H            1.716787550552     0.399189915798    -1.682649851205     1.007825032230
         H            1.015310550552     1.463561915798    -0.480235851205     1.007825032230
         H           -0.640459849448    -0.625162884202    -1.898155051205     1.007825032230
         H           -0.972050449448    -1.772400084202    -0.374469851205     1.007825032230
         H            3.547458550552    -0.236218084202    -0.047421851205     1.007825032230
         H            3.530269550552     1.511492915798    -0.353304851205     1.007825032230
         H            2.846586550552     0.854634915798     1.144764148795     1.007825032230
         H           -3.390129449448     0.628473915798     0.126945148795     1.007825032230

  Basis Set: AUG-CC-PVTZ
    Blend: AUG-CC-PVTZ
  Basis Set: (AUG-CC-PVTZ AUX)
    Blend: AUG-CC-PVTZ-JKFIT
	 Reference Energy          =    -418.7474028917054056 [Eh]
	 Singles Energy            =      -0.0000000000000000 [Eh]
	 Same-Spin Energy          =      -0.4084754893216310 [Eh]
	 Opposite-Spin Energy      =      -1.2883532910783040 [Eh]
	 Correlation Energy        =      -1.6968287803999349 [Eh]
	 Total Energy              =    -420.4442316721053317 [Eh]

	 ================> DF-SCS-MP2 Energies <==================
	-----------------------------------------------------------
	 SCS Same-Spin Scale       =       0.3333333333333333 [-]
	 SCS Opposite-Spin Scale   =       1.2000000000000000 [-]
	 SCS Same-Spin Energy      =      -0.1361584964405437 [Eh]
	 SCS Opposite-Spin Energy  =      -1.5460239492939647 [Eh]
	 SCS Correlation Energy    =      -1.6821824457345085 [Eh]
	 SCS Total Energy          =    -420.4295853374399030 [Eh]
	-----------------------------------------------------------

  Dipole Moment: [D]
     X:    -1.3391      Y:     0.7816      Z:    -2.5286     Total:     2.9662

*** Psi4 exiting successfully. Buy a developer a beer!
