                               Psi4 1.3.2 release

  ==> Input File <==

--------------------------------------------------------------------------
#psi4
#
memory 32 gb

molecule  {
0 1
  O        1.2197630    -1.3791890     0.7815710
  O       -2.8493200    -0.0743410    -0.2921690
  O       -1.2471260     1.2289340     0.6316900
  C        1.6098530     0.5514350    -0.6010430
  C        0.7907760    -0.6049236    -0.0821809
  C       -0.6155180    -0.7660970    -0.6108670
  C        2.9660570     0.6794250     0.0724790
  C       -1.5616300     0.2444870    -0.0131750
  H        1.7064291     0.3832725    -1.6829643
  H        1.0152770     1.4637510    -0.4819620
  H       -0.6366420    -0.6467360    -1.7011060
  H       -0.9720840    -1.7722110    -0.3761960
  H        3.5474250    -0.2360290    -0.0491480
  H        3.5302360     1.5116820    -0.3550310
  H        2.8465530     0.8548240     1.1430380
  H       -3.3901630     0.6286630     0.1252190
units angstrom
no_reorient  #important for SAPT in psi4, default
symmetry c1  #important for SAPT in psi4, default
}

set PROPERTIES_ORIGIN ["COM"]
properties('MP2/aug-cc-pvtz', properties = ['dipole'])
--------------------------------------------------------------------------

    Molecular point group: c1
  Charge       = 0
  Multiplicity = 1
  Basis Set: AUG-CC-PVTZ
    Blend: AUG-CC-PVTZ
  Basis Set: (AUG-CC-PVTZ AUX)
    Blend: AUG-CC-PVTZ-JKFIT

    Orbital Energies [Eh]
    ---------------------

    Doubly Occupied:

       1A    -20.633630     2A    -20.570877     3A    -20.555821
       4A    -11.414488     5A    -11.344571     6A    -11.272118
       7A    -11.241846     8A    -11.217396     9A     -1.480152
      10A     -1.382354    11A     -1.375699    12A     -1.087033
      13A     -1.042525    14A     -0.903068    15A     -0.841416
      16A     -0.742440    17A     -0.720201    18A     -0.707986
      19A     -0.680841    20A     -0.648089    21A     -0.631900
      22A     -0.625320    23A     -0.599063    24A     -0.576556
      25A     -0.525795    26A     -0.518053    27A     -0.513659
      28A     -0.502363    29A     -0.490435    30A     -0.468339
      31A     -0.425867

  @DF-RHF Final Energy:  -418.76606559595587

   => Energetics <=

    Nuclear Repulsion Energy =            372.1350697503742708
    One-Electron Energy =               -1310.3224657314638080
    Two-Electron Energy =                 519.4213303851337287
    Total Energy =                       -418.7660655959558653
  Basis Set: (AUG-CC-PVTZ AUX)
    Blend: AUG-CC-PVTZ-RI
    Molecular point group: c1

    Geometry (in Angstrom), charge = 0, multiplicity = 1:

       Center              X                  Y                   Z               Mass
    ------------   -----------------  -----------------  -----------------  -----------------
         O            1.220029904926    -1.378015810684     0.784072189635    15.994914619570
         O           -2.849053095074    -0.073167810684    -0.289667810365    15.994914619570
         O           -1.246859095074     1.230107189316     0.634191189635    15.994914619570
         C            1.610119904926     0.552608189316    -0.598541810365    12.000000000000
         C            0.791042904926    -0.603750410684    -0.079679710365    12.000000000000
         C           -0.615251095074    -0.764923810684    -0.608365810365    12.000000000000
         C            2.966323904926     0.680598189316     0.074980189635    12.000000000000
         C           -1.561363095074     0.245660189316    -0.010673810365    12.000000000000
         H            1.706696004926     0.384445689316    -1.680463110365     1.007825032230
         H            1.015543904926     1.464924189316    -0.479460810365     1.007825032230
         H           -0.636375095074    -0.645562810684    -1.698604810365     1.007825032230
         H           -0.971817095074    -1.771037810684    -0.373694810365     1.007825032230
         H            3.547691904926    -0.234855810684    -0.046646810365     1.007825032230
         H            3.530502904926     1.512855189316    -0.352529810365     1.007825032230
         H            2.846819904926     0.855997189316     1.145539189635     1.007825032230
         H           -3.389896095074     0.629836189316     0.127720189635     1.007825032230

  Basis Set: AUG-CC-PVTZ
    Blend: AUG-CC-PVTZ
  Basis Set: (AUG-CC-PVTZ AUX)
    Blend: AUG-CC-PVTZ-JKFIT
	 Reference Energy          =    -418.7660655959558653 [Eh]
	 Singles Energy            =      -0.0000000000000000 [Eh]
	 Same-Spin Energy          =      -0.4085951155827466 [Eh]
	 Opposite-Spin Energy      =      -1.2873619030694474 [Eh]
	 Correlation Energy        =      -1.6959570186521939 [Eh]
	 Total Energy              =    -420.4620226146080313 [Eh]

	 ================> DF-SCS-MP2 Energies <==================
	-----------------------------------------------------------
	 SCS Same-Spin Scale       =       0.3333333333333333 [-]
	 SCS Opposite-Spin Scale   =       1.2000000000000000 [-]
	 SCS Same-Spin Energy      =      -0.1361983718609155 [Eh]
	 SCS Opposite-Spin Energy  =      -1.5448342836833369 [Eh]
	 SCS Correlation Energy    =      -1.6810326555442523 [Eh]
	 SCS Total Energy          =    -420.4470982515001083 [Eh]
	-----------------------------------------------------------

  Dipole Moment: [D]
     X:    -1.3924      Y:     0.7962      Z:    -2.5848     Total:     3.0421

*** Psi4 exiting successfully. Buy a developer a beer!
