                               Psi4 1.3.2 release

  ==> Input File <==

--------------------------------------------------------------------------
#psi4
#
memory 32 gb

molecule  {
0 1
  O        1.1822339    -1.3996965     0.7804237
  O       -2.8493200    -0.0743410    -0.2921690
  O       -1.2471260     1.2289340     0.6316900
  C        1.5689962     0.5649681    -0.6314088
  C        0.7924890    -0.5949300    -0.0578730
  C       -0.6155180    -0.7660970    -0.6108670
  C        2.9660570     0.6794250     0.0724790
  C       -1.5616300     0.2444870    -0.0131750
  H        1.7167540     0.3993790    -1.6843760
  H        1.0152770     1.4637510    -0.4819620
  H       -0.6366420    -0.6467360    -1.7011060
  H       -0.9720840    -1.7722110    -0.3761960
  H        3.5474250    -0.2360290    -0.0491480
  H        3.5302360     1.5116820    -0.3550310
  H        2.8465530     0.8548240     1.1430380
  H       -3.3901630     0.6286630     0.1252190
units angstrom
no_reorient  #important for SAPT in psi4, default
symmetry c1  #important for SAPT in psi4, default
}

set PROPERTIES_ORIGIN ["COM"]
properties('MP2/aug-cc-pvtz', properties = ['dipole'])
--------------------------------------------------------------------------

    Molecular point group: c1
  Charge       = 0
  Multiplicity = 1
  Basis Set: AUG-CC-PVTZ
    Blend: AUG-CC-PVTZ
  Basis Set: (AUG-CC-PVTZ AUX)
    Blend: AUG-CC-PVTZ-JKFIT

    Orbital Energies [Eh]
    ---------------------

    Doubly Occupied:

       1A    -20.631803     2A    -20.569484     3A    -20.558710
       4A    -11.412130     5A    -11.345017     6A    -11.267511
       7A    -11.241288     8A    -11.220542     9A     -1.478512
      10A     -1.389814    11A     -1.375188    12A     -1.084665
      13A     -1.036986    14A     -0.901675    15A     -0.839854
      16A     -0.745206    17A     -0.719387    18A     -0.707001
      19A     -0.680595    20A     -0.646713    21A     -0.636241
      22A     -0.626358    23A     -0.598289    24A     -0.575462
      25A     -0.526018    26A     -0.519356    27A     -0.509387
      28A     -0.503600    29A     -0.494605    30A     -0.469865
      31A     -0.424134

  @DF-RHF Final Energy:  -418.76491979551855

   => Energetics <=

    Nuclear Repulsion Energy =            372.0915110914898492
    One-Electron Energy =               -1310.2420746320842682
    Two-Electron Energy =                 519.3856437450759813
    Total Energy =                       -418.7649197955184945
  Basis Set: (AUG-CC-PVTZ AUX)
    Blend: AUG-CC-PVTZ-RI
    Molecular point group: c1

    Geometry (in Angstrom), charge = 0, multiplicity = 1:

       Center              X                  Y                   Z               Mass
    ------------   -----------------  -----------------  -----------------  -----------------
         O            1.191631515031    -1.398269424842     0.783721706769    15.994914619570
         O           -2.839922384969    -0.072913924842    -0.288870993231    15.994914619570
         O           -1.237728384969     1.230361075158     0.634988006769    15.994914619570
         C            1.578393815031     0.566395175158    -0.628110793231    12.000000000000
         C            0.801886615031    -0.593502924842    -0.054574993231    12.000000000000
         C           -0.606120384969    -0.764669924842    -0.607568993231    12.000000000000
         C            2.975454615031     0.680852075158     0.075777006769    12.000000000000
         C           -1.552232384969     0.245914075158    -0.009876993231    12.000000000000
         H            1.726151615031     0.400806075158    -1.681077993231     1.007825032230
         H            1.024674615031     1.465178075158    -0.478663993231     1.007825032230
         H           -0.627244384969    -0.645308924842    -1.697807993231     1.007825032230
         H           -0.962686384969    -1.770783924842    -0.372897993231     1.007825032230
         H            3.556822615031    -0.234601924842    -0.045849993231     1.007825032230
         H            3.539633615031     1.513109075158    -0.351732993231     1.007825032230
         H            2.855950615031     0.856251075158     1.146336006769     1.007825032230
         H           -3.380765384969     0.630090075158     0.128517006769     1.007825032230

  Basis Set: AUG-CC-PVTZ
    Blend: AUG-CC-PVTZ
  Basis Set: (AUG-CC-PVTZ AUX)
    Blend: AUG-CC-PVTZ-JKFIT
	 Reference Energy          =    -418.7649197955185514 [Eh]
	 Singles Energy            =      -0.0000000000000000 [Eh]
	 Same-Spin Energy          =      -0.4079767402086746 [Eh]
	 Opposite-Spin Energy      =      -1.2865591874465998 [Eh]
	 Correlation Energy        =      -1.6945359276552745 [Eh]
	 Total Energy              =    -420.4594557231738463 [Eh]

	 ================> DF-SCS-MP2 Energies <==================
	-----------------------------------------------------------
	 SCS Same-Spin Scale       =       0.3333333333333333 [-]
	 SCS Opposite-Spin Scale   =       1.2000000000000000 [-]
	 SCS Same-Spin Energy      =      -0.1359922467362249 [Eh]
	 SCS Opposite-Spin Energy  =      -1.5438710249359198 [Eh]
	 SCS Correlation Energy    =      -1.6798632716721447 [Eh]
	 SCS Total Energy          =    -420.4447830671907127 [Eh]
	-----------------------------------------------------------

  Dipole Moment: [D]
     X:    -1.2384      Y:     0.8125      Z:    -2.5601     Total:     2.9577

*** Psi4 exiting successfully. Buy a developer a beer!
