                               Psi4 1.3.2 release

  ==> Input File <==

--------------------------------------------------------------------------
#psi4
#
memory 32 gb

molecule  {
0 1
  O        1.2197630    -1.3791890     0.7815710
  O       -2.8493200    -0.0743410    -0.2921690
  O       -1.2471260     1.2289340     0.6316900
  C        1.6098530     0.5514350    -0.6010430
  C        0.7924890    -0.5949300    -0.0578730
  C       -0.6155180    -0.7660970    -0.6108670
  C        2.9660570     0.6794250     0.0724790
  C       -1.5478136     0.2059860    -0.0369585
  H        1.7167540     0.3993790    -1.6843760
  H        1.0152770     1.4637510    -0.4819620
  H       -0.6366420    -0.6467360    -1.7011060
  H       -0.9720840    -1.7722110    -0.3761960
  H        3.5474250    -0.2360290    -0.0491480
  H        3.5302360     1.5116820    -0.3550310
  H        2.8465530     0.8548240     1.1430380
  H       -3.4183167     0.6130644     0.1136082
units angstrom
no_reorient  #important for SAPT in psi4, default
symmetry c1  #important for SAPT in psi4, default
}

set PROPERTIES_ORIGIN ["COM"]
properties('MP2/aug-cc-pvtz', properties = ['dipole'])
--------------------------------------------------------------------------

    Molecular point group: c1
  Charge       = 0
  Multiplicity = 1
  Basis Set: AUG-CC-PVTZ
    Blend: AUG-CC-PVTZ
  Basis Set: (AUG-CC-PVTZ AUX)
    Blend: AUG-CC-PVTZ-JKFIT

    Orbital Energies [Eh]
    ---------------------

    Doubly Occupied:

       1A    -20.632499     2A    -20.563970     3A    -20.558984
       4A    -11.417106     5A    -11.347073     6A    -11.273787
       7A    -11.241908     8A    -11.217533     9A     -1.470445
      10A     -1.390936    11A     -1.352774    12A     -1.094372
      13A     -1.047441    14A     -0.905683    15A     -0.844269
      16A     -0.744033    17A     -0.718773    18A     -0.703582
      19A     -0.683378    20A     -0.648974    21A     -0.629460
      22A     -0.627433    23A     -0.591277    24A     -0.578146
      25A     -0.527389    26A     -0.518632    27A     -0.515855
      28A     -0.496945    29A     -0.482228    30A     -0.467406
      31A     -0.427489

  @DF-RHF Final Energy:  -418.76013947250067

   => Energetics <=

    Nuclear Repulsion Energy =            372.1124679831597177
    One-Electron Energy =               -1310.3056578421358154
    Two-Electron Energy =                 519.4330503864754291
    Total Energy =                       -418.7601394725006685
  Basis Set: (AUG-CC-PVTZ AUX)
    Blend: AUG-CC-PVTZ-RI
    Molecular point group: c1

    Geometry (in Angstrom), charge = 0, multiplicity = 1:

       Center              X                  Y                   Z               Mass
    ------------   -----------------  -----------------  -----------------  -----------------
         O            1.218578906711    -1.375072383342     0.784131058725    15.994914619570
         O           -2.850504093289    -0.070224383342    -0.289608941275    15.994914619570
         O           -1.248310093289     1.233050616658     0.634250058725    15.994914619570
         C            1.608668906711     0.555551616658    -0.598482941275    12.000000000000
         C            0.791304906711    -0.590813383342    -0.055312941275    12.000000000000
         C           -0.616702093289    -0.761980383342    -0.608306941275    12.000000000000
         C            2.964872906711     0.683541616658     0.075039058725    12.000000000000
         C           -1.548997693289     0.210102616658    -0.034398441275    12.000000000000
         H            1.715569906711     0.403495616658    -1.681815941275     1.007825032230
         H            1.014092906711     1.467867616658    -0.479401941275     1.007825032230
         H           -0.637826093289    -0.642619383342    -1.698545941275     1.007825032230
         H           -0.973268093289    -1.768094383342    -0.373635941275     1.007825032230
         H            3.546240906711    -0.231912383342    -0.046587941275     1.007825032230
         H            3.529051906711     1.515798616658    -0.352470941275     1.007825032230
         H            2.845368906711     0.858940616658     1.145598058725     1.007825032230
         H           -3.419500793289     0.617181016658     0.116168258725     1.007825032230

  Basis Set: AUG-CC-PVTZ
    Blend: AUG-CC-PVTZ
  Basis Set: (AUG-CC-PVTZ AUX)
    Blend: AUG-CC-PVTZ-JKFIT
	 Reference Energy          =    -418.7601394725006685 [Eh]
	 Singles Energy            =      -0.0000000000000000 [Eh]
	 Same-Spin Energy          =      -0.4093040669031530 [Eh]
	 Opposite-Spin Energy      =      -1.2886047122601396 [Eh]
	 Correlation Energy        =      -1.6979087791632925 [Eh]
	 Total Energy              =    -420.4580482516639677 [Eh]

	 ================> DF-SCS-MP2 Energies <==================
	-----------------------------------------------------------
	 SCS Same-Spin Scale       =       0.3333333333333333 [-]
	 SCS Opposite-Spin Scale   =       1.2000000000000000 [-]
	 SCS Same-Spin Energy      =      -0.1364346889677177 [Eh]
	 SCS Opposite-Spin Energy  =      -1.5463256547121675 [Eh]
	 SCS Correlation Energy    =      -1.6827603436798853 [Eh]
	 SCS Total Energy          =    -420.4428998161805566 [Eh]
	-----------------------------------------------------------

  Dipole Moment: [D]
     X:    -1.3093      Y:     0.5611      Z:    -2.6930     Total:     3.0465

*** Psi4 exiting successfully. Buy a developer a beer!
