                               Psi4 1.4a3.dev225

  ==> Input File <==

--------------------------------------------------------------------------
#psi4
#
memory 32 gb

molecule  {
0 1
  O        1.1896460     1.3864710    -0.7896670
  O       -2.9164350     0.0620530     0.2465870
  O       -1.2994600    -1.1722570    -0.7513140
  C        1.5277270    -0.5390120     0.6173550
  C        0.7330570     0.6116870     0.0446410
  C       -0.6915030     0.7929470     0.5540020
  C        2.9119880    -0.6669770    -0.0005940
  C       -1.6259000    -0.2196380    -0.0638170
  H        1.5906630    -0.3916430     1.7048170
  H        0.9378800    -1.4511620     0.4690430
  H       -0.7449460     0.6872940     1.6445860
  H       -1.0362610     1.7983420     0.2961770
  H        3.4930330     0.2441750     0.1549910
  H        3.4532110    -1.5066350     0.4428820
  H        2.8367130    -0.8315610    -1.0772290
  H       -3.4634493    -0.6471719    -0.1985399
units angstrom
no_reorient  #important for SAPT in psi4, default
symmetry c1  #important for SAPT in psi4, default
}

set PROPERTIES_ORIGIN ["COM"]
properties('MP2/aug-cc-pvtz', properties = ['dipole'])
--------------------------------------------------------------------------

    Molecular point group: c1
  Charge       = 0
  Multiplicity = 1
  Basis Set: AUG-CC-PVTZ
    Blend: AUG-CC-PVTZ
  Basis Set: (AUG-CC-PVTZ AUX)
    Blend: AUG-CC-PVTZ-JKFIT

    Orbital Energies [Eh]
    ---------------------

    Doubly Occupied:

       1A    -20.634150     2A    -20.570273     3A    -20.556627
       4A    -11.413481     5A    -11.344295     6A    -11.271727
       7A    -11.242108     8A    -11.217619     9A     -1.475838
      10A     -1.387921    11A     -1.373665    12A     -1.084069
      13A     -1.041107    14A     -0.900489    15A     -0.837215
      16A     -0.741909    17A     -0.717274    18A     -0.706426
      19A     -0.679607    20A     -0.648793    21A     -0.631488
      22A     -0.625111    23A     -0.597208    24A     -0.576530
      25A     -0.525868    26A     -0.517597    27A     -0.515366
      28A     -0.502522    29A     -0.489767    30A     -0.469300
      31A     -0.424426

  @DF-RHF Final Energy:  -418.76588054144310

   => Energetics <=

    Nuclear Repulsion Energy =            371.7111411635704030
    One-Electron Energy =               -1309.5144934462107358
    Two-Electron Energy =                 519.0374717411972370
    Total Energy =                       -418.7658805414431527
  Basis Set: (AUG-CC-PVTZ AUX)
    Blend: AUG-CC-PVTZ-RI
    Molecular point group: c1

    Geometry (in Angstrom), charge = 0, multiplicity = 1:

       Center              X                  Y                   Z               Mass
    ------------   -----------------  -----------------  -----------------  -----------------
         O            1.250121527866     1.368787101731    -0.760187153306    15.994914619570
         O           -2.855959472134     0.044369101731     0.276066846694    15.994914619570
         O           -1.238984472134    -1.189940898269    -0.721834153306    15.994914619570
         C            1.588202527866    -0.556695898269     0.646834846694    12.000000000000
         C            0.793532527866     0.594003101731     0.074120846694    12.000000000000
         C           -0.631027472134     0.775263101731     0.583481846694    12.000000000000
         C            2.972463527866    -0.684660898269     0.028885846694    12.000000000000
         C           -1.565424472134    -0.237321898269    -0.034337153306    12.000000000000
         H            1.651138527866    -0.409326898269     1.734296846694     1.007825032230
         H            0.998355527866    -1.468845898269     0.498522846694     1.007825032230
         H           -0.684470472134     0.669610101731     1.674065846694     1.007825032230
         H           -0.975785472134     1.780658101731     0.325656846694     1.007825032230
         H            3.553508527866     0.226491101731     0.184470846694     1.007825032230
         H            3.513686527866    -1.524318898269     0.472361846694     1.007825032230
         H            2.897188527866    -0.849244898269    -1.047749153306     1.007825032230
         H           -3.402973772134    -0.664855798269    -0.169060053306     1.007825032230

  Basis Set: AUG-CC-PVTZ
    Blend: AUG-CC-PVTZ
  Basis Set: (AUG-CC-PVTZ AUX)
    Blend: AUG-CC-PVTZ-JKFIT
	 Reference Energy          =    -418.7658805414430958 [Eh]
	 Singles Energy            =      -0.0000000000000000 [Eh]
	 Same-Spin Energy          =      -0.4084679723580656 [Eh]
	 Opposite-Spin Energy      =      -1.2873877286886231 [Eh]
	 Correlation Energy        =      -1.6958557010466886 [Eh]
	 Total Energy              =    -420.4617362424897919 [Eh]

	 ================> DF-SCS-MP2 Energies <==================
	-----------------------------------------------------------
	 SCS Same-Spin Scale       =       0.3333333333333333 [-]
	 SCS Opposite-Spin Scale   =       1.2000000000000000 [-]
	 SCS Same-Spin Energy      =      -0.1361559907860219 [Eh]
	 SCS Opposite-Spin Energy  =      -1.5448652744263476 [Eh]
	 SCS Correlation Energy    =      -1.6810212652123695 [Eh]
	 SCS Total Energy          =    -420.4469018066554895 [Eh]
	-----------------------------------------------------------

  Dipole Moment: [D]
     X:    -1.4465      Y:    -0.8100      Z:     2.5744     Total:     3.0620

*** Psi4 exiting successfully. Buy a developer a beer!
