                               Psi4 1.3.2 release

  ==> Input File <==

--------------------------------------------------------------------------
#psi4
#
memory 32 gb

molecule  {
0 1
  O        1.1824347    -1.4000328     0.7800072
  O       -2.8493200    -0.0743410    -0.2921690
  O       -1.2471260     1.2289340     0.6316900
  C        1.6098530     0.5514350    -0.6010430
  C        0.7924890    -0.5949300    -0.0578730
  C       -0.6215985    -0.8086697    -0.5796547
  C        2.9660570     0.6794250     0.0724790
  C       -1.5616300     0.2444870    -0.0131750
  H        1.7167540     0.3993790    -1.6843760
  H        1.0152770     1.4637510    -0.4819620
  H       -0.6366420    -0.6467360    -1.7011060
  H       -0.9720840    -1.7722110    -0.3761960
  H        3.5474250    -0.2360290    -0.0491480
  H        3.5302360     1.5116820    -0.3550310
  H        2.8465530     0.8548240     1.1430380
  H       -3.3901630     0.6286630     0.1252190
units angstrom
no_reorient  #important for SAPT in psi4, default
symmetry c1  #important for SAPT in psi4, default
}

set PROPERTIES_ORIGIN ["COM"]
properties('MP2/aug-cc-pvtz', properties = ['dipole'])
--------------------------------------------------------------------------

    Molecular point group: c1
  Charge       = 0
  Multiplicity = 1
  Basis Set: AUG-CC-PVTZ
    Blend: AUG-CC-PVTZ
  Basis Set: (AUG-CC-PVTZ AUX)
    Blend: AUG-CC-PVTZ-JKFIT

    Orbital Energies [Eh]
    ---------------------

    Doubly Occupied:

       1A    -20.631694     2A    -20.569938     3A    -20.555107
       4A    -11.412807     5A    -11.343431     6A    -11.269304
       7A    -11.244417     8A    -11.219169     9A     -1.478351
      10A     -1.388883    11A     -1.375124    12A     -1.082422
      13A     -1.042837    14A     -0.901574    15A     -0.840236
      16A     -0.742930    17A     -0.718442    18A     -0.706914
      19A     -0.676828    20A     -0.651595    21A     -0.633058
      22A     -0.626316    23A     -0.597894    24A     -0.575237
      25A     -0.529789    26A     -0.519714    27A     -0.515777
      28A     -0.502772    29A     -0.490813    30A     -0.467436
      31A     -0.423607

  @DF-RHF Final Energy:  -418.76461899940114

   => Energetics <=

    Nuclear Repulsion Energy =            372.0550385701309324
    One-Electron Energy =               -1310.1704817227789590
    Two-Electron Energy =                 519.3508241532468901
    Total Energy =                       -418.7646189994011365
  Basis Set: (AUG-CC-PVTZ AUX)
    Blend: AUG-CC-PVTZ-RI
    Molecular point group: c1

    Geometry (in Angstrom), charge = 0, multiplicity = 1:

       Center              X                  Y                   Z               Mass
    ------------   -----------------  -----------------  -----------------  -----------------
         O            1.188208558002    -1.392757691912     0.776995063925    15.994914619570
         O           -2.843546141998    -0.067065891912    -0.295181136075    15.994914619570
         O           -1.241352141998     1.236209108088     0.628677863925    15.994914619570
         C            1.615626858002     0.558710108088    -0.604055136075    12.000000000000
         C            0.798262858002    -0.587654891912    -0.060885136075    12.000000000000
         C           -0.615824641998    -0.801394591912    -0.582666836075    12.000000000000
         C            2.971830858002     0.686700108088     0.069466863925    12.000000000000
         C           -1.555856141998     0.251762108088    -0.016187136075    12.000000000000
         H            1.722527858002     0.406654108088    -1.687388136075     1.007825032230
         H            1.021050858002     1.471026108088    -0.484974136075     1.007825032230
         H           -0.630868141998    -0.639460891912    -1.704118136075     1.007825032230
         H           -0.966310141998    -1.764935891912    -0.379208136075     1.007825032230
         H            3.553198858002    -0.228753891912    -0.052160136075     1.007825032230
         H            3.536009858002     1.518957108088    -0.358043136075     1.007825032230
         H            2.852326858002     0.862099108088     1.140025863925     1.007825032230
         H           -3.384389141998     0.635938108088     0.122206863925     1.007825032230

  Basis Set: AUG-CC-PVTZ
    Blend: AUG-CC-PVTZ
  Basis Set: (AUG-CC-PVTZ AUX)
    Blend: AUG-CC-PVTZ-JKFIT
	 Reference Energy          =    -418.7646189994011365 [Eh]
	 Singles Energy            =      -0.0000000000000000 [Eh]
	 Same-Spin Energy          =      -0.4080616695968273 [Eh]
	 Opposite-Spin Energy      =      -1.2864222290645084 [Eh]
	 Correlation Energy        =      -1.6944838986613358 [Eh]
	 Total Energy              =    -420.4591028980624969 [Eh]

	 ================> DF-SCS-MP2 Energies <==================
	-----------------------------------------------------------
	 SCS Same-Spin Scale       =       0.3333333333333333 [-]
	 SCS Opposite-Spin Scale   =       1.2000000000000000 [-]
	 SCS Same-Spin Energy      =      -0.1360205565322758 [Eh]
	 SCS Opposite-Spin Energy  =      -1.5437066748774100 [Eh]
	 SCS Correlation Energy    =      -1.6797272314096858 [Eh]
	 SCS Total Energy          =    -420.4443462308108224 [Eh]
	-----------------------------------------------------------

  Dipole Moment: [D]
     X:    -1.2316      Y:     0.8444      Z:    -2.5389     Total:     2.9455

*** Psi4 exiting successfully. Buy a developer a beer!
