                               Psi4 1.3.2 release

  ==> Input File <==

--------------------------------------------------------------------------
#psi4
#
memory 32 gb

molecule  {
0 1
  O        1.2197630    -1.3791890     0.7815710
  O       -2.8493200    -0.0743410    -0.2921690
  O       -1.2471260     1.2289340     0.6316900
  C        1.6098530     0.5514350    -0.6010430
  C        0.7924890    -0.5949300    -0.0578730
  C       -0.6155180    -0.7660970    -0.6108670
  C        2.9660570     0.6794250     0.0724790
  C       -1.5159449     0.3016690    -0.0427553
  H        1.7167540     0.3993790    -1.6843760
  H        1.0152770     1.4637510    -0.4819620
  H       -0.6366420    -0.6467360    -1.7011060
  H       -0.9271548    -1.7931699    -0.4047629
  H        3.5474250    -0.2360290    -0.0491480
  H        3.5302360     1.5116820    -0.3550310
  H        2.8465530     0.8548240     1.1430380
  H       -3.3901630     0.6286630     0.1252190
units angstrom
no_reorient  #important for SAPT in psi4, default
symmetry c1  #important for SAPT in psi4, default
}

set PROPERTIES_ORIGIN ["COM"]
properties('MP2/aug-cc-pvtz', properties = ['dipole'])
--------------------------------------------------------------------------

    Molecular point group: c1
  Charge       = 0
  Multiplicity = 1
  Basis Set: AUG-CC-PVTZ
    Blend: AUG-CC-PVTZ
  Basis Set: (AUG-CC-PVTZ AUX)
    Blend: AUG-CC-PVTZ-JKFIT

    Orbital Energies [Eh]
    ---------------------

    Doubly Occupied:

       1A    -20.617688     2A    -20.581547     3A    -20.557999
       4A    -11.412242     5A    -11.344426     6A    -11.272028
       7A    -11.243246     8A    -11.218626     9A     -1.480017
      10A     -1.389869    11A     -1.380377    12A     -1.087051
      13A     -1.042520    14A     -0.899309    15A     -0.828959
      16A     -0.743687    17A     -0.719723    18A     -0.709638
      19A     -0.680021    20A     -0.644583    21A     -0.633456
      22A     -0.625357    23A     -0.607248    24A     -0.573283
      25A     -0.526211    26A     -0.520806    27A     -0.517572
      28A     -0.510517    29A     -0.495102    30A     -0.472172
      31A     -0.424684

  @DF-RHF Final Energy:  -418.76286365272415

   => Energetics <=

    Nuclear Repulsion Energy =            372.4859401095631597
    One-Electron Energy =               -1310.9776765054930365
    Two-Electron Energy =                 519.7288727432056703
    Total Energy =                       -418.7628636527241497
  Basis Set: (AUG-CC-PVTZ AUX)
    Blend: AUG-CC-PVTZ-RI
    Molecular point group: c1

    Geometry (in Angstrom), charge = 0, multiplicity = 1:

       Center              X                  Y                   Z               Mass
    ------------   -----------------  -----------------  -----------------  -----------------
         O            1.214648793709    -1.384920034438     0.784877740027    15.994914619570
         O           -2.854434206291    -0.080072034438    -0.288862259973    15.994914619570
         O           -1.252240206291     1.223202965562     0.634996740027    15.994914619570
         C            1.604738793709     0.545703965562    -0.597736259973    12.000000000000
         C            0.787374793709    -0.600661034438    -0.054566259973    12.000000000000
         C           -0.620632206291    -0.771828034438    -0.607560259973    12.000000000000
         C            2.960942793709     0.673693965562     0.075785740027    12.000000000000
         C           -1.521059106291     0.295937965562    -0.039448559973    12.000000000000
         H            1.711639793709     0.393647965562    -1.681069259973     1.007825032230
         H            1.010162793709     1.458019965562    -0.478655259973     1.007825032230
         H           -0.641756206291    -0.652467034438    -1.697799259973     1.007825032230
         H           -0.932269006291    -1.798900934438    -0.401456159973     1.007825032230
         H            3.542310793709    -0.241760034438    -0.045841259973     1.007825032230
         H            3.525121793709     1.505950965562    -0.351724259973     1.007825032230
         H            2.841438793709     0.849092965562     1.146344740027     1.007825032230
         H           -3.395277206291     0.622931965562     0.128525740027     1.007825032230

  Basis Set: AUG-CC-PVTZ
    Blend: AUG-CC-PVTZ
  Basis Set: (AUG-CC-PVTZ AUX)
    Blend: AUG-CC-PVTZ-JKFIT
	 Reference Energy          =    -418.7628636527241497 [Eh]
	 Singles Energy            =      -0.0000000000000000 [Eh]
	 Same-Spin Energy          =      -0.4080254053954381 [Eh]
	 Opposite-Spin Energy      =      -1.2864724836663133 [Eh]
	 Correlation Energy        =      -1.6944978890617515 [Eh]
	 Total Energy              =    -420.4573615417859287 [Eh]

	 ================> DF-SCS-MP2 Energies <==================
	-----------------------------------------------------------
	 SCS Same-Spin Scale       =       0.3333333333333333 [-]
	 SCS Opposite-Spin Scale   =       1.2000000000000000 [-]
	 SCS Same-Spin Energy      =      -0.1360084684651460 [Eh]
	 SCS Opposite-Spin Energy  =      -1.5437669803995759 [Eh]
	 SCS Correlation Energy    =      -1.6797754488647221 [Eh]
	 SCS Total Energy          =    -420.4426391015888953 [Eh]
	-----------------------------------------------------------

  Dipole Moment: [D]
     X:    -0.9186      Y:     0.9999      Z:    -2.4798     Total:     2.8272

*** Psi4 exiting successfully. Buy a developer a beer!
