                               Psi4 1.3.2 release

  ==> Input File <==

--------------------------------------------------------------------------
#psi4
#
memory 32 gb

molecule  {
0 1
  O        1.2197630    -1.3791890     0.7815710
  O       -2.8493200    -0.0743410    -0.2921690
  O       -1.2471260     1.2289340     0.6316900
  C        1.6098530     0.5514350    -0.6010430
  C        0.8319037    -0.6276426    -0.0701560
  C       -0.6155180    -0.7660970    -0.6108670
  C        2.9660570     0.6794250     0.0724790
  C       -1.5616300     0.2444870    -0.0131750
  H        1.7167540     0.3993790    -1.6843760
  H        1.0438578     1.4836388    -0.4977623
  H       -0.6366420    -0.6467360    -1.7011060
  H       -0.9720840    -1.7722110    -0.3761960
  H        3.5474250    -0.2360290    -0.0491480
  H        3.5302360     1.5116820    -0.3550310
  H        2.8465530     0.8548240     1.1430380
  H       -3.3901630     0.6286630     0.1252190
units angstrom
no_reorient  #important for SAPT in psi4, default
symmetry c1  #important for SAPT in psi4, default
}

set PROPERTIES_ORIGIN ["COM"]
properties('MP2/aug-cc-pvtz', properties = ['dipole'])
--------------------------------------------------------------------------

    Molecular point group: c1
  Charge       = 0
  Multiplicity = 1
  Basis Set: AUG-CC-PVTZ
    Blend: AUG-CC-PVTZ
  Basis Set: (AUG-CC-PVTZ AUX)
    Blend: AUG-CC-PVTZ-JKFIT

    Orbital Energies [Eh]
    ---------------------

    Doubly Occupied:

       1A    -20.631356     2A    -20.567964     3A    -20.559907
       4A    -11.411422     5A    -11.343293     6A    -11.268715
       7A    -11.240744     8A    -11.216971     9A     -1.477579
      10A     -1.407086    11A     -1.374108    12A     -1.080186
      13A     -1.040192    14A     -0.899619    15A     -0.836907
      16A     -0.743011    17A     -0.718755    18A     -0.704947
      19A     -0.680874    20A     -0.649371    21A     -0.632051
      22A     -0.630038    23A     -0.596644    24A     -0.577644
      25A     -0.527707    26A     -0.525042    27A     -0.515849
      28A     -0.501972    29A     -0.491327    30A     -0.468508
      31A     -0.420769

  @DF-RHF Final Energy:  -418.76817786867963

   => Energetics <=

    Nuclear Repulsion Energy =            372.0246724609557418
    One-Electron Energy =               -1310.1045842667044781
    Two-Electron Energy =                 519.3117339370691070
    Total Energy =                       -418.7681778686795724
  Basis Set: (AUG-CC-PVTZ AUX)
    Blend: AUG-CC-PVTZ-RI
    Molecular point group: c1

    Geometry (in Angstrom), charge = 0, multiplicity = 1:

       Center              X                  Y                   Z               Mass
    ------------   -----------------  -----------------  -----------------  -----------------
         O            1.215439170494    -1.375979124319     0.782978221337    15.994914619570
         O           -2.853643829506    -0.071131124319    -0.290761778663    15.994914619570
         O           -1.251449829506     1.232143875681     0.633097221337    15.994914619570
         C            1.605529170494     0.554644875681    -0.599635778663    12.000000000000
         C            0.827579870494    -0.624432724319    -0.068748778663    12.000000000000
         C           -0.619841829506    -0.762887124319    -0.609459778663    12.000000000000
         C            2.961733170494     0.682634875681     0.073886221337    12.000000000000
         C           -1.565953829506     0.247696875681    -0.011767778663    12.000000000000
         H            1.712430170494     0.402588875681    -1.682968778663     1.007825032230
         H            1.039533970494     1.486848675681    -0.496355078663     1.007825032230
         H           -0.640965829506    -0.643526124319    -1.699698778663     1.007825032230
         H           -0.976407829506    -1.769001124319    -0.374788778663     1.007825032230
         H            3.543101170494    -0.232819124319    -0.047740778663     1.007825032230
         H            3.525912170494     1.514891875681    -0.353623778663     1.007825032230
         H            2.842229170494     0.858033875681     1.144445221337     1.007825032230
         H           -3.394486829506     0.631872875681     0.126626221337     1.007825032230

  Basis Set: AUG-CC-PVTZ
    Blend: AUG-CC-PVTZ
  Basis Set: (AUG-CC-PVTZ AUX)
    Blend: AUG-CC-PVTZ-JKFIT
	 Reference Energy          =    -418.7681778686796292 [Eh]
	 Singles Energy            =      -0.0000000000000000 [Eh]
	 Same-Spin Energy          =      -0.4074754527628214 [Eh]
	 Opposite-Spin Energy      =      -1.2851307746011746 [Eh]
	 Correlation Energy        =      -1.6926062273639961 [Eh]
	 Total Energy              =    -420.4607840960436533 [Eh]

	 ================> DF-SCS-MP2 Energies <==================
	-----------------------------------------------------------
	 SCS Same-Spin Scale       =       0.3333333333333333 [-]
	 SCS Opposite-Spin Scale   =       1.2000000000000000 [-]
	 SCS Same-Spin Energy      =      -0.1358251509209405 [Eh]
	 SCS Opposite-Spin Energy  =      -1.5421569295214095 [Eh]
	 SCS Correlation Energy    =      -1.6779820804423500 [Eh]
	 SCS Total Energy          =    -420.4461599491219772 [Eh]
	-----------------------------------------------------------

  Dipole Moment: [D]
     X:    -1.1880      Y:     0.7310      Z:    -2.4984     Total:     2.8615

*** Psi4 exiting successfully. Buy a developer a beer!
