                               Psi4 1.3.2 release

  ==> Input File <==

--------------------------------------------------------------------------
#psi4
#
memory 32 gb

molecule  {
0 1
  O        1.2197630    -1.3791890     0.7815710
  O       -2.8493200    -0.0743410    -0.2921690
  O       -1.2471260     1.2289340     0.6316900
  C        1.6098530     0.5514350    -0.6010430
  C        0.7731522    -0.5780474    -0.0519788
  C       -0.6155180    -0.7660970    -0.6108670
  C        2.9660570     0.6794250     0.0724790
  C       -1.5616300     0.2444870    -0.0131750
  H        1.7167540     0.3993790    -1.6843760
  H        1.0012561     1.4533887    -0.4741150
  H       -0.6366420    -0.6467360    -1.7011060
  H       -0.9720840    -1.7722110    -0.3761960
  H        3.5474250    -0.2360290    -0.0491480
  H        3.5302360     1.5116820    -0.3550310
  H        2.8465530     0.8548240     1.1430380
  H       -3.3901630     0.6286630     0.1252190
units angstrom
no_reorient  #important for SAPT in psi4, default
symmetry c1  #important for SAPT in psi4, default
}

set PROPERTIES_ORIGIN ["COM"]
properties('MP2/aug-cc-pvtz', properties = ['dipole'])
--------------------------------------------------------------------------

    Molecular point group: c1
  Charge       = 0
  Multiplicity = 1
  Basis Set: AUG-CC-PVTZ
    Blend: AUG-CC-PVTZ
  Basis Set: (AUG-CC-PVTZ AUX)
    Blend: AUG-CC-PVTZ-JKFIT

    Orbital Energies [Eh]
    ---------------------

    Doubly Occupied:

       1A    -20.633611     2A    -20.571613     3A    -20.555249
       4A    -11.414396     5A    -11.344704     6A    -11.272426
       7A    -11.241664     8A    -11.217242     9A     -1.480491
      10A     -1.381250    11A     -1.375507    12A     -1.087767
      13A     -1.042719    14A     -0.902756    15A     -0.841059
      16A     -0.742913    17A     -0.720241    18A     -0.708904
      19A     -0.681133    20A     -0.647704    21A     -0.632561
      22A     -0.624297    23A     -0.599501    24A     -0.576447
      25A     -0.525602    26A     -0.517244    27A     -0.513385
      28A     -0.503221    29A     -0.490156    30A     -0.468401
      31A     -0.425952

  @DF-RHF Final Energy:  -418.76545572291269

   => Energetics <=

    Nuclear Repulsion Energy =            372.3576766252851939
    One-Electron Energy =               -1310.7660346167338048
    Two-Electron Energy =                 519.6429022685359769
    Total Energy =                       -418.7654557229126340
  Basis Set: (AUG-CC-PVTZ AUX)
    Blend: AUG-CC-PVTZ-RI
    Molecular point group: c1

    Geometry (in Angstrom), charge = 0, multiplicity = 1:

       Center              X                  Y                   Z               Mass
    ------------   -----------------  -----------------  -----------------  -----------------
         O            1.221884411144    -1.380844859044     0.780893221092    15.994914619570
         O           -2.847198588856    -0.075996859044    -0.292846778908    15.994914619570
         O           -1.245004588856     1.227278140956     0.631012221092    15.994914619570
         C            1.611974411144     0.549779140956    -0.601720778908    12.000000000000
         C            0.775273611144    -0.579703259044    -0.052656578908    12.000000000000
         C           -0.613396588856    -0.767752859044    -0.611544778908    12.000000000000
         C            2.968178411144     0.677769140956     0.071801221092    12.000000000000
         C           -1.559508588856     0.242831140956    -0.013852778908    12.000000000000
         H            1.718875411144     0.397723140956    -1.685053778908     1.007825032230
         H            1.003377511144     1.451732840956    -0.474792778908     1.007825032230
         H           -0.634520588856    -0.648391859044    -1.701783778908     1.007825032230
         H           -0.969962588856    -1.773866859044    -0.376873778908     1.007825032230
         H            3.549546411144    -0.237684859044    -0.049825778908     1.007825032230
         H            3.532357411144     1.510026140956    -0.355708778908     1.007825032230
         H            2.848674411144     0.853168140956     1.142360221092     1.007825032230
         H           -3.388041588856     0.627007140956     0.124541221092     1.007825032230

  Basis Set: AUG-CC-PVTZ
    Blend: AUG-CC-PVTZ
  Basis Set: (AUG-CC-PVTZ AUX)
    Blend: AUG-CC-PVTZ-JKFIT
	 Reference Energy          =    -418.7654557229126908 [Eh]
	 Singles Energy            =      -0.0000000000000000 [Eh]
	 Same-Spin Energy          =      -0.4087279975964897 [Eh]
	 Opposite-Spin Energy      =      -1.2875559704171435 [Eh]
	 Correlation Energy        =      -1.6962839680136332 [Eh]
	 Total Energy              =    -420.4617396909263221 [Eh]

	 ================> DF-SCS-MP2 Energies <==================
	-----------------------------------------------------------
	 SCS Same-Spin Scale       =       0.3333333333333333 [-]
	 SCS Opposite-Spin Scale   =       1.2000000000000000 [-]
	 SCS Same-Spin Energy      =      -0.1362426658654965 [Eh]
	 SCS Opposite-Spin Energy  =      -1.5450671645005722 [Eh]
	 SCS Correlation Energy    =      -1.6813098303660687 [Eh]
	 SCS Total Energy          =    -420.4467655532787376 [Eh]
	-----------------------------------------------------------

  Dipole Moment: [D]
     X:    -1.4231      Y:     0.8062      Z:    -2.5855     Total:     3.0594

*** Psi4 exiting successfully. Buy a developer a beer!
