                               Psi4 1.4a3.dev225

  ==> Input File <==

--------------------------------------------------------------------------
#psi4
#
memory 32 gb

molecule  {
0 1
  O        1.1896460     1.3864710    -0.7896670
  O       -2.9164350     0.0620530     0.2465870
  O       -1.2994600    -1.1722570    -0.7513140
  C        1.5277270    -0.5390120     0.6173550
  C        0.7330570     0.6116870     0.0446410
  C       -0.6728044     0.7905678     0.5473162
  C        2.9119880    -0.6669770    -0.0005940
  C       -1.6259000    -0.2196380    -0.0638170
  H        1.5906630    -0.3916430     1.7048170
  H        0.9378800    -1.4511620     0.4690430
  H       -0.7449460     0.6872940     1.6445860
  H       -1.0362610     1.7983420     0.2961770
  H        3.4930330     0.2441750     0.1549910
  H        3.4532110    -1.5066350     0.4428820
  H        2.8367130    -0.8315610    -1.0772290
  H       -3.4525110    -0.6329900    -0.1896390
units angstrom
no_reorient  #important for SAPT in psi4, default
symmetry c1  #important for SAPT in psi4, default
}

set PROPERTIES_ORIGIN ["COM"]
properties('MP2/aug-cc-pvtz', properties = ['dipole'])
--------------------------------------------------------------------------

    Molecular point group: c1
  Charge       = 0
  Multiplicity = 1
  Basis Set: AUG-CC-PVTZ
    Blend: AUG-CC-PVTZ
  Basis Set: (AUG-CC-PVTZ AUX)
    Blend: AUG-CC-PVTZ-JKFIT

    Orbital Energies [Eh]
    ---------------------

    Doubly Occupied:

       1A    -20.633773     2A    -20.570346     3A    -20.556551
       4A    -11.414473     5A    -11.343315     6A    -11.272663
       7A    -11.241998     8A    -11.217572     9A     -1.478740
      10A     -1.388536    11A     -1.375588    12A     -1.085567
      13A     -1.040953    14A     -0.901818    15A     -0.840825
      16A     -0.743022    17A     -0.719583    18A     -0.706517
      19A     -0.679411    20A     -0.650753    21A     -0.632034
      22A     -0.626985    23A     -0.597395    24A     -0.575176
      25A     -0.525146    26A     -0.517681    27A     -0.515272
      28A     -0.502845    29A     -0.489992    30A     -0.468452
      31A     -0.426295

  @DF-RHF Final Energy:  -418.76708731264307

   => Energetics <=

    Nuclear Repulsion Energy =            371.9969563375713619
    One-Electron Energy =               -1310.0495355057180404
    Two-Electron Energy =                 519.2854918555035511
    Total Energy =                       -418.7670873126430706
  Basis Set: (AUG-CC-PVTZ AUX)
    Blend: AUG-CC-PVTZ-RI
    Molecular point group: c1

    Geometry (in Angstrom), charge = 0, multiplicity = 1:

       Center              X                  Y                   Z               Mass
    ------------   -----------------  -----------------  -----------------  -----------------
         O            1.248092984306     1.368909961296    -0.759573101768    15.994914619570
         O           -2.857988015694     0.044491961296     0.276680898232    15.994914619570
         O           -1.241013015694    -1.189818038704    -0.721220101768    15.994914619570
         C            1.586173984306    -0.556573038704     0.647448898232    12.000000000000
         C            0.791503984306     0.594125961296     0.074734898232    12.000000000000
         C           -0.614357415694     0.773006761296     0.577410098232    12.000000000000
         C            2.970434984306    -0.684538038704     0.029499898232    12.000000000000
         C           -1.567453015694    -0.237199038704    -0.033723101768    12.000000000000
         H            1.649109984306    -0.409204038704     1.734910898232     1.007825032230
         H            0.996326984306    -1.468723038704     0.499136898232     1.007825032230
         H           -0.686499015694     0.669732961296     1.674679898232     1.007825032230
         H           -0.977814015694     1.780780961296     0.326270898232     1.007825032230
         H            3.551479984306     0.226613961296     0.185084898232     1.007825032230
         H            3.511657984306    -1.524196038704     0.472975898232     1.007825032230
         H            2.895159984306    -0.849122038704    -1.047135101768     1.007825032230
         H           -3.394064015694    -0.650551038704    -0.159545101768     1.007825032230

  Basis Set: AUG-CC-PVTZ
    Blend: AUG-CC-PVTZ
  Basis Set: (AUG-CC-PVTZ AUX)
    Blend: AUG-CC-PVTZ-JKFIT
	 Reference Energy          =    -418.7670873126430706 [Eh]
	 Singles Energy            =      -0.0000000000000000 [Eh]
	 Same-Spin Energy          =      -0.4082682897783793 [Eh]
	 Opposite-Spin Energy      =      -1.2868230321424279 [Eh]
	 Correlation Energy        =      -1.6950913219208072 [Eh]
	 Total Energy              =    -420.4621786345638839 [Eh]

	 ================> DF-SCS-MP2 Energies <==================
	-----------------------------------------------------------
	 SCS Same-Spin Scale       =       0.3333333333333333 [-]
	 SCS Opposite-Spin Scale   =       1.2000000000000000 [-]
	 SCS Same-Spin Energy      =      -0.1360894299261264 [Eh]
	 SCS Opposite-Spin Energy  =      -1.5441876385709135 [Eh]
	 SCS Correlation Energy    =      -1.6802770684970398 [Eh]
	 SCS Total Energy          =    -420.4473643811401189 [Eh]
	-----------------------------------------------------------

  Dipole Moment: [D]
     X:    -1.4605      Y:    -0.7959      Z:     2.5881     Total:     3.0765

*** Psi4 exiting successfully. Buy a developer a beer!
