                               Psi4 1.3.2 release

  ==> Input File <==

--------------------------------------------------------------------------
#psi4
#
memory 32 gb

molecule  {
0 1
  O        1.2383352    -1.3685753     0.7817612
  O       -2.8493200    -0.0743410    -0.2921690
  O       -1.2471260     1.2289340     0.6316900
  C        1.6299110     0.5441436    -0.5856096
  C        0.7924890    -0.5949300    -0.0578730
  C       -0.6155180    -0.7660970    -0.6108670
  C        2.9660570     0.6794250     0.0724790
  C       -1.5616300     0.2444870    -0.0131750
  H        1.7167540     0.3993790    -1.6843760
  H        1.0152770     1.4637510    -0.4819620
  H       -0.6366420    -0.6467360    -1.7011060
  H       -0.9720840    -1.7722110    -0.3761960
  H        3.5474250    -0.2360290    -0.0491480
  H        3.5302360     1.5116820    -0.3550310
  H        2.8465530     0.8548240     1.1430380
  H       -3.3901630     0.6286630     0.1252190
units angstrom
no_reorient  #important for SAPT in psi4, default
symmetry c1  #important for SAPT in psi4, default
}

set PROPERTIES_ORIGIN ["COM"]
properties('MP2/aug-cc-pvtz', properties = ['dipole'])
--------------------------------------------------------------------------

    Molecular point group: c1
  Charge       = 0
  Multiplicity = 1
  Basis Set: AUG-CC-PVTZ
    Blend: AUG-CC-PVTZ
  Basis Set: (AUG-CC-PVTZ AUX)
    Blend: AUG-CC-PVTZ-JKFIT

    Orbital Energies [Eh]
    ---------------------

    Doubly Occupied:

       1A    -20.633407     2A    -20.570830     3A    -20.555708
       4A    -11.414044     5A    -11.343673     6A    -11.273124
       7A    -11.241537     8A    -11.215402     9A     -1.480020
      10A     -1.388718    11A     -1.376432    12A     -1.085400
      13A     -1.044841    14A     -0.901676    15A     -0.839649
      16A     -0.741498    17A     -0.719977    18A     -0.707773
      19A     -0.681156    20A     -0.649362    21A     -0.630704
      22A     -0.626311    23A     -0.598771    24A     -0.578082
      25A     -0.530320    26A     -0.518633    27A     -0.514373
      28A     -0.502265    29A     -0.487984    30A     -0.467625
      31A     -0.424291

  @DF-RHF Final Energy:  -418.76663839910026

   => Energetics <=

    Nuclear Repulsion Energy =            372.3558451810856695
    One-Electron Energy =               -1310.7577926502854098
    Two-Electron Energy =                 519.6353090700995381
    Total Energy =                       -418.7666383991002022
  Basis Set: (AUG-CC-PVTZ AUX)
    Blend: AUG-CC-PVTZ-RI
    Molecular point group: c1

    Geometry (in Angstrom), charge = 0, multiplicity = 1:

       Center              X                  Y                   Z               Mass
    ------------   -----------------  -----------------  -----------------  -----------------
         O            1.233701359887    -1.369284309375     0.780138942521    15.994914619570
         O           -2.853953840113    -0.075050009375    -0.293791257479    15.994914619570
         O           -1.251759840113     1.228224990625     0.630067742521    15.994914619570
         C            1.625277159887     0.543434590625    -0.587231857479    12.000000000000
         C            0.787855159887    -0.595639009375    -0.059495257479    12.000000000000
         C           -0.620151840113    -0.766806009375    -0.612489257479    12.000000000000
         C            2.961423159887     0.678715990625     0.070856742521    12.000000000000
         C           -1.566263840113     0.243777990625    -0.014797257479    12.000000000000
         H            1.712120159887     0.398669990625    -1.685998257479     1.007825032230
         H            1.010643159887     1.463041990625    -0.483584257479     1.007825032230
         H           -0.641275840113    -0.647445009375    -1.702728257479     1.007825032230
         H           -0.976717840113    -1.772920009375    -0.377818257479     1.007825032230
         H            3.542791159887    -0.236738009375    -0.050770257479     1.007825032230
         H            3.525602159887     1.510972990625    -0.356653257479     1.007825032230
         H            2.841919159887     0.854114990625     1.141415742521     1.007825032230
         H           -3.394796840113     0.627953990625     0.123596742521     1.007825032230

  Basis Set: AUG-CC-PVTZ
    Blend: AUG-CC-PVTZ
  Basis Set: (AUG-CC-PVTZ AUX)
    Blend: AUG-CC-PVTZ-JKFIT
	 Reference Energy          =    -418.7666383991002590 [Eh]
	 Singles Energy            =      -0.0000000000000000 [Eh]
	 Same-Spin Energy          =      -0.4084622932082982 [Eh]
	 Opposite-Spin Energy      =      -1.2867974197029719 [Eh]
	 Correlation Energy        =      -1.6952597129112701 [Eh]
	 Total Energy              =    -420.4618981120115109 [Eh]

	 ================> DF-SCS-MP2 Energies <==================
	-----------------------------------------------------------
	 SCS Same-Spin Scale       =       0.3333333333333333 [-]
	 SCS Opposite-Spin Scale   =       1.2000000000000000 [-]
	 SCS Same-Spin Energy      =      -0.1361540977360994 [Eh]
	 SCS Opposite-Spin Energy  =      -1.5441569036435663 [Eh]
	 SCS Correlation Energy    =      -1.6803110013796656 [Eh]
	 SCS Total Energy          =    -420.4469494004799230 [Eh]
	-----------------------------------------------------------

  Dipole Moment: [D]
     X:    -1.4022      Y:     0.7657      Z:    -2.5534     Total:     3.0120

*** Psi4 exiting successfully. Buy a developer a beer!
