                               Psi4 1.3.2 release

  ==> Input File <==

--------------------------------------------------------------------------
#psi4
#
memory 32 gb

molecule  {
0 1
  O        1.2104780    -1.3844905     0.7812759
  O       -2.8493200    -0.0743410    -0.2921690
  O       -1.2471260     1.2289340     0.6316900
  C        1.6098530     0.5514350    -0.6010430
  C        0.7924890    -0.5949300    -0.0578730
  C       -0.6171993    -0.7767618    -0.6031256
  C        2.9660570     0.6794250     0.0724790
  C       -1.5616300     0.2444870    -0.0131750
  H        1.7167540     0.3993790    -1.6843760
  H        1.0152770     1.4637510    -0.4819620
  H       -0.6366420    -0.6467360    -1.7011060
  H       -0.9720840    -1.7722110    -0.3761960
  H        3.5474250    -0.2360290    -0.0491480
  H        3.5302360     1.5116820    -0.3550310
  H        2.8465530     0.8548240     1.1430380
  H       -3.3901630     0.6286630     0.1252190
units angstrom
no_reorient  #important for SAPT in psi4, default
symmetry c1  #important for SAPT in psi4, default
}

set PROPERTIES_ORIGIN ["COM"]
properties('MP2/aug-cc-pvtz', properties = ['dipole'])
--------------------------------------------------------------------------

    Molecular point group: c1
  Charge       = 0
  Multiplicity = 1
  Basis Set: AUG-CC-PVTZ
    Blend: AUG-CC-PVTZ
  Basis Set: (AUG-CC-PVTZ AUX)
    Blend: AUG-CC-PVTZ-JKFIT

    Orbital Energies [Eh]
    ---------------------

    Doubly Occupied:

       1A    -20.632584     2A    -20.570275     3A    -20.556311
       4A    -11.413235     5A    -11.343844     6A    -11.270694
       7A    -11.242039     8A    -11.217627     9A     -1.479234
      10A     -1.388925    11A     -1.375795    12A     -1.084367
      13A     -1.042228    14A     -0.901620    15A     -0.839836
      16A     -0.742596    17A     -0.719471    18A     -0.707109
      19A     -0.680065    20A     -0.648974    21A     -0.632426
      22A     -0.626239    23A     -0.598313    24A     -0.577022
      25A     -0.526966    26A     -0.518706    27A     -0.515420
      28A     -0.502914    29A     -0.490808    30A     -0.468615
      31A     -0.424508

  @DF-RHF Final Energy:  -418.76778999366803

   => Energetics <=

    Nuclear Repulsion Energy =            372.2000204339673815
    One-Electron Energy =               -1310.4580902008324301
    Two-Electron Energy =                 519.4902797731970168
    Total Energy =                       -418.7677899936679751
  Basis Set: (AUG-CC-PVTZ AUX)
    Blend: AUG-CC-PVTZ-RI
    Molecular point group: c1

    Geometry (in Angstrom), charge = 0, multiplicity = 1:

       Center              X                  Y                   Z               Mass
    ------------   -----------------  -----------------  -----------------  -----------------
         O            1.211931719588    -1.382657072343     0.780515931381    15.994914619570
         O           -2.847866280412    -0.072507572343    -0.292928968619    15.994914619570
         O           -1.245672280412     1.230767427657     0.630930031381    15.994914619570
         C            1.611306719588     0.553268427657    -0.601802968619    12.000000000000
         C            0.793942719588    -0.593096572343    -0.058632968619    12.000000000000
         C           -0.615745580412    -0.774928372343    -0.603885568619    12.000000000000
         C            2.967510719588     0.681258427657     0.071719031381    12.000000000000
         C           -1.560176280412     0.246320427657    -0.013934968619    12.000000000000
         H            1.718207719588     0.401212427657    -1.685135968619     1.007825032230
         H            1.016730719588     1.465584427657    -0.482721968619     1.007825032230
         H           -0.635188280412    -0.644902572343    -1.701865968619     1.007825032230
         H           -0.970630280412    -1.770377572343    -0.376955968619     1.007825032230
         H            3.548878719588    -0.234195572343    -0.049907968619     1.007825032230
         H            3.531689719588     1.513515427657    -0.355790968619     1.007825032230
         H            2.848006719588     0.856657427657     1.142278031381     1.007825032230
         H           -3.388709280412     0.630496427657     0.124459031381     1.007825032230

  Basis Set: AUG-CC-PVTZ
    Blend: AUG-CC-PVTZ
  Basis Set: (AUG-CC-PVTZ AUX)
    Blend: AUG-CC-PVTZ-JKFIT
	 Reference Energy          =    -418.7677899936680319 [Eh]
	 Singles Energy            =      -0.0000000000000000 [Eh]
	 Same-Spin Energy          =      -0.4081774772603795 [Eh]
	 Opposite-Spin Energy      =      -1.2865022433764222 [Eh]
	 Correlation Energy        =      -1.6946797206368016 [Eh]
	 Total Energy              =    -420.4624697143048593 [Eh]

	 ================> DF-SCS-MP2 Energies <==================
	-----------------------------------------------------------
	 SCS Same-Spin Scale       =       0.3333333333333333 [-]
	 SCS Opposite-Spin Scale   =       1.2000000000000000 [-]
	 SCS Same-Spin Energy      =      -0.1360591590867931 [Eh]
	 SCS Opposite-Spin Energy  =      -1.5438026920517065 [Eh]
	 SCS Correlation Energy    =      -1.6798618511384997 [Eh]
	 SCS Total Energy          =    -420.4476518448065576 [Eh]
	-----------------------------------------------------------

  Dipole Moment: [D]
     X:    -1.3211      Y:     0.7978      Z:    -2.5541     Total:     2.9842

*** Psi4 exiting successfully. Buy a developer a beer!
