                               Psi4 1.3.2 release

  ==> Input File <==

--------------------------------------------------------------------------
#psi4
#
memory 32 gb

molecule  {
0 1
  O        1.2197630    -1.3791890     0.7815710
  O       -2.8493200    -0.0743410    -0.2921690
  O       -1.2471260     1.2289340     0.6316900
  C        1.6098530     0.5514350    -0.6010430
  C        0.7944510    -0.5845872    -0.0337306
  C       -0.6155180    -0.7660970    -0.6108670
  C        2.9660570     0.6794250     0.0724790
  C       -1.5616300     0.2444870    -0.0131750
  H        1.7270463     0.4155319    -1.6854577
  H        1.0152770     1.4637510    -0.4819620
  H       -0.6366420    -0.6467360    -1.7011060
  H       -0.9720840    -1.7722110    -0.3761960
  H        3.5474250    -0.2360290    -0.0491480
  H        3.5302360     1.5116820    -0.3550310
  H        2.8465530     0.8548240     1.1430380
  H       -3.3901630     0.6286630     0.1252190
units angstrom
no_reorient  #important for SAPT in psi4, default
symmetry c1  #important for SAPT in psi4, default
}

set PROPERTIES_ORIGIN ["COM"]
properties('MP2/aug-cc-pvtz', properties = ['dipole'])
--------------------------------------------------------------------------

    Molecular point group: c1
  Charge       = 0
  Multiplicity = 1
  Basis Set: AUG-CC-PVTZ
    Blend: AUG-CC-PVTZ
  Basis Set: (AUG-CC-PVTZ AUX)
    Blend: AUG-CC-PVTZ-JKFIT

    Orbital Energies [Eh]
    ---------------------

    Doubly Occupied:

       1A    -20.632102     2A    -20.569879     3A    -20.557731
       4A    -11.412311     5A    -11.343705     6A    -11.270376
       7A    -11.240755     8A    -11.216873     9A     -1.478870
      10A     -1.396012    11A     -1.375733    12A     -1.083135
      13A     -1.041413    14A     -0.900332    15A     -0.838008
      16A     -0.743056    17A     -0.719508    18A     -0.706863
      19A     -0.681128    20A     -0.648425    21A     -0.633028
      22A     -0.626824    23A     -0.598059    24A     -0.577509
      25A     -0.526456    26A     -0.519813    27A     -0.516116
      28A     -0.503223    29A     -0.490898    30A     -0.469187
      31A     -0.423139

  @DF-RHF Final Energy:  -418.76831899382921

   => Energetics <=

    Nuclear Repulsion Energy =            372.3553217033680767
    One-Electron Energy =               -1310.7663455407562196
    Two-Electron Energy =                 519.6427048435589313
    Total Energy =                       -418.7683189938292116
  Basis Set: (AUG-CC-PVTZ AUX)
    Blend: AUG-CC-PVTZ-RI
    Molecular point group: c1

    Geometry (in Angstrom), charge = 0, multiplicity = 1:

       Center              X                  Y                   Z               Mass
    ------------   -----------------  -----------------  -----------------  -----------------
         O            1.219470835429    -1.380398877982     0.779083788621    15.994914619570
         O           -2.849612164571    -0.075550877982    -0.294656211379    15.994914619570
         O           -1.247418164571     1.227724122018     0.629202788621    15.994914619570
         C            1.609560835429     0.550225122018    -0.603530211379    12.000000000000
         C            0.794158835429    -0.585797077982    -0.036217811379    12.000000000000
         C           -0.615810164571    -0.767306877982    -0.613354211379    12.000000000000
         C            2.965764835429     0.678215122018     0.069991788621    12.000000000000
         C           -1.561922164571     0.243277122018    -0.015662211379    12.000000000000
         H            1.726754135429     0.414322022018    -1.687944911379     1.007825032230
         H            1.014984835429     1.462541122018    -0.484449211379     1.007825032230
         H           -0.636934164571    -0.647945877982    -1.703593211379     1.007825032230
         H           -0.972376164571    -1.773420877982    -0.378683211379     1.007825032230
         H            3.547132835429    -0.237238877982    -0.051635211379     1.007825032230
         H            3.529943835429     1.510472122018    -0.357518211379     1.007825032230
         H            2.846260835429     0.853614122018     1.140550788621     1.007825032230
         H           -3.390455164571     0.627453122018     0.122731788621     1.007825032230

  Basis Set: AUG-CC-PVTZ
    Blend: AUG-CC-PVTZ
  Basis Set: (AUG-CC-PVTZ AUX)
    Blend: AUG-CC-PVTZ-JKFIT
	 Reference Energy          =    -418.7683189938292116 [Eh]
	 Singles Energy            =      -0.0000000000000000 [Eh]
	 Same-Spin Energy          =      -0.4079471978294529 [Eh]
	 Opposite-Spin Energy      =      -1.2859741613347082 [Eh]
	 Correlation Energy        =      -1.6939213591641611 [Eh]
	 Total Energy              =    -420.4622403529933763 [Eh]

	 ================> DF-SCS-MP2 Energies <==================
	-----------------------------------------------------------
	 SCS Same-Spin Scale       =       0.3333333333333333 [-]
	 SCS Opposite-Spin Scale   =       1.2000000000000000 [-]
	 SCS Same-Spin Energy      =      -0.1359823992764843 [Eh]
	 SCS Opposite-Spin Energy  =      -1.5431689936016497 [Eh]
	 SCS Correlation Energy    =      -1.6791513928781341 [Eh]
	 SCS Total Energy          =    -420.4474703867073231 [Eh]
	-----------------------------------------------------------

  Dipole Moment: [D]
     X:    -1.3038      Y:     0.7688      Z:    -2.5280     Total:     2.9465

*** Psi4 exiting successfully. Buy a developer a beer!
