                               Psi4 1.3.2 release

  ==> Input File <==

--------------------------------------------------------------------------
#psi4
#
memory 32 gb

molecule  {
0 1
  O        1.2197630    -1.3791890     0.7815710
  O       -2.8493200    -0.0743410    -0.2921690
  O       -1.2471260     1.2289340     0.6316900
  C        1.6494738     0.5369117    -0.5695189
  C        0.7924890    -0.5949300    -0.0578730
  C       -0.6218370    -0.8082747    -0.5791696
  C        2.9660570     0.6794250     0.0724790
  C       -1.5616300     0.2444870    -0.0131750
  H        1.7167540     0.3993790    -1.6843760
  H        1.0152770     1.4637510    -0.4819620
  H       -0.6366420    -0.6467360    -1.7011060
  H       -0.9720840    -1.7722110    -0.3761960
  H        3.5474250    -0.2360290    -0.0491480
  H        3.5302360     1.5116820    -0.3550310
  H        2.8465530     0.8548240     1.1430380
  H       -3.3901630     0.6286630     0.1252190
units angstrom
no_reorient  #important for SAPT in psi4, default
symmetry c1  #important for SAPT in psi4, default
}

set PROPERTIES_ORIGIN ["COM"]
properties('MP2/aug-cc-pvtz', properties = ['dipole'])
--------------------------------------------------------------------------

    Molecular point group: c1
  Charge       = 0
  Multiplicity = 1
  Basis Set: AUG-CC-PVTZ
    Blend: AUG-CC-PVTZ
  Basis Set: (AUG-CC-PVTZ AUX)
    Blend: AUG-CC-PVTZ-JKFIT

    Orbital Energies [Eh]
    ---------------------

    Doubly Occupied:

       1A    -20.632773     2A    -20.570824     3A    -20.553126
       4A    -11.414100     5A    -11.342726     6A    -11.273049
       7A    -11.245207     8A    -11.215720     9A     -1.479377
      10A     -1.388177    11A     -1.375959    12A     -1.083498
      13A     -1.048769    14A     -0.901431    15A     -0.840328
      16A     -0.740448    17A     -0.718652    18A     -0.707480
      19A     -0.677404    20A     -0.654141    21A     -0.630007
      22A     -0.626575    23A     -0.598412    24A     -0.576469
      25A     -0.540912    26A     -0.518575    27A     -0.513082
      28A     -0.501495    29A     -0.484982    30A     -0.464696
      31A     -0.423331

  @DF-RHF Final Energy:  -418.76138667592340

   => Energetics <=

    Nuclear Repulsion Energy =            372.2596145485943566
    One-Electron Energy =               -1310.5585514079780296
    Two-Electron Energy =                 519.5375501834603256
    Total Energy =                       -418.7613866759234043
  Basis Set: (AUG-CC-PVTZ AUX)
    Blend: AUG-CC-PVTZ-RI
    Molecular point group: c1

    Geometry (in Angstrom), charge = 0, multiplicity = 1:

       Center              X                  Y                   Z               Mass
    ------------   -----------------  -----------------  -----------------  -----------------
         O            1.216319494352    -1.373325860472     0.775033378266    15.994914619570
         O           -2.852763505648    -0.068477860472    -0.298706621734    15.994914619570
         O           -1.250569505648     1.234797139528     0.625152378266    15.994914619570
         C            1.646030294352     0.542774839528    -0.576056521734    12.000000000000
         C            0.789045494352    -0.589066860472    -0.064410621734    12.000000000000
         C           -0.625280505648    -0.802411560472    -0.585707221734    12.000000000000
         C            2.962613494352     0.685288139528     0.065941378266    12.000000000000
         C           -1.565073505648     0.250350139528    -0.019712621734    12.000000000000
         H            1.713310494352     0.405242139528    -1.690913621734     1.007825032230
         H            1.011833494352     1.469614139528    -0.488499621734     1.007825032230
         H           -0.640085505648    -0.640872860472    -1.707643621734     1.007825032230
         H           -0.975527505648    -1.766347860472    -0.382733621734     1.007825032230
         H            3.543981494352    -0.230165860472    -0.055685621734     1.007825032230
         H            3.526792494352     1.517545139528    -0.361568621734     1.007825032230
         H            2.843109494352     0.860687139528     1.136500378266     1.007825032230
         H           -3.393606505648     0.634526139528     0.118681378266     1.007825032230

  Basis Set: AUG-CC-PVTZ
    Blend: AUG-CC-PVTZ
  Basis Set: (AUG-CC-PVTZ AUX)
    Blend: AUG-CC-PVTZ-JKFIT
	 Reference Energy          =    -418.7613866759234043 [Eh]
	 Singles Energy            =      -0.0000000000000000 [Eh]
	 Same-Spin Energy          =      -0.4085436598736025 [Eh]
	 Opposite-Spin Energy      =      -1.2869009473499537 [Eh]
	 Correlation Energy        =      -1.6954446072235563 [Eh]
	 Total Energy              =    -420.4568312831469825 [Eh]

	 ================> DF-SCS-MP2 Energies <==================
	-----------------------------------------------------------
	 SCS Same-Spin Scale       =       0.3333333333333333 [-]
	 SCS Opposite-Spin Scale   =       1.2000000000000000 [-]
	 SCS Same-Spin Energy      =      -0.1361812199578675 [Eh]
	 SCS Opposite-Spin Energy  =      -1.5442811368199445 [Eh]
	 SCS Correlation Energy    =      -1.6804623567778121 [Eh]
	 SCS Total Energy          =    -420.4418490327012137 [Eh]
	-----------------------------------------------------------

  Dipole Moment: [D]
     X:    -1.3368      Y:     0.8133      Z:    -2.5328     Total:     2.9772

*** Psi4 exiting successfully. Buy a developer a beer!
