                               Psi4 1.3.2 release

  ==> Input File <==

--------------------------------------------------------------------------
#psi4
#
memory 32 gb

molecule  {
0 1
  O        1.2197630    -1.3791890     0.7815710
  O       -2.8493200    -0.0743410    -0.2921690
  O       -1.2471260     1.2289340     0.6316900
  C        1.6098530     0.5514350    -0.6010430
  C        0.7903055    -0.6447253    -0.0394534
  C       -0.6155180    -0.7660970    -0.6108670
  C        2.9660570     0.6794250     0.0724790
  C       -1.5616300     0.2444870    -0.0131750
  H        1.7167540     0.3993790    -1.6843760
  H        1.0152770     1.4637510    -0.4819620
  H       -0.6366420    -0.6467360    -1.7011060
  H       -0.9388435    -1.7792200    -0.3588401
  H        3.5474250    -0.2360290    -0.0491480
  H        3.5302360     1.5116820    -0.3550310
  H        2.8465530     0.8548240     1.1430380
  H       -3.3901630     0.6286630     0.1252190
units angstrom
no_reorient  #important for SAPT in psi4, default
symmetry c1  #important for SAPT in psi4, default
}

set PROPERTIES_ORIGIN ["COM"]
properties('MP2/aug-cc-pvtz', properties = ['dipole'])
--------------------------------------------------------------------------

    Molecular point group: c1
  Charge       = 0
  Multiplicity = 1
  Basis Set: AUG-CC-PVTZ
    Blend: AUG-CC-PVTZ
  Basis Set: (AUG-CC-PVTZ AUX)
    Blend: AUG-CC-PVTZ-JKFIT

    Orbital Energies [Eh]
    ---------------------

    Doubly Occupied:

       1A    -20.632675     2A    -20.570059     3A    -20.560600
       4A    -11.413531     5A    -11.340105     6A    -11.269437
       7A    -11.237961     8A    -11.214722     9A     -1.479194
      10A     -1.419402    11A     -1.375993    12A     -1.080602
      13A     -1.036387    14A     -0.894212    15A     -0.838774
      16A     -0.742803    17A     -0.720216    18A     -0.707540
      19A     -0.683851    20A     -0.647890    21A     -0.635052
      22A     -0.628454    23A     -0.597581    24A     -0.580101
      25A     -0.530403    26A     -0.526850    27A     -0.514573
      28A     -0.502812    29A     -0.491849    30A     -0.470298
      31A     -0.414822

  @DF-RHF Final Energy:  -418.76807531870486

   => Energetics <=

    Nuclear Repulsion Energy =            372.3655904399403767
    One-Electron Energy =               -1310.7498307478185779
    Two-Electron Energy =                 519.6161649891732850
    Total Energy =                       -418.7680753187048595
  Basis Set: (AUG-CC-PVTZ AUX)
    Blend: AUG-CC-PVTZ-RI
    Molecular point group: c1

    Geometry (in Angstrom), charge = 0, multiplicity = 1:

       Center              X                  Y                   Z               Mass
    ------------   -----------------  -----------------  -----------------  -----------------
         O            1.219700209309    -1.373979081405     0.779515437665    15.994914619570
         O           -2.849382790691    -0.069131081405    -0.294224562335    15.994914619570
         O           -1.247188790691     1.234143918595     0.629634437665    15.994914619570
         C            1.609790209309     0.556644918595    -0.603098562335    12.000000000000
         C            0.790242709309    -0.639515381405    -0.041508962335    12.000000000000
         C           -0.615580790691    -0.760887081405    -0.612922562335    12.000000000000
         C            2.965994209309     0.684634918595     0.070423437665    12.000000000000
         C           -1.561692790691     0.249696918595    -0.015230562335    12.000000000000
         H            1.716691209309     0.404588918595    -1.686431562335     1.007825032230
         H            1.015214209309     1.468960918595    -0.484017562335     1.007825032230
         H           -0.636704790691    -0.641526081405    -1.703161562335     1.007825032230
         H           -0.938906290691    -1.774010081405    -0.360895662335     1.007825032230
         H            3.547362209309    -0.230819081405    -0.051203562335     1.007825032230
         H            3.530173209309     1.516891918595    -0.357086562335     1.007825032230
         H            2.846490209309     0.860033918595     1.140982437665     1.007825032230
         H           -3.390225790691     0.633872918595     0.123163437665     1.007825032230

  Basis Set: AUG-CC-PVTZ
    Blend: AUG-CC-PVTZ
  Basis Set: (AUG-CC-PVTZ AUX)
    Blend: AUG-CC-PVTZ-JKFIT
	 Reference Energy          =    -418.7680753187048595 [Eh]
	 Singles Energy            =      -0.0000000000000000 [Eh]
	 Same-Spin Energy          =      -0.4070551534694204 [Eh]
	 Opposite-Spin Energy      =      -1.2842212340710213 [Eh]
	 Correlation Energy        =      -1.6912763875404417 [Eh]
	 Total Energy              =    -420.4593517062452861 [Eh]

	 ================> DF-SCS-MP2 Energies <==================
	-----------------------------------------------------------
	 SCS Same-Spin Scale       =       0.3333333333333333 [-]
	 SCS Opposite-Spin Scale   =       1.2000000000000000 [-]
	 SCS Same-Spin Energy      =      -0.1356850511564735 [Eh]
	 SCS Opposite-Spin Energy  =      -1.5410654808852255 [Eh]
	 SCS Correlation Energy    =      -1.6767505320416991 [Eh]
	 SCS Total Energy          =    -420.4448258507465539 [Eh]
	-----------------------------------------------------------

  Dipole Moment: [D]
     X:    -1.3880      Y:     0.5891      Z:    -2.4166     Total:     2.8484

*** Psi4 exiting successfully. Buy a developer a beer!
