                               Psi4 1.3.2 release

  ==> Input File <==

--------------------------------------------------------------------------
#psi4
#
memory 32 gb

molecule  {
0 1
  O        1.2197630    -1.3791890     0.7815710
  O       -2.8631319    -0.0357911    -0.2684623
  O       -1.2883345     1.2387056     0.6354686
  C        1.6098530     0.5514350    -0.6010430
  C        0.7924890    -0.5949300    -0.0578730
  C       -0.6155180    -0.7660970    -0.6108670
  C        2.9660570     0.6794250     0.0724790
  C       -1.5616300     0.2444870    -0.0131750
  H        1.7167540     0.3993790    -1.6843760
  H        1.0152770     1.4637510    -0.4819620
  H       -0.6366420    -0.6467360    -1.7011060
  H       -0.9720840    -1.7722110    -0.3761960
  H        3.5474250    -0.2360290    -0.0491480
  H        3.5302360     1.5116820    -0.3550310
  H        2.8465530     0.8548240     1.1430380
  H       -3.3901630     0.6286630     0.1252190
units angstrom
no_reorient  #important for SAPT in psi4, default
symmetry c1  #important for SAPT in psi4, default
}

set PROPERTIES_ORIGIN ["COM"]
properties('MP2/aug-cc-pvtz', properties = ['dipole'])
--------------------------------------------------------------------------

    Molecular point group: c1
  Charge       = 0
  Multiplicity = 1
  Basis Set: AUG-CC-PVTZ
    Blend: AUG-CC-PVTZ
  Basis Set: (AUG-CC-PVTZ AUX)
    Blend: AUG-CC-PVTZ-JKFIT

    Orbital Energies [Eh]
    ---------------------

    Doubly Occupied:

       1A    -20.622712     2A    -20.567291     3A    -20.559096
       4A    -11.413072     5A    -11.346622     6A    -11.275751
       7A    -11.243079     8A    -11.218357     9A     -1.483815
      10A     -1.391103    11A     -1.372845    12A     -1.088335
      13A     -1.044504    14A     -0.905196    15A     -0.848035
      16A     -0.744331    17A     -0.721340    18A     -0.707531
      19A     -0.681859    20A     -0.649901    21A     -0.632226
      22A     -0.628572    23A     -0.598189    24A     -0.579168
      25A     -0.527721    26A     -0.519794    27A     -0.516641
      28A     -0.500864    29A     -0.489997    30A     -0.469016
      31A     -0.427233

  @DF-RHF Final Energy:  -418.76841140689919

   => Energetics <=

    Nuclear Repulsion Energy =            372.0017670875309364
    One-Electron Energy =               -1309.9919672063003873
    Two-Electron Energy =                 519.2217887118703175
    Total Energy =                       -418.7684114068991903
  Basis Set: (AUG-CC-PVTZ AUX)
    Blend: AUG-CC-PVTZ-RI
    Molecular point group: c1

    Geometry (in Angstrom), charge = 0, multiplicity = 1:

       Center              X                  Y                   Z               Mass
    ------------   -----------------  -----------------  -----------------  -----------------
         O            1.227346616171    -1.385849285957     0.777782540477    15.994914619570
         O           -2.855548283829    -0.042451385957    -0.272250759523    15.994914619570
         O           -1.280750883829     1.232045314043     0.631680140477    15.994914619570
         C            1.617436616171     0.544774714043    -0.604831459523    12.000000000000
         C            0.800072616171    -0.601590285957    -0.061661459523    12.000000000000
         C           -0.607934383829    -0.772757285957    -0.614655459523    12.000000000000
         C            2.973640616171     0.672764714043     0.068690540477    12.000000000000
         C           -1.554046383829     0.237826714043    -0.016963459523    12.000000000000
         H            1.724337616171     0.392718714043    -1.688164459523     1.007825032230
         H            1.022860616171     1.457090714043    -0.485750459523     1.007825032230
         H           -0.629058383829    -0.653396285957    -1.704894459523     1.007825032230
         H           -0.964500383829    -1.778871285957    -0.379984459523     1.007825032230
         H            3.555008616171    -0.242689285957    -0.052936459523     1.007825032230
         H            3.537819616171     1.505021714043    -0.358819459523     1.007825032230
         H            2.854136616171     0.848163714043     1.139249540477     1.007825032230
         H           -3.382579383829     0.622002714043     0.121430540477     1.007825032230

  Basis Set: AUG-CC-PVTZ
    Blend: AUG-CC-PVTZ
  Basis Set: (AUG-CC-PVTZ AUX)
    Blend: AUG-CC-PVTZ-JKFIT
	 Reference Energy          =    -418.7684114068991903 [Eh]
	 Singles Energy            =      -0.0000000000000000 [Eh]
	 Same-Spin Energy          =      -0.4073345710775926 [Eh]
	 Opposite-Spin Energy      =      -1.2847001007604275 [Eh]
	 Correlation Energy        =      -1.6920346718380201 [Eh]
	 Total Energy              =    -420.4604460787372204 [Eh]

	 ================> DF-SCS-MP2 Energies <==================
	-----------------------------------------------------------
	 SCS Same-Spin Scale       =       0.3333333333333333 [-]
	 SCS Opposite-Spin Scale   =       1.2000000000000000 [-]
	 SCS Same-Spin Energy      =      -0.1357781903591975 [Eh]
	 SCS Opposite-Spin Energy  =      -1.5416401209125130 [Eh]
	 SCS Correlation Energy    =      -1.6774183112717105 [Eh]
	 SCS Total Energy          =    -420.4458297181708986 [Eh]
	-----------------------------------------------------------

  Dipole Moment: [D]
     X:    -1.1254      Y:     0.6762      Z:    -2.6107     Total:     2.9222

*** Psi4 exiting successfully. Buy a developer a beer!
