                               Psi4 1.3.2 release

  ==> Input File <==

--------------------------------------------------------------------------
#psi4
#
memory 32 gb

molecule  {
0 1
  O        1.2197630    -1.3791890     0.7815710
  O       -2.8493200    -0.0743410    -0.2921690
  O       -1.2471260     1.2289340     0.6316900
  C        1.6098530     0.5514350    -0.6010430
  C        0.7731155    -0.5887437    -0.0746085
  C       -0.6155180    -0.7660970    -0.6108670
  C        2.9714760     0.7003235     0.0570737
  C       -1.5616300     0.2444870    -0.0131750
  H        1.7167540     0.3993790    -1.6843760
  H        1.0152770     1.4637510    -0.4819620
  H       -0.6366420    -0.6467360    -1.7011060
  H       -0.9720840    -1.7722110    -0.3761960
  H        3.5474250    -0.2360290    -0.0491480
  H        3.5302360     1.5116820    -0.3550310
  H        2.8465530     0.8548240     1.1430380
  H       -3.3901630     0.6286630     0.1252190
units angstrom
no_reorient  #important for SAPT in psi4, default
symmetry c1  #important for SAPT in psi4, default
}

set PROPERTIES_ORIGIN ["COM"]
properties('MP2/aug-cc-pvtz', properties = ['dipole'])
--------------------------------------------------------------------------

    Molecular point group: c1
  Charge       = 0
  Multiplicity = 1
  Basis Set: AUG-CC-PVTZ
    Blend: AUG-CC-PVTZ
  Basis Set: (AUG-CC-PVTZ AUX)
    Blend: AUG-CC-PVTZ-JKFIT

    Orbital Energies [Eh]
    ---------------------

    Doubly Occupied:

       1A    -20.634178     2A    -20.571812     3A    -20.555137
       4A    -11.415218     5A    -11.346032     6A    -11.273245
       7A    -11.242041     8A    -11.217341     9A     -1.480893
      10A     -1.379396    11A     -1.372351    12A     -1.089373
      13A     -1.043124    14A     -0.903809    15A     -0.842569
      16A     -0.743254    17A     -0.720647    18A     -0.709210
      19A     -0.681658    20A     -0.648652    21A     -0.630513
      22A     -0.623975    23A     -0.599003    24A     -0.577771
      25A     -0.532556    26A     -0.514806    27A     -0.507952
      28A     -0.502102    29A     -0.488247    30A     -0.467174
      31A     -0.428068

  @DF-RHF Final Energy:  -418.76339647782055

   => Energetics <=

    Nuclear Repulsion Energy =            372.0593537675771358
    One-Electron Energy =               -1310.1612846431414710
    Two-Electron Energy =                 519.3385343977438424
    Total Energy =                       -418.7633964778204927
  Basis Set: (AUG-CC-PVTZ AUX)
    Blend: AUG-CC-PVTZ-RI
    Molecular point group: c1

    Geometry (in Angstrom), charge = 0, multiplicity = 1:

       Center              X                  Y                   Z               Mass
    ------------   -----------------  -----------------  -----------------  -----------------
         O            1.221206082703    -1.381989820924     0.784894419108    15.994914619570
         O           -2.847876917297    -0.077141820924    -0.288845580892    15.994914619570
         O           -1.245682917297     1.226133179076     0.635013419108    15.994914619570
         C            1.611296082703     0.548634179076    -0.597719580892    12.000000000000
         C            0.774558582703    -0.591544520924    -0.071285080892    12.000000000000
         C           -0.614074917297    -0.768897820924    -0.607543580892    12.000000000000
         C            2.972919082703     0.697522679076     0.060397119108    12.000000000000
         C           -1.560186917297     0.241686179076    -0.009851580892    12.000000000000
         H            1.718197082703     0.396578179076    -1.681052580892     1.007825032230
         H            1.016720082703     1.460950179076    -0.478638580892     1.007825032230
         H           -0.635198917297    -0.649536820924    -1.697782580892     1.007825032230
         H           -0.970640917297    -1.775011820924    -0.372872580892     1.007825032230
         H            3.548868082703    -0.238829820924    -0.045824580892     1.007825032230
         H            3.531679082703     1.508881179076    -0.351707580892     1.007825032230
         H            2.847996082703     0.852023179076     1.146361419108     1.007825032230
         H           -3.388719917297     0.625862179076     0.128542419108     1.007825032230

  Basis Set: AUG-CC-PVTZ
    Blend: AUG-CC-PVTZ
  Basis Set: (AUG-CC-PVTZ AUX)
    Blend: AUG-CC-PVTZ-JKFIT
	 Reference Energy          =    -418.7633964778205495 [Eh]
	 Singles Energy            =      -0.0000000000000000 [Eh]
	 Same-Spin Energy          =      -0.4089756648186209 [Eh]
	 Opposite-Spin Energy      =      -1.2881619992922295 [Eh]
	 Correlation Energy        =      -1.6971376641108504 [Eh]
	 Total Energy              =    -420.4605341419314186 [Eh]

	 ================> DF-SCS-MP2 Energies <==================
	-----------------------------------------------------------
	 SCS Same-Spin Scale       =       0.3333333333333333 [-]
	 SCS Opposite-Spin Scale   =       1.2000000000000000 [-]
	 SCS Same-Spin Energy      =      -0.1363252216062070 [Eh]
	 SCS Opposite-Spin Energy  =      -1.5457943991506753 [Eh]
	 SCS Correlation Energy    =      -1.6821196207568823 [Eh]
	 SCS Total Energy          =    -420.4455160985774569 [Eh]
	-----------------------------------------------------------

  Dipole Moment: [D]
     X:    -1.4521      Y:     0.8290      Z:    -2.6169     Total:     3.1055

*** Psi4 exiting successfully. Buy a developer a beer!
