                               Psi4 1.3.2 release

  ==> Input File <==

--------------------------------------------------------------------------
#psi4
#
memory 32 gb

molecule  {
0 1
  O        1.2197630    -1.3791890     0.7815710
  O       -2.8493200    -0.0743410    -0.2921690
  O       -1.2471260     1.2289340     0.6316900
  C        1.6098530     0.5514350    -0.6010430
  C        0.7924890    -0.5949300    -0.0578730
  C       -0.6155180    -0.7660970    -0.6108670
  C        2.9660570     0.6794250     0.0724790
  C       -1.5314538     0.2829259    -0.0327181
  H        1.7167540     0.3993790    -1.6843760
  H        1.0152770     1.4637510    -0.4819620
  H       -0.6366420    -0.6467360    -1.7011060
  H       -0.9422322    -1.7864937    -0.3951739
  H        3.5474250    -0.2360290    -0.0491480
  H        3.5302360     1.5116820    -0.3550310
  H        2.8465530     0.8548240     1.1430380
  H       -3.3901630     0.6286630     0.1252190
units angstrom
no_reorient  #important for SAPT in psi4, default
symmetry c1  #important for SAPT in psi4, default
}

set PROPERTIES_ORIGIN ["COM"]
properties('MP2/aug-cc-pvtz', properties = ['dipole'])
--------------------------------------------------------------------------

    Molecular point group: c1
  Charge       = 0
  Multiplicity = 1
  Basis Set: AUG-CC-PVTZ
    Blend: AUG-CC-PVTZ
  Basis Set: (AUG-CC-PVTZ AUX)
    Blend: AUG-CC-PVTZ-JKFIT

    Orbital Energies [Eh]
    ---------------------

    Doubly Occupied:

       1A    -20.622862     2A    -20.577812     3A    -20.557536
       4A    -11.412478     5A    -11.344254     6A    -11.271619
       7A    -11.242548     8A    -11.218101     9A     -1.477445
      10A     -1.389617    11A     -1.381467    12A     -1.086290
      13A     -1.042265    14A     -0.899914    15A     -0.832309
      16A     -0.742967    17A     -0.719835    18A     -0.708655
      19A     -0.680077    20A     -0.645532    21A     -0.633203
      22A     -0.625379    23A     -0.604949    24A     -0.574453
      25A     -0.526122    26A     -0.520002    27A     -0.516805
      28A     -0.508613    29A     -0.494062    30A     -0.471473
      31A     -0.424676

  @DF-RHF Final Energy:  -418.76601093862041

   => Energetics <=

    Nuclear Repulsion Energy =            372.4118710134682715
    One-Electron Energy =               -1310.8491261604683586
    Two-Electron Energy =                 519.6712442083796759
    Total Energy =                       -418.7660109386204113
  Basis Set: (AUG-CC-PVTZ AUX)
    Blend: AUG-CC-PVTZ-RI
    Molecular point group: c1

    Geometry (in Angstrom), charge = 0, multiplicity = 1:

       Center              X                  Y                   Z               Mass
    ------------   -----------------  -----------------  -----------------  -----------------
         O            1.216383449359    -1.383039864235     0.783756555951    15.994914619570
         O           -2.852699550641    -0.078191864235    -0.289983444049    15.994914619570
         O           -1.250505550641     1.225083135765     0.633875555951    15.994914619570
         C            1.606473449359     0.547584135765    -0.598857444049    12.000000000000
         C            0.789109449359    -0.598780864235    -0.055687444049    12.000000000000
         C           -0.618897550641    -0.769947864235    -0.608681444049    12.000000000000
         C            2.962677449359     0.675574135765     0.074664555951    12.000000000000
         C           -1.534833350641     0.279075035765    -0.030532544049    12.000000000000
         H            1.713374449359     0.395528135765    -1.682190444049     1.007825032230
         H            1.011897449359     1.459900135765    -0.479776444049     1.007825032230
         H           -0.640021550641    -0.650586864235    -1.698920444049     1.007825032230
         H           -0.945611750641    -1.790344564235    -0.392988344049     1.007825032230
         H            3.544045449359    -0.239879864235    -0.046962444049     1.007825032230
         H            3.526856449359     1.507831135765    -0.352845444049     1.007825032230
         H            2.843173449359     0.850973135765     1.145223555951     1.007825032230
         H           -3.393542550641     0.624812135765     0.127404555951     1.007825032230

  Basis Set: AUG-CC-PVTZ
    Blend: AUG-CC-PVTZ
  Basis Set: (AUG-CC-PVTZ AUX)
    Blend: AUG-CC-PVTZ-JKFIT
	 Reference Energy          =    -418.7660109386204113 [Eh]
	 Singles Energy            =      -0.0000000000000000 [Eh]
	 Same-Spin Energy          =      -0.4080402360037358 [Eh]
	 Opposite-Spin Energy      =      -1.2863873371746815 [Eh]
	 Correlation Energy        =      -1.6944275731784173 [Eh]
	 Total Energy              =    -420.4604385117988272 [Eh]

	 ================> DF-SCS-MP2 Energies <==================
	-----------------------------------------------------------
	 SCS Same-Spin Scale       =       0.3333333333333333 [-]
	 SCS Opposite-Spin Scale   =       1.2000000000000000 [-]
	 SCS Same-Spin Energy      =      -0.1360134120012453 [Eh]
	 SCS Opposite-Spin Energy  =      -1.5436648046096177 [Eh]
	 SCS Correlation Energy    =      -1.6796782166108630 [Eh]
	 SCS Total Energy          =    -420.4456891552312641 [Eh]
	-----------------------------------------------------------

  Dipole Moment: [D]
     X:    -1.0672      Y:     0.9273      Z:    -2.5046     Total:     2.8761

*** Psi4 exiting successfully. Buy a developer a beer!
