                               Psi4 1.4a3.dev225

  ==> Input File <==

--------------------------------------------------------------------------
#psi4
#
memory 32 gb

molecule  {
0 1
  O        1.1896460     1.3864710    -0.7896670
  O       -2.9164350     0.0620530     0.2465870
  O       -1.2994600    -1.1722570    -0.7513140
  C        1.5277270    -0.5390120     0.6173550
  C        0.7330570     0.6116870     0.0446410
  C       -0.6915030     0.7929470     0.5540020
  C        2.9119880    -0.6669770    -0.0005940
  C       -1.6125137    -0.2587021    -0.0920092
  H        1.5906630    -0.3916430     1.7048170
  H        0.9378800    -1.4511620     0.4690430
  H       -0.7449460     0.6872940     1.6445860
  H       -1.0362610     1.7983420     0.2961770
  H        3.4930330     0.2441750     0.1549910
  H        3.4532110    -1.5066350     0.4428820
  H        2.8367130    -0.8315610    -1.0772290
  H       -3.4525110    -0.6329900    -0.1896390
units angstrom
no_reorient  #important for SAPT in psi4, default
symmetry c1  #important for SAPT in psi4, default
}

set PROPERTIES_ORIGIN ["COM"]
properties('MP2/aug-cc-pvtz', properties = ['dipole'])
--------------------------------------------------------------------------

    Molecular point group: c1
  Charge       = 0
  Multiplicity = 1
  Basis Set: AUG-CC-PVTZ
    Blend: AUG-CC-PVTZ
  Basis Set: (AUG-CC-PVTZ AUX)
    Blend: AUG-CC-PVTZ-JKFIT

    Orbital Energies [Eh]
    ---------------------

    Doubly Occupied:

       1A    -20.624566     2A    -20.579996     3A    -20.555647
       4A    -11.409794     5A    -11.342515     6A    -11.269854
       7A    -11.242733     8A    -11.218149     9A     -1.487296
      10A     -1.392374    11A     -1.386206    12A     -1.080238
      13A     -1.037259    14A     -0.897710    15A     -0.830887
      16A     -0.742840    17A     -0.721178    18A     -0.709891
      19A     -0.678394    20A     -0.648486    21A     -0.634605
      22A     -0.624355    23A     -0.604614    24A     -0.574637
      25A     -0.525410    26A     -0.520404    27A     -0.517271
      28A     -0.512800    29A     -0.493549    30A     -0.469617
      31A     -0.422385

  @DF-RHF Final Energy:  -418.76671696234058

   => Energetics <=

    Nuclear Repulsion Energy =            372.0842213978526729
    One-Electron Energy =               -1310.1905600701950334
    Two-Electron Energy =                 519.3396217100018930
    Total Energy =                       -418.7667169623405243
  Basis Set: (AUG-CC-PVTZ AUX)
    Blend: AUG-CC-PVTZ-RI
    Molecular point group: c1

    Geometry (in Angstrom), charge = 0, multiplicity = 1:

       Center              X                  Y                   Z               Mass
    ------------   -----------------  -----------------  -----------------  -----------------
         O            1.248642308381     1.372703402700    -0.757349209425    15.994914619570
         O           -2.857438691619     0.048285402700     0.278904790575    15.994914619570
         O           -1.240463691619    -1.186024597300    -0.718996209425    15.994914619570
         C            1.586723308381    -0.552779597300     0.649672790575    12.000000000000
         C            0.792053308381     0.597919402700     0.076958790575    12.000000000000
         C           -0.632506691619     0.779179402700     0.586319790575    12.000000000000
         C            2.970984308381    -0.680744597300     0.031723790575    12.000000000000
         C           -1.553517391619    -0.272469697300    -0.059691409425    12.000000000000
         H            1.649659308381    -0.405410597300     1.737134790575     1.007825032230
         H            0.996876308381    -1.464929597300     0.501360790575     1.007825032230
         H           -0.685949691619     0.673526402700     1.676903790575     1.007825032230
         H           -0.977264691619     1.784574402700     0.328494790575     1.007825032230
         H            3.552029308381     0.230407402700     0.187308790575     1.007825032230
         H            3.512207308381    -1.520402597300     0.475199790575     1.007825032230
         H            2.895709308381    -0.845328597300    -1.044911209425     1.007825032230
         H           -3.393514691619    -0.646757597300    -0.157321209425     1.007825032230

  Basis Set: AUG-CC-PVTZ
    Blend: AUG-CC-PVTZ
  Basis Set: (AUG-CC-PVTZ AUX)
    Blend: AUG-CC-PVTZ-JKFIT
	 Reference Energy          =    -418.7667169623405812 [Eh]
	 Singles Energy            =      -0.0000000000000000 [Eh]
	 Same-Spin Energy          =      -0.4073184864083061 [Eh]
	 Opposite-Spin Energy      =      -1.2852284112608652 [Eh]
	 Correlation Energy        =      -1.6925468976691713 [Eh]
	 Total Energy              =    -420.4592638600097416 [Eh]

	 ================> DF-SCS-MP2 Energies <==================
	-----------------------------------------------------------
	 SCS Same-Spin Scale       =       0.3333333333333333 [-]
	 SCS Opposite-Spin Scale   =       1.2000000000000000 [-]
	 SCS Same-Spin Energy      =      -0.1357728288027687 [Eh]
	 SCS Opposite-Spin Energy  =      -1.5422740935130381 [Eh]
	 SCS Correlation Energy    =      -1.6780469223158068 [Eh]
	 SCS Total Energy          =    -420.4447638846563677 [Eh]
	-----------------------------------------------------------

  Dipole Moment: [D]
     X:    -1.2675      Y:    -1.0446      Z:     2.4026     Total:     2.9103

*** Psi4 exiting successfully. Buy a developer a beer!
