                               Psi4 1.3.2 release

  ==> Input File <==

--------------------------------------------------------------------------
#psi4
#
memory 32 gb

molecule  {
0 1
  O        1.2197630    -1.3791890     0.7815710
  O       -2.8493200    -0.0743410    -0.2921690
  O       -1.2471260     1.2289340     0.6316900
  C        1.6098530     0.5514350    -0.6010430
  C        0.7924890    -0.5949300    -0.0578730
  C       -0.6155180    -0.7660970    -0.6108670
  C        2.9660570     0.6794250     0.0724790
  C       -1.6566208     0.2209676    -0.0337559
  H        1.7167540     0.3993790    -1.6843760
  H        1.0152770     1.4637510    -0.4819620
  H       -0.6366420    -0.6467360    -1.7011060
  H       -0.9720840    -1.7722110    -0.3761960
  H        3.5474250    -0.2360290    -0.0491480
  H        3.5302360     1.5116820    -0.3550310
  H        2.8465530     0.8548240     1.1430380
  H       -3.3901630     0.6286630     0.1252190
units angstrom
no_reorient  #important for SAPT in psi4, default
symmetry c1  #important for SAPT in psi4, default
}

set PROPERTIES_ORIGIN ["COM"]
properties('MP2/aug-cc-pvtz', properties = ['dipole'])
--------------------------------------------------------------------------

    Molecular point group: c1
  Charge       = 0
  Multiplicity = 1
  Basis Set: AUG-CC-PVTZ
    Blend: AUG-CC-PVTZ
  Basis Set: (AUG-CC-PVTZ AUX)
    Blend: AUG-CC-PVTZ-JKFIT

    Orbital Energies [Eh]
    ---------------------

    Doubly Occupied:

       1A    -20.661747     2A    -20.553502     3A    -20.552922
       4A    -11.415655     5A    -11.340973     6A    -11.269340
       7A    -11.236634     8A    -11.213660     9A     -1.529343
      10A     -1.384916    11A     -1.347749    12A     -1.076037
      13A     -1.036029    14A     -0.910157    15A     -0.861964
      16A     -0.751255    17A     -0.729599    18A     -0.703312
      19A     -0.691930    20A     -0.655519    21A     -0.630070
      22A     -0.626595    23A     -0.581592    24A     -0.576511
      25A     -0.522950    26A     -0.513557    27A     -0.509619
      28A     -0.491664    29A     -0.476062    30A     -0.456412
      31A     -0.421845

  @DF-RHF Final Energy:  -418.75357203329952

   => Energetics <=

    Nuclear Repulsion Energy =            371.8157130811591742
    One-Electron Energy =               -1309.6803342832120052
    Two-Electron Energy =                 519.1110491687533113
    Total Energy =                       -418.7535720332995197
  Basis Set: (AUG-CC-PVTZ AUX)
    Blend: AUG-CC-PVTZ-RI
    Molecular point group: c1

    Geometry (in Angstrom), charge = 0, multiplicity = 1:

       Center              X                  Y                   Z               Mass
    ------------   -----------------  -----------------  -----------------  -----------------
         O            1.229585728161    -1.376757039385     0.783699055259    15.994914619570
         O           -2.839497271839    -0.071909039385    -0.290040944741    15.994914619570
         O           -1.237303271839     1.231365960615     0.633818055259    15.994914619570
         C            1.619675728161     0.553866960615    -0.598914944741    12.000000000000
         C            0.802311728161    -0.592498039385    -0.055744944741    12.000000000000
         C           -0.605695271839    -0.763665039385    -0.608738944741    12.000000000000
         C            2.975879728161     0.681856960615     0.074607055259    12.000000000000
         C           -1.646798071839     0.223399560615    -0.031627844741    12.000000000000
         H            1.726576728161     0.401810960615    -1.682247944741     1.007825032230
         H            1.025099728161     1.466182960615    -0.479833944741     1.007825032230
         H           -0.626819271839    -0.644304039385    -1.698977944741     1.007825032230
         H           -0.962261271839    -1.769779039385    -0.374067944741     1.007825032230
         H            3.557247728161    -0.233597039385    -0.047019944741     1.007825032230
         H            3.540058728161     1.514113960615    -0.352902944741     1.007825032230
         H            2.856375728161     0.857255960615     1.145166055259     1.007825032230
         H           -3.380340271839     0.631094960615     0.127347055259     1.007825032230

  Basis Set: AUG-CC-PVTZ
    Blend: AUG-CC-PVTZ
  Basis Set: (AUG-CC-PVTZ AUX)
    Blend: AUG-CC-PVTZ-JKFIT
	 Reference Energy          =    -418.7535720332995197 [Eh]
	 Singles Energy            =      -0.0000000000000000 [Eh]
	 Same-Spin Energy          =      -0.4086411973086141 [Eh]
	 Opposite-Spin Energy      =      -1.2868108137278242 [Eh]
	 Correlation Energy        =      -1.6954520110364384 [Eh]
	 Total Energy              =    -420.4490240443359426 [Eh]

	 ================> DF-SCS-MP2 Energies <==================
	-----------------------------------------------------------
	 SCS Same-Spin Scale       =       0.3333333333333333 [-]
	 SCS Opposite-Spin Scale   =       1.2000000000000000 [-]
	 SCS Same-Spin Energy      =      -0.1362137324362047 [Eh]
	 SCS Opposite-Spin Energy  =      -1.5441729764733891 [Eh]
	 SCS Correlation Energy    =      -1.6803867089095939 [Eh]
	 SCS Total Energy          =    -420.4339587422090858 [Eh]
	-----------------------------------------------------------

  Dipole Moment: [D]
     X:    -2.2002      Y:     0.5547      Z:    -2.7424     Total:     3.5594

*** Psi4 exiting successfully. Buy a developer a beer!
