                               Psi4 1.3.2 release

  ==> Input File <==

--------------------------------------------------------------------------
#psi4
#
memory 32 gb

molecule  {
0 1
  O        1.2747653    -1.3461399     0.7819988
  O       -2.8493200    -0.0743410    -0.2921690
  O       -1.2471260     1.2289340     0.6316900
  C        1.6098530     0.5514350    -0.6010430
  C        0.7924890    -0.5949300    -0.0578730
  C       -0.6031837    -0.7018632    -0.6564106
  C        2.9660570     0.6794250     0.0724790
  C       -1.5616300     0.2444870    -0.0131750
  H        1.7167540     0.3993790    -1.6843760
  H        1.0152770     1.4637510    -0.4819620
  H       -0.6366420    -0.6467360    -1.7011060
  H       -0.9720840    -1.7722110    -0.3761960
  H        3.5474250    -0.2360290    -0.0491480
  H        3.5302360     1.5116820    -0.3550310
  H        2.8465530     0.8548240     1.1430380
  H       -3.3901630     0.6286630     0.1252190
units angstrom
no_reorient  #important for SAPT in psi4, default
symmetry c1  #important for SAPT in psi4, default
}

set PROPERTIES_ORIGIN ["COM"]
properties('MP2/aug-cc-pvtz', properties = ['dipole'])
--------------------------------------------------------------------------

    Molecular point group: c1
  Charge       = 0
  Multiplicity = 1
  Basis Set: AUG-CC-PVTZ
    Blend: AUG-CC-PVTZ
  Basis Set: (AUG-CC-PVTZ AUX)
    Blend: AUG-CC-PVTZ-JKFIT

    Orbital Energies [Eh]
    ---------------------

    Doubly Occupied:

       1A    -20.634630     2A    -20.571109     3A    -20.559246
       4A    -11.414894     5A    -11.345728     6A    -11.275686
       7A    -11.236622     8A    -11.214137     9A     -1.481223
      10A     -1.389961    11A     -1.377456    12A     -1.089556
      13A     -1.040246    14A     -0.902272    15A     -0.839174
      16A     -0.745075    17A     -0.722147    18A     -0.713224
      19A     -0.683797    20A     -0.645358    21A     -0.631724
      22A     -0.627488    23A     -0.601999    24A     -0.573029
      25A     -0.521038    26A     -0.517989    27A     -0.511095
      28A     -0.502931    29A     -0.490835    30A     -0.469865
      31A     -0.424104

  @DF-RHF Final Energy:  -418.75851087786486

   => Energetics <=

    Nuclear Repulsion Energy =            372.5883842775458561
    One-Electron Energy =               -1311.1865156958665466
    Two-Electron Energy =                 519.8396205404558259
    Total Energy =                       -418.7585108778648646
  Basis Set: (AUG-CC-PVTZ AUX)
    Blend: AUG-CC-PVTZ-RI
    Molecular point group: c1

    Geometry (in Angstrom), charge = 0, multiplicity = 1:

       Center              X                  Y                   Z               Mass
    ------------   -----------------  -----------------  -----------------  -----------------
         O            1.265908942406    -1.357337341632     0.786649185931    15.994914619570
         O           -2.858176357594    -0.085538441632    -0.287518614069    15.994914619570
         O           -1.255982357594     1.217736558368     0.636340385931    15.994914619570
         C            1.600996642406     0.540237558368    -0.596392614069    12.000000000000
         C            0.783632642406    -0.606127441632    -0.053222614069    12.000000000000
         C           -0.612040057594    -0.713060641632    -0.651760214069    12.000000000000
         C            2.957200642406     0.668227558368     0.077129385931    12.000000000000
         C           -1.570486357594     0.233289558368    -0.008524614069    12.000000000000
         H            1.707897642406     0.388181558368    -1.679725614069     1.007825032230
         H            1.006420642406     1.452553558368    -0.477311614069     1.007825032230
         H           -0.645498357594    -0.657933441632    -1.696455614069     1.007825032230
         H           -0.980940357594    -1.783408441632    -0.371545614069     1.007825032230
         H            3.538568642406    -0.247226441632    -0.044497614069     1.007825032230
         H            3.521379642406     1.500484558368    -0.350380614069     1.007825032230
         H            2.837696642406     0.843626558368     1.147688385931     1.007825032230
         H           -3.399019357594     0.617465558368     0.129869385931     1.007825032230

  Basis Set: AUG-CC-PVTZ
    Blend: AUG-CC-PVTZ
  Basis Set: (AUG-CC-PVTZ AUX)
    Blend: AUG-CC-PVTZ-JKFIT
	 Reference Energy          =    -418.7585108778648646 [Eh]
	 Singles Energy            =      -0.0000000000000000 [Eh]
	 Same-Spin Energy          =      -0.4088074250553683 [Eh]
	 Opposite-Spin Energy      =      -1.2876849481203045 [Eh]
	 Correlation Energy        =      -1.6964923731756727 [Eh]
	 Total Energy              =    -420.4550032510405231 [Eh]

	 ================> DF-SCS-MP2 Energies <==================
	-----------------------------------------------------------
	 SCS Same-Spin Scale       =       0.3333333333333333 [-]
	 SCS Opposite-Spin Scale   =       1.2000000000000000 [-]
	 SCS Same-Spin Energy      =      -0.1362691416851227 [Eh]
	 SCS Opposite-Spin Energy  =      -1.5452219377443654 [Eh]
	 SCS Correlation Energy    =      -1.6814910794294882 [Eh]
	 SCS Total Energy          =    -420.4400019572943279 [Eh]
	-----------------------------------------------------------

  Dipole Moment: [D]
     X:    -1.5114      Y:     0.6912      Z:    -2.5675     Total:     3.0584

*** Psi4 exiting successfully. Buy a developer a beer!
