                               Psi4 1.3.2 release

  ==> Input File <==

--------------------------------------------------------------------------
#psi4
#
memory 32 gb

molecule  {
0 1
  O        1.2197630    -1.3791890     0.7815710
  O       -2.8493200    -0.0743410    -0.2921690
  O       -1.2471260     1.2289340     0.6316900
  C        1.6098530     0.5514350    -0.6010430
  C        0.7839103    -0.5747056    -0.0429286
  C       -0.6155180    -0.7660970    -0.6108670
  C        2.9660570     0.6794250     0.0724790
  C       -1.5417785     0.2543328     0.0010220
  H        1.7167540     0.3993790    -1.6843760
  H        1.0152770     1.4637510    -0.4819620
  H       -0.6366420    -0.6467360    -1.7011060
  H       -0.9720840    -1.7722110    -0.3761960
  H        3.5474250    -0.2360290    -0.0491480
  H        3.5302360     1.5116820    -0.3550310
  H        2.8465530     0.8548240     1.1430380
  H       -3.3901630     0.6286630     0.1252190
units angstrom
no_reorient  #important for SAPT in psi4, default
symmetry c1  #important for SAPT in psi4, default
}

set PROPERTIES_ORIGIN ["COM"]
properties('MP2/aug-cc-pvtz', properties = ['dipole'])
--------------------------------------------------------------------------

    Molecular point group: c1
  Charge       = 0
  Multiplicity = 1
  Basis Set: AUG-CC-PVTZ
    Blend: AUG-CC-PVTZ
  Basis Set: (AUG-CC-PVTZ AUX)
    Blend: AUG-CC-PVTZ-JKFIT

    Orbital Energies [Eh]
    ---------------------

    Doubly Occupied:

       1A    -20.625639     2A    -20.575697     3A    -20.556625
       4A    -11.412027     5A    -11.344771     6A    -11.271727
       7A    -11.242519     8A    -11.218061     9A     -1.477273
      10A     -1.385911    11A     -1.380684    12A     -1.086621
      13A     -1.042996    14A     -0.901238    15A     -0.833428
      16A     -0.743126    17A     -0.719426    18A     -0.708073
      19A     -0.680304    20A     -0.646515    21A     -0.633561
      22A     -0.624524    23A     -0.603125    24A     -0.575324
      25A     -0.526339    26A     -0.518973    27A     -0.515719
      28A     -0.507658    29A     -0.492757    30A     -0.470260
      31A     -0.425362

  @DF-RHF Final Energy:  -418.76651378094226

   => Energetics <=

    Nuclear Repulsion Energy =            372.5047029985713039
    One-Electron Energy =               -1311.0499064475191062
    Two-Electron Energy =                 519.7786896680056543
    Total Energy =                       -418.7665137809422049
  Basis Set: (AUG-CC-PVTZ AUX)
    Blend: AUG-CC-PVTZ-RI
    Molecular point group: c1

    Geometry (in Angstrom), charge = 0, multiplicity = 1:

       Center              X                  Y                   Z               Mass
    ------------   -----------------  -----------------  -----------------  -----------------
         O            1.218597426708    -1.382298529411     0.778557467534    15.994914619570
         O           -2.850485573292    -0.077450529411    -0.295182532466    15.994914619570
         O           -1.248291573292     1.225824470589     0.628676467534    15.994914619570
         C            1.608687426708     0.548325470589    -0.604056532466    12.000000000000
         C            0.782744726708    -0.577815129411    -0.045942132466    12.000000000000
         C           -0.616683573292    -0.769206529411    -0.613880532466    12.000000000000
         C            2.964891426708     0.676315470589     0.069465467534    12.000000000000
         C           -1.542944073292     0.251223270589    -0.001991532466    12.000000000000
         H            1.715588426708     0.396269470589    -1.687389532466     1.007825032230
         H            1.014111426708     1.460641470589    -0.484975532466     1.007825032230
         H           -0.637807573292    -0.649845529411    -1.704119532466     1.007825032230
         H           -0.973249573292    -1.775320529411    -0.379209532466     1.007825032230
         H            3.546259426708    -0.239138529411    -0.052161532466     1.007825032230
         H            3.529070426708     1.508572470589    -0.358044532466     1.007825032230
         H            2.845387426708     0.851714470589     1.140024467534     1.007825032230
         H           -3.391328573292     0.625553470589     0.122205467534     1.007825032230

  Basis Set: AUG-CC-PVTZ
    Blend: AUG-CC-PVTZ
  Basis Set: (AUG-CC-PVTZ AUX)
    Blend: AUG-CC-PVTZ-JKFIT
	 Reference Energy          =    -418.7665137809422617 [Eh]
	 Singles Energy            =      -0.0000000000000000 [Eh]
	 Same-Spin Energy          =      -0.4082354649821081 [Eh]
	 Opposite-Spin Energy      =      -1.2867341312788119 [Eh]
	 Correlation Energy        =      -1.6949695962609199 [Eh]
	 Total Energy              =    -420.4614833772031943 [Eh]

	 ================> DF-SCS-MP2 Energies <==================
	-----------------------------------------------------------
	 SCS Same-Spin Scale       =       0.3333333333333333 [-]
	 SCS Opposite-Spin Scale   =       1.2000000000000000 [-]
	 SCS Same-Spin Energy      =      -0.1360784883273694 [Eh]
	 SCS Opposite-Spin Energy  =      -1.5440809575345742 [Eh]
	 SCS Correlation Energy    =      -1.6801594458619435 [Eh]
	 SCS Total Energy          =    -420.4466732268041937 [Eh]
	-----------------------------------------------------------

  Dipole Moment: [D]
     X:    -1.1606      Y:     0.8980      Z:    -2.4958     Total:     2.8953

*** Psi4 exiting successfully. Buy a developer a beer!
