                               Psi4 1.4a3.dev225

  ==> Input File <==

--------------------------------------------------------------------------
#psi4
#
memory 32 gb

molecule  {
0 1
  O        1.1896460     1.3864710    -0.7896670
  O       -2.9164350     0.0620530     0.2465870
  O       -1.2994600    -1.1722570    -0.7513140
  C        1.5277270    -0.5390120     0.6173550
  C        0.7330570     0.6116870     0.0446410
  C       -0.6915030     0.7929470     0.5540020
  C        2.9119880    -0.6669770    -0.0005940
  C       -1.6259000    -0.2196380    -0.0638170
  H        1.5906630    -0.3916430     1.7048170
  H        0.9378800    -1.4511620     0.4690430
  H       -0.7449460     0.6872940     1.6445860
  H       -1.0362610     1.7983420     0.2961770
  H        3.4930330     0.2441750     0.1549910
  H        3.4532110    -1.5066350     0.4428820
  H        2.8367130    -0.8315610    -1.0772290
  H       -3.4251652    -0.5975352    -0.1673867
units angstrom
no_reorient  #important for SAPT in psi4, default
symmetry c1  #important for SAPT in psi4, default
}

set PROPERTIES_ORIGIN ["COM"]
properties('MP2/aug-cc-pvtz', properties = ['dipole'])
--------------------------------------------------------------------------

    Molecular point group: c1
  Charge       = 0
  Multiplicity = 1
  Basis Set: AUG-CC-PVTZ
    Blend: AUG-CC-PVTZ
  Basis Set: (AUG-CC-PVTZ AUX)
    Blend: AUG-CC-PVTZ-JKFIT

    Orbital Energies [Eh]
    ---------------------

    Doubly Occupied:

       1A    -20.629702     2A    -20.571725     3A    -20.557000
       4A    -11.414913     5A    -11.344640     6A    -11.272133
       7A    -11.242439     8A    -11.217868     9A     -1.486626
      10A     -1.388899    11A     -1.380069    12A     -1.085384
      13A     -1.042477    14A     -0.904357    15A     -0.847338
      16A     -0.742809    17A     -0.724607    18A     -0.708136
      19A     -0.680797    20A     -0.650590    21A     -0.633081
      22A     -0.626234    23A     -0.601206    24A     -0.577806
      25A     -0.526304    26A     -0.518125    27A     -0.515786
      28A     -0.504013    29A     -0.490732    30A     -0.470367
      31A     -0.424878

  @DF-RHF Final Energy:  -418.76820411982339

   => Energetics <=

    Nuclear Repulsion Energy =            372.1422137880339278
    One-Electron Energy =               -1310.2587538714099082
    Two-Electron Energy =                 519.3483359635525858
    Total Energy =                       -418.7682041198233946
  Basis Set: (AUG-CC-PVTZ AUX)
    Blend: AUG-CC-PVTZ-RI
    Molecular point group: c1

    Geometry (in Angstrom), charge = 0, multiplicity = 1:

       Center              X                  Y                   Z               Mass
    ------------   -----------------  -----------------  -----------------  -----------------
         O            1.249789045682     1.368356026732    -0.760457706459    15.994914619570
         O           -2.856291954318     0.043938026732     0.275796293541    15.994914619570
         O           -1.239316954318    -1.190371973268    -0.722104706459    15.994914619570
         C            1.587870045682    -0.557126973268     0.646564293541    12.000000000000
         C            0.793200045682     0.593572026732     0.073850293541    12.000000000000
         C           -0.631359954318     0.774832026732     0.583211293541    12.000000000000
         C            2.972131045682    -0.685091973268     0.028615293541    12.000000000000
         C           -1.565756954318    -0.237752973268    -0.034607706459    12.000000000000
         H            1.650806045682    -0.409757973268     1.734026293541     1.007825032230
         H            0.998023045682    -1.469276973268     0.498252293541     1.007825032230
         H           -0.684802954318     0.669179026732     1.673795293541     1.007825032230
         H           -0.976117954318     1.780227026732     0.325386293541     1.007825032230
         H            3.553176045682     0.226060026732     0.184200293541     1.007825032230
         H            3.513354045682    -1.524749973268     0.472091293541     1.007825032230
         H            2.896856045682    -0.849675973268    -1.048019706459     1.007825032230
         H           -3.365022154318    -0.615650173268    -0.138177406459     1.007825032230

  Basis Set: AUG-CC-PVTZ
    Blend: AUG-CC-PVTZ
  Basis Set: (AUG-CC-PVTZ AUX)
    Blend: AUG-CC-PVTZ-JKFIT
	 Reference Energy          =    -418.7682041198233946 [Eh]
	 Singles Energy            =      -0.0000000000000000 [Eh]
	 Same-Spin Energy          =      -0.4075752777824929 [Eh]
	 Opposite-Spin Energy      =      -1.2853677653351532 [Eh]
	 Correlation Energy        =      -1.6929430431176460 [Eh]
	 Total Energy              =    -420.4611471629410175 [Eh]

	 ================> DF-SCS-MP2 Energies <==================
	-----------------------------------------------------------
	 SCS Same-Spin Scale       =       0.3333333333333333 [-]
	 SCS Opposite-Spin Scale   =       1.2000000000000000 [-]
	 SCS Same-Spin Energy      =      -0.1358584259274976 [Eh]
	 SCS Opposite-Spin Energy  =      -1.5424413184021837 [Eh]
	 SCS Correlation Energy    =      -1.6782997443296812 [Eh]
	 SCS Total Energy          =    -420.4465038641531009 [Eh]
	-----------------------------------------------------------

  Dipole Moment: [D]
     X:    -1.3760      Y:    -0.7609      Z:     2.6036     Total:     3.0415

*** Psi4 exiting successfully. Buy a developer a beer!
