                               Psi4 1.4a3.dev225

  ==> Input File <==

--------------------------------------------------------------------------
#psi4
#
memory 32 gb

molecule  {
0 1
  O        1.1896460     1.3864710    -0.7896670
  O       -2.9164350     0.0620530     0.2465870
  O       -1.2994600    -1.1722570    -0.7513140
  C        1.5277270    -0.5390120     0.6173550
  C        0.7225397     0.6269163     0.0370612
  C       -0.6915030     0.7929470     0.5540020
  C        2.9119880    -0.6669770    -0.0005940
  C       -1.6259000    -0.2196380    -0.0638170
  H        1.5906630    -0.3916430     1.7048170
  H        0.9378800    -1.4511620     0.4690430
  H       -0.7449460     0.6872940     1.6445860
  H       -1.0362610     1.7983420     0.2961770
  H        3.4930330     0.2441750     0.1549910
  H        3.4532110    -1.5066350     0.4428820
  H        2.8367130    -0.8315610    -1.0772290
  H       -3.4525110    -0.6329900    -0.1896390
units angstrom
no_reorient  #important for SAPT in psi4, default
symmetry c1  #important for SAPT in psi4, default
}

set PROPERTIES_ORIGIN ["COM"]
properties('MP2/aug-cc-pvtz', properties = ['dipole'])
--------------------------------------------------------------------------

    Molecular point group: c1
  Charge       = 0
  Multiplicity = 1
  Basis Set: AUG-CC-PVTZ
    Blend: AUG-CC-PVTZ
  Basis Set: (AUG-CC-PVTZ AUX)
    Blend: AUG-CC-PVTZ-JKFIT

    Orbital Energies [Eh]
    ---------------------

    Doubly Occupied:

       1A    -20.633321     2A    -20.570989     3A    -20.557681
       4A    -11.414394     5A    -11.343321     6A    -11.271713
       7A    -11.241285     8A    -11.216734     9A     -1.478941
      10A     -1.395227    11A     -1.376040    12A     -1.084046
      13A     -1.039557    14A     -0.898829    15A     -0.840320
      16A     -0.742542    17A     -0.719759    18A     -0.707389
      19A     -0.680981    20A     -0.649236    21A     -0.630807
      22A     -0.627515    23A     -0.598484    24A     -0.577713
      25A     -0.525720    26A     -0.519108    27A     -0.515506
      28A     -0.503373    29A     -0.490734    30A     -0.470276
      31A     -0.422236

  @DF-RHF Final Energy:  -418.76816388021473

   => Energetics <=

    Nuclear Repulsion Energy =            371.8765839666415332
    One-Electron Energy =               -1309.8019453812560187
    Two-Electron Energy =                 519.1571975343997565
    Total Energy =                       -418.7681638802147290
  Basis Set: (AUG-CC-PVTZ AUX)
    Blend: AUG-CC-PVTZ-RI
    Molecular point group: c1

    Geometry (in Angstrom), charge = 0, multiplicity = 1:

       Center              X                  Y                   Z               Mass
    ------------   -----------------  -----------------  -----------------  -----------------
         O            1.251114085759     1.367089135480    -0.759480656740    15.994914619570
         O           -2.854966914241     0.042671135480     0.276773343260    15.994914619570
         O           -1.237991914241    -1.191638864520    -0.721127656740    15.994914619570
         C            1.589195085759    -0.558393864520     0.647541343260    12.000000000000
         C            0.784007785759     0.607534435480     0.067247543260    12.000000000000
         C           -0.630034914241     0.773565135480     0.584188343260    12.000000000000
         C            2.973456085759    -0.686358864520     0.029592343260    12.000000000000
         C           -1.564431914241    -0.239019864520    -0.033630656740    12.000000000000
         H            1.652131085759    -0.411024864520     1.735003343260     1.007825032230
         H            0.999348085759    -1.470543864520     0.499229343260     1.007825032230
         H           -0.683477914241     0.667912135480     1.674772343260     1.007825032230
         H           -0.974792914241     1.778960135480     0.326363343260     1.007825032230
         H            3.554501085759     0.224793135480     0.185177343260     1.007825032230
         H            3.514679085759    -1.526016864520     0.473068343260     1.007825032230
         H            2.898181085759    -0.850942864520    -1.047042656740     1.007825032230
         H           -3.391042914241    -0.652371864520    -0.159452656740     1.007825032230

  Basis Set: AUG-CC-PVTZ
    Blend: AUG-CC-PVTZ
  Basis Set: (AUG-CC-PVTZ AUX)
    Blend: AUG-CC-PVTZ-JKFIT
	 Reference Energy          =    -418.7681638802147290 [Eh]
	 Singles Energy            =      -0.0000000000000000 [Eh]
	 Same-Spin Energy          =      -0.4078982637626984 [Eh]
	 Opposite-Spin Energy      =      -1.2861925101360987 [Eh]
	 Correlation Energy        =      -1.6940907738987971 [Eh]
	 Total Energy              =    -420.4622546541135080 [Eh]

	 ================> DF-SCS-MP2 Energies <==================
	-----------------------------------------------------------
	 SCS Same-Spin Scale       =       0.3333333333333333 [-]
	 SCS Opposite-Spin Scale   =       1.2000000000000000 [-]
	 SCS Same-Spin Energy      =      -0.1359660879208995 [Eh]
	 SCS Opposite-Spin Energy  =      -1.5434310121633183 [Eh]
	 SCS Correlation Energy    =      -1.6793971000842178 [Eh]
	 SCS Total Energy          =    -420.4475609802989311 [Eh]
	-----------------------------------------------------------

  Dipole Moment: [D]
     X:    -1.4858      Y:    -0.7305      Z:     2.5460     Total:     3.0370

*** Psi4 exiting successfully. Buy a developer a beer!
