                               Psi4 1.3.2 release

  ==> Input File <==

--------------------------------------------------------------------------
#psi4
#
memory 32 gb

molecule  {
0 1
  O        1.2197630    -1.3791890     0.7815710
  O       -2.8694665    -0.0166313    -0.2561060
  O       -1.2471260     1.2289340     0.6316900
  C        1.6098530     0.5514350    -0.6010430
  C        0.7924890    -0.5949300    -0.0578730
  C       -0.5554830    -0.7246422    -0.5807141
  C        2.9660570     0.6794250     0.0724790
  C       -1.5616300     0.2444870    -0.0131750
  H        1.7167540     0.3993790    -1.6843760
  H        1.0152770     1.4637510    -0.4819620
  H       -0.6366420    -0.6467360    -1.7011060
  H       -0.9720840    -1.7722110    -0.3761960
  H        3.5474250    -0.2360290    -0.0491480
  H        3.5302360     1.5116820    -0.3550310
  H        2.8465530     0.8548240     1.1430380
  H       -3.3901630     0.6286630     0.1252190
units angstrom
no_reorient  #important for SAPT in psi4, default
symmetry c1  #important for SAPT in psi4, default
}

set PROPERTIES_ORIGIN ["COM"]
properties('MP2/aug-cc-pvtz', properties = ['dipole'])
--------------------------------------------------------------------------

    Molecular point group: c1
  Charge       = 0
  Multiplicity = 1
  Basis Set: AUG-CC-PVTZ
    Blend: AUG-CC-PVTZ
  Basis Set: (AUG-CC-PVTZ AUX)
    Blend: AUG-CC-PVTZ-JKFIT

    Orbital Energies [Eh]
    ---------------------

    Doubly Occupied:

       1A    -20.625731     2A    -20.565211     3A    -20.558805
       4A    -11.414934     5A    -11.342493     6A    -11.278937
       7A    -11.240946     8A    -11.217064     9A     -1.487737
      10A     -1.392606    11A     -1.376874    12A     -1.094551
      13A     -1.042860    14A     -0.910966    15A     -0.854435
      16A     -0.750035    17A     -0.725316    18A     -0.707771
      19A     -0.681387    20A     -0.653754    21A     -0.633609
      22A     -0.631488    23A     -0.594997    24A     -0.569981
      25A     -0.522375    26A     -0.518168    27A     -0.514693
      28A     -0.500331    29A     -0.489440    30A     -0.465727
      31A     -0.432486

  @DF-RHF Final Energy:  -418.75940436079168

   => Energetics <=

    Nuclear Repulsion Energy =            373.4107471203211048
    One-Electron Energy =               -1312.7488864503975492
    Two-Electron Energy =                 520.5787349692848238
    Total Energy =                       -418.7594043607916774
  Basis Set: (AUG-CC-PVTZ AUX)
    Blend: AUG-CC-PVTZ-RI
    Molecular point group: c1

    Geometry (in Angstrom), charge = 0, multiplicity = 1:

       Center              X                  Y                   Z               Mass
    ------------   -----------------  -----------------  -----------------  -----------------
         O            1.216331930202    -1.391429948422     0.773482275073    15.994914619570
         O           -2.872897569798    -0.028872248422    -0.264194724927    15.994914619570
         O           -1.250557069798     1.216693051578     0.623601275073    15.994914619570
         C            1.606421930202     0.539194051578    -0.609131724927    12.000000000000
         C            0.789057930202    -0.607170948422    -0.065961724927    12.000000000000
         C           -0.558914069798    -0.736883148422    -0.588802824927    12.000000000000
         C            2.962625930202     0.667184051578     0.064390275073    12.000000000000
         C           -1.565061069798     0.232246051578    -0.021263724927    12.000000000000
         H            1.713322930202     0.387138051578    -1.692464724927     1.007825032230
         H            1.011845930202     1.451510051578    -0.490050724927     1.007825032230
         H           -0.640073069798    -0.658976948422    -1.709194724927     1.007825032230
         H           -0.975515069798    -1.784451948422    -0.384284724927     1.007825032230
         H            3.543993930202    -0.248269948422    -0.057236724927     1.007825032230
         H            3.526804930202     1.499441051578    -0.363119724927     1.007825032230
         H            2.843121930202     0.842583051578     1.134949275073     1.007825032230
         H           -3.393594069798     0.616422051578     0.117130275073     1.007825032230

  Basis Set: AUG-CC-PVTZ
    Blend: AUG-CC-PVTZ
  Basis Set: (AUG-CC-PVTZ AUX)
    Blend: AUG-CC-PVTZ-JKFIT
	 Reference Energy          =    -418.7594043607916774 [Eh]
	 Singles Energy            =      -0.0000000000000000 [Eh]
	 Same-Spin Energy          =      -0.4076723788195653 [Eh]
	 Opposite-Spin Energy      =      -1.2848882692102350 [Eh]
	 Correlation Energy        =      -1.6925606480298003 [Eh]
	 Total Energy              =    -420.4519650088215030 [Eh]

	 ================> DF-SCS-MP2 Energies <==================
	-----------------------------------------------------------
	 SCS Same-Spin Scale       =       0.3333333333333333 [-]
	 SCS Opposite-Spin Scale   =       1.2000000000000000 [-]
	 SCS Same-Spin Energy      =      -0.1358907929398551 [Eh]
	 SCS Opposite-Spin Energy  =      -1.5418659230522820 [Eh]
	 SCS Correlation Energy    =      -1.6777567159921372 [Eh]
	 SCS Total Energy          =    -420.4371610767838092 [Eh]
	-----------------------------------------------------------

  Dipole Moment: [D]
     X:    -1.3182      Y:     0.6703      Z:    -2.6374     Total:     3.0238

*** Psi4 exiting successfully. Buy a developer a beer!
