                               Psi4 1.4a3.dev225

  ==> Input File <==

--------------------------------------------------------------------------
#psi4
#
memory 32 gb

molecule  {
0 1
  O        1.1896460     1.3864710    -0.7896670
  O       -2.9164350     0.0620530     0.2465870
  O       -1.2994600    -1.1722570    -0.7513140
  C        1.5277270    -0.5390120     0.6173550
  C        0.7330570     0.6116870     0.0446410
  C       -0.6447564     0.7869990     0.5372874
  C        2.9119880    -0.6669770    -0.0005940
  C       -1.6259000    -0.2196380    -0.0638170
  H        1.5906630    -0.3916430     1.7048170
  H        0.9378800    -1.4511620     0.4690430
  H       -0.7449460     0.6872940     1.6445860
  H       -1.0362610     1.7983420     0.2961770
  H        3.4930330     0.2441750     0.1549910
  H        3.4532110    -1.5066350     0.4428820
  H        2.8367130    -0.8315610    -1.0772290
  H       -3.4525110    -0.6329900    -0.1896390
units angstrom
no_reorient  #important for SAPT in psi4, default
symmetry c1  #important for SAPT in psi4, default
}

set PROPERTIES_ORIGIN ["COM"]
properties('MP2/aug-cc-pvtz', properties = ['dipole'])
--------------------------------------------------------------------------

    Molecular point group: c1
  Charge       = 0
  Multiplicity = 1
  Basis Set: AUG-CC-PVTZ
    Blend: AUG-CC-PVTZ
  Basis Set: (AUG-CC-PVTZ AUX)
    Blend: AUG-CC-PVTZ-JKFIT

    Orbital Energies [Eh]
    ---------------------

    Doubly Occupied:

       1A    -20.634981     2A    -20.569881     3A    -20.556292
       4A    -11.415465     5A    -11.341550     6A    -11.274009
       7A    -11.241692     8A    -11.217390     9A     -1.478991
      10A     -1.389199    11A     -1.375734    12A     -1.087566
      13A     -1.040220    14A     -0.902399    15A     -0.842129
      16A     -0.744460    17A     -0.719871    18A     -0.705925
      19A     -0.678864    20A     -0.652938    21A     -0.632213
      22A     -0.629054    23A     -0.595837    24A     -0.572588
      25A     -0.523721    26A     -0.517558    27A     -0.514847
      28A     -0.502646    29A     -0.489918    30A     -0.466563
      31A     -0.428652

  @DF-RHF Final Energy:  -418.76487006901345

   => Energetics <=

    Nuclear Repulsion Energy =            372.2556745920696244
    One-Electron Energy =               -1310.5547831329911332
    Two-Electron Energy =                 519.5342384719079973
    Total Energy =                       -418.7648700690134547
  Basis Set: (AUG-CC-PVTZ AUX)
    Blend: AUG-CC-PVTZ-RI
    Molecular point group: c1

    Geometry (in Angstrom), charge = 0, multiplicity = 1:

       Center              X                  Y                   Z               Mass
    ------------   -----------------  -----------------  -----------------  -----------------
         O            1.245192650803     1.369278996885    -0.758536062955    15.994914619570
         O           -2.860888349197     0.044860996885     0.277717937045    15.994914619570
         O           -1.243913349197    -1.189449003115    -0.720183062955    15.994914619570
         C            1.583273650803    -0.556204003115     0.648485937045    12.000000000000
         C            0.788603650803     0.594494996885     0.075771937045    12.000000000000
         C           -0.589209749197     0.769806996885     0.568418337045    12.000000000000
         C            2.967534650803    -0.684169003115     0.030536937045    12.000000000000
         C           -1.570353349197    -0.236830003115    -0.032686062955    12.000000000000
         H            1.646209650803    -0.408835003115     1.735947937045     1.007825032230
         H            0.993426650803    -1.468354003115     0.500173937045     1.007825032230
         H           -0.689399349197     0.670101996885     1.675716937045     1.007825032230
         H           -0.980714349197     1.781149996885     0.327307937045     1.007825032230
         H            3.548579650803     0.226982996885     0.186121937045     1.007825032230
         H            3.508757650803    -1.523827003115     0.474012937045     1.007825032230
         H            2.892259650803    -0.848753003115    -1.046098062955     1.007825032230
         H           -3.396964349197    -0.650182003115    -0.158508062955     1.007825032230

  Basis Set: AUG-CC-PVTZ
    Blend: AUG-CC-PVTZ
  Basis Set: (AUG-CC-PVTZ AUX)
    Blend: AUG-CC-PVTZ-JKFIT
	 Reference Energy          =    -418.7648700690134547 [Eh]
	 Singles Energy            =      -0.0000000000000000 [Eh]
	 Same-Spin Energy          =      -0.4084355409890198 [Eh]
	 Opposite-Spin Energy      =      -1.2870128501294271 [Eh]
	 Correlation Energy        =      -1.6954483911184468 [Eh]
	 Total Energy              =    -420.4603184601319299 [Eh]

	 ================> DF-SCS-MP2 Energies <==================
	-----------------------------------------------------------
	 SCS Same-Spin Scale       =       0.3333333333333333 [-]
	 SCS Opposite-Spin Scale   =       1.2000000000000000 [-]
	 SCS Same-Spin Energy      =      -0.1361451803296733 [Eh]
	 SCS Opposite-Spin Energy  =      -1.5444154201553124 [Eh]
	 SCS Correlation Energy    =      -1.6805606004849856 [Eh]
	 SCS Total Energy          =    -420.4454306694984211 [Eh]
	-----------------------------------------------------------

  Dipole Moment: [D]
     X:    -1.5109      Y:    -0.7972      Z:     2.5949     Total:     3.1067

*** Psi4 exiting successfully. Buy a developer a beer!
