                               Psi4 1.3.2 release

  ==> Input File <==

--------------------------------------------------------------------------
#psi4
#
memory 32 gb

molecule  {
0 1
  O        1.2197630    -1.3791890     0.7815710
  O       -2.8493200    -0.0743410    -0.2921690
  O       -1.2471260     1.2289340     0.6316900
  C        1.6098530     0.5514350    -0.6010430
  C        0.7924890    -0.5949300    -0.0578730
  C       -0.6155180    -0.7660970    -0.6108670
  C        2.9660570     0.6794250     0.0724790
  C       -1.6871206     0.3785291     0.0661018
  H        1.7167540     0.3993790    -1.6843760
  H        1.0152770     1.4637510    -0.4819620
  H       -0.6366420    -0.6467360    -1.7011060
  H       -0.9720840    -1.7722110    -0.3761960
  H        3.5474250    -0.2360290    -0.0491480
  H        3.5302360     1.5116820    -0.3550310
  H        2.8465530     0.8548240     1.1430380
  H       -3.3901630     0.6286630     0.1252190
units angstrom
no_reorient  #important for SAPT in psi4, default
symmetry c1  #important for SAPT in psi4, default
}

set PROPERTIES_ORIGIN ["COM"]
properties('MP2/aug-cc-pvtz', properties = ['dipole'])
--------------------------------------------------------------------------

    Molecular point group: c1
  Charge       = 0
  Multiplicity = 1
  Basis Set: AUG-CC-PVTZ
    Blend: AUG-CC-PVTZ
  Basis Set: (AUG-CC-PVTZ AUX)
    Blend: AUG-CC-PVTZ-JKFIT

    Orbital Energies [Eh]
    ---------------------

    Doubly Occupied:

       1A    -20.655824     2A    -20.587703     3A    -20.542657
       4A    -11.410852     5A    -11.328588     6A    -11.248850
       7A    -11.234168     8A    -11.212041     9A     -1.538416
      10A     -1.456675    11A     -1.374888    12A     -1.061078
      13A     -1.006614    14A     -0.889565    15A     -0.842702
      16A     -0.763273    17A     -0.731973    18A     -0.719176
      19A     -0.697666    20A     -0.649875    21A     -0.640738
      22A     -0.615164    23A     -0.603607    24A     -0.566432
      25A     -0.545778    26A     -0.517568    27A     -0.513267
      28A     -0.507727    29A     -0.484892    30A     -0.435546
      31A     -0.405956

  @DF-RHF Final Energy:  -418.72821504969460

   => Energetics <=

    Nuclear Repulsion Energy =            372.2728024408157239
    One-Electron Energy =               -1310.4235188959896732
    Two-Electron Energy =                 519.4225014054794656
    Total Energy =                       -418.7282150496945405
  Basis Set: (AUG-CC-PVTZ AUX)
    Blend: AUG-CC-PVTZ-RI
    Molecular point group: c1

    Geometry (in Angstrom), charge = 0, multiplicity = 1:

       Center              X                  Y                   Z               Mass
    ------------   -----------------  -----------------  -----------------  -----------------
         O            1.232739592670    -1.393049855169     0.773373162761    15.994914619570
         O           -2.836343407330    -0.088201855169    -0.300366837239    15.994914619570
         O           -1.234149407330     1.215073144831     0.623492162761    15.994914619570
         C            1.622829592670     0.537574144831    -0.609240837239    12.000000000000
         C            0.805465592670    -0.608790855169    -0.066070837239    12.000000000000
         C           -0.602541407330    -0.779957855169    -0.619064837239    12.000000000000
         C            2.979033592670     0.665564144831     0.064281162761    12.000000000000
         C           -1.674144007330     0.364668244831     0.057903962761    12.000000000000
         H            1.729730592670     0.385518144831    -1.692573837239     1.007825032230
         H            1.028253592670     1.449890144831    -0.490159837239     1.007825032230
         H           -0.623665407330    -0.660596855169    -1.709303837239     1.007825032230
         H           -0.959107407330    -1.786071855169    -0.384393837239     1.007825032230
         H            3.560401592670    -0.249889855169    -0.057345837239     1.007825032230
         H            3.543212592670     1.497821144831    -0.363228837239     1.007825032230
         H            2.859529592670     0.840963144831     1.134840162761     1.007825032230
         H           -3.377186407330     0.614802144831     0.117021162761     1.007825032230

  Basis Set: AUG-CC-PVTZ
    Blend: AUG-CC-PVTZ
  Basis Set: (AUG-CC-PVTZ AUX)
    Blend: AUG-CC-PVTZ-JKFIT
	 Reference Energy          =    -418.7282150496945974 [Eh]
	 Singles Energy            =      -0.0000000000000000 [Eh]
	 Same-Spin Energy          =      -0.4068640825545071 [Eh]
	 Opposite-Spin Energy      =      -1.2833047793233008 [Eh]
	 Correlation Energy        =      -1.6901688618778079 [Eh]
	 Total Energy              =    -420.4183839115723913 [Eh]

	 ================> DF-SCS-MP2 Energies <==================
	-----------------------------------------------------------
	 SCS Same-Spin Scale       =       0.3333333333333333 [-]
	 SCS Opposite-Spin Scale   =       1.2000000000000000 [-]
	 SCS Same-Spin Energy      =      -0.1356213608515024 [Eh]
	 SCS Opposite-Spin Energy  =      -1.5399657351879610 [Eh]
	 SCS Correlation Energy    =      -1.6755870960394634 [Eh]
	 SCS Total Energy          =    -420.4038021457340619 [Eh]
	-----------------------------------------------------------

  Dipole Moment: [D]
     X:    -2.4331      Y:     1.6405      Z:    -2.0896     Total:     3.6024

*** Psi4 exiting successfully. Buy a developer a beer!
