                               Psi4 1.3.2 release

  ==> Input File <==

--------------------------------------------------------------------------
#psi4
#
memory 32 gb

molecule  {
0 1
  O        1.2197630    -1.3791890     0.7815710
  O       -2.8493200    -0.0743410    -0.2921690
  O       -1.2471260     1.2289340     0.6316900
  C        1.6098530     0.5514350    -0.6010430
  C        0.7924890    -0.5949300    -0.0578730
  C       -0.6155180    -0.7660970    -0.6108670
  C        2.9660570     0.6794250     0.0724790
  C       -1.5780158     0.2693113    -0.0862993
  H        1.7167540     0.3993790    -1.6843760
  H        1.0152770     1.4637510    -0.4819620
  H       -0.6748473    -0.6044142    -1.6942197
  H       -0.9720840    -1.7722110    -0.3761960
  H        3.5474250    -0.2360290    -0.0491480
  H        3.5302360     1.5116820    -0.3550310
  H        2.8465530     0.8548240     1.1430380
  H       -3.3901630     0.6286630     0.1252190
units angstrom
no_reorient  #important for SAPT in psi4, default
symmetry c1  #important for SAPT in psi4, default
}

set PROPERTIES_ORIGIN ["COM"]
properties('MP2/aug-cc-pvtz', properties = ['dipole'])
--------------------------------------------------------------------------

    Molecular point group: c1
  Charge       = 0
  Multiplicity = 1
  Basis Set: AUG-CC-PVTZ
    Blend: AUG-CC-PVTZ
  Basis Set: (AUG-CC-PVTZ AUX)
    Blend: AUG-CC-PVTZ-JKFIT

    Orbital Energies [Eh]
    ---------------------

    Doubly Occupied:

       1A    -20.639906     2A    -20.564950     3A    -20.556999
       4A    -11.414987     5A    -11.344893     6A    -11.272107
       7A    -11.240504     8A    -11.216519     9A     -1.485643
      10A     -1.388883    11A     -1.364623    12A     -1.085191
      13A     -1.042234    14A     -0.903472    15A     -0.845378
      16A     -0.744473    17A     -0.720704    18A     -0.705132
      19A     -0.683468    20A     -0.650328    21A     -0.630938
      22A     -0.627141    23A     -0.591834    24A     -0.579673
      25A     -0.526158    26A     -0.517072    27A     -0.514277
      28A     -0.498117    29A     -0.485636    30A     -0.465474
      31A     -0.425621

  @DF-RHF Final Energy:  -418.76178627718508

   => Energetics <=

    Nuclear Repulsion Energy =            372.0284822983652475
    One-Electron Energy =               -1310.1158680330129300
    Two-Electron Energy =                 519.3255994574625447
    Total Energy =                       -418.7617862771851378
  Basis Set: (AUG-CC-PVTZ AUX)
    Blend: AUG-CC-PVTZ-RI
    Molecular point group: c1

    Geometry (in Angstrom), charge = 0, multiplicity = 1:

       Center              X                  Y                   Z               Mass
    ------------   -----------------  -----------------  -----------------  -----------------
         O            1.221789291722    -1.382123619501     0.789072557076    15.994914619570
         O           -2.847293708278    -0.077275619501    -0.284667442924    15.994914619570
         O           -1.245099708278     1.225999380499     0.639191557076    15.994914619570
         C            1.611879291722     0.548500380499    -0.593541442924    12.000000000000
         C            0.794515291722    -0.597864619501    -0.050371442924    12.000000000000
         C           -0.613491708278    -0.769031619501    -0.603365442924    12.000000000000
         C            2.968083291722     0.676490380499     0.079980557076    12.000000000000
         C           -1.575989508278     0.266376680499    -0.078797742924    12.000000000000
         H            1.718780291722     0.396444380499    -1.676874442924     1.007825032230
         H            1.017303291722     1.460816380499    -0.474460442924     1.007825032230
         H           -0.672821008278    -0.607348819501    -1.686718142924     1.007825032230
         H           -0.970057708278    -1.775145619501    -0.368694442924     1.007825032230
         H            3.549451291722    -0.238963619501    -0.041646442924     1.007825032230
         H            3.532262291722     1.508747380499    -0.347529442924     1.007825032230
         H            2.848579291722     0.851889380499     1.150539557076     1.007825032230
         H           -3.388136708278     0.625728380499     0.132720557076     1.007825032230

  Basis Set: AUG-CC-PVTZ
    Blend: AUG-CC-PVTZ
  Basis Set: (AUG-CC-PVTZ AUX)
    Blend: AUG-CC-PVTZ-JKFIT
	 Reference Energy          =    -418.7617862771850810 [Eh]
	 Singles Energy            =      -0.0000000000000000 [Eh]
	 Same-Spin Energy          =      -0.4088112097638354 [Eh]
	 Opposite-Spin Energy      =      -1.2875138943534035 [Eh]
	 Correlation Energy        =      -1.6963251041172389 [Eh]
	 Total Energy              =    -420.4581113813023308 [Eh]

	 ================> DF-SCS-MP2 Energies <==================
	-----------------------------------------------------------
	 SCS Same-Spin Scale       =       0.3333333333333333 [-]
	 SCS Opposite-Spin Scale   =       1.2000000000000000 [-]
	 SCS Same-Spin Energy      =      -0.1362704032546118 [Eh]
	 SCS Opposite-Spin Energy  =      -1.5450166732240842 [Eh]
	 SCS Correlation Energy    =      -1.6812870764786960 [Eh]
	 SCS Total Energy          =    -420.4430733536637490 [Eh]
	-----------------------------------------------------------

  Dipole Moment: [D]
     X:    -1.5332      Y:     0.7298      Z:    -2.6840     Total:     3.1760

*** Psi4 exiting successfully. Buy a developer a beer!
