                               Psi4 1.3.2 release

  ==> Input File <==

--------------------------------------------------------------------------
#psi4
#
memory 32 gb

molecule  {
0 1
  O        1.2197630    -1.3791890     0.7815710
  O       -2.8493200    -0.0743410    -0.2921690
  O       -1.2471260     1.2289340     0.6316900
  C        1.6098530     0.5514350    -0.6010430
  C        0.7927669    -0.5825114    -0.0625841
  C       -0.6155180    -0.7660970    -0.6108670
  C        2.9660570     0.6794250     0.0724790
  C       -1.5616300     0.2444870    -0.0131750
  H        1.7167540     0.3993790    -1.6843760
  H        1.0152770     1.4637510    -0.4819620
  H       -0.6366420    -0.6467360    -1.7011060
  H       -0.9803278    -1.7702668    -0.3805805
  H        3.5474250    -0.2360290    -0.0491480
  H        3.5302360     1.5116820    -0.3550310
  H        2.8465530     0.8548240     1.1430380
  H       -3.3901630     0.6286630     0.1252190
units angstrom
no_reorient  #important for SAPT in psi4, default
symmetry c1  #important for SAPT in psi4, default
}

set PROPERTIES_ORIGIN ["COM"]
properties('MP2/aug-cc-pvtz', properties = ['dipole'])
--------------------------------------------------------------------------

    Molecular point group: c1
  Charge       = 0
  Multiplicity = 1
  Basis Set: AUG-CC-PVTZ
    Blend: AUG-CC-PVTZ
  Basis Set: (AUG-CC-PVTZ AUX)
    Blend: AUG-CC-PVTZ-JKFIT

    Orbital Energies [Eh]
    ---------------------

    Doubly Occupied:

       1A    -20.632947     2A    -20.570494     3A    -20.555756
       4A    -11.413410     5A    -11.345092     6A    -11.271804
       7A    -11.241932     8A    -11.217702     9A     -1.479629
      10A     -1.382303    11A     -1.375396    12A     -1.086398
      13A     -1.043329    14A     -0.903605    15A     -0.839936
      16A     -0.742788    17A     -0.719769    18A     -0.707604
      19A     -0.680330    20A     -0.648521    21A     -0.632913
      22A     -0.624683    23A     -0.598794    24A     -0.576084
      25A     -0.526198    26A     -0.517791    27A     -0.514232
      28A     -0.502551    29A     -0.489906    30A     -0.468223
      31A     -0.426465

  @DF-RHF Final Energy:  -418.76632159230229

   => Energetics <=

    Nuclear Repulsion Energy =            372.2297592743273071
    One-Electron Energy =               -1310.5189885751080965
    Two-Electron Energy =                 519.5229077084784421
    Total Energy =                       -418.7663215923023472
  Basis Set: (AUG-CC-PVTZ AUX)
    Blend: AUG-CC-PVTZ-RI
    Molecular point group: c1

    Geometry (in Angstrom), charge = 0, multiplicity = 1:

       Center              X                  Y                   Z               Mass
    ------------   -----------------  -----------------  -----------------  -----------------
         O            1.219805960251    -1.380490131397     0.782096099219    15.994914619570
         O           -2.849277039749    -0.075642131397    -0.291643900781    15.994914619570
         O           -1.247083039749     1.227632868603     0.632215099219    15.994914619570
         C            1.609895960251     0.550133868603    -0.600517900781    12.000000000000
         C            0.792809860251    -0.583812531397    -0.062059000781    12.000000000000
         C           -0.615475039749    -0.767398131397    -0.610341900781    12.000000000000
         C            2.966099960251     0.678123868603     0.073004099219    12.000000000000
         C           -1.561587039749     0.243185868603    -0.012649900781    12.000000000000
         H            1.716796960251     0.398077868603    -1.683850900781     1.007825032230
         H            1.015319960251     1.462449868603    -0.481436900781     1.007825032230
         H           -0.636599039749    -0.648037131397    -1.700580900781     1.007825032230
         H           -0.980284839749    -1.771567931397    -0.380055400781     1.007825032230
         H            3.547467960251    -0.237330131397    -0.048622900781     1.007825032230
         H            3.530278960251     1.510380868603    -0.354505900781     1.007825032230
         H            2.846595960251     0.853522868603     1.143563099219     1.007825032230
         H           -3.390120039749     0.627361868603     0.125744099219     1.007825032230

  Basis Set: AUG-CC-PVTZ
    Blend: AUG-CC-PVTZ
  Basis Set: (AUG-CC-PVTZ AUX)
    Blend: AUG-CC-PVTZ-JKFIT
	 Reference Energy          =    -418.7663215923022904 [Eh]
	 Singles Energy            =      -0.0000000000000000 [Eh]
	 Same-Spin Energy          =      -0.4085895121023306 [Eh]
	 Opposite-Spin Energy      =      -1.2872798937991141 [Eh]
	 Correlation Energy        =      -1.6958694059014447 [Eh]
	 Total Energy              =    -420.4621909982037096 [Eh]

	 ================> DF-SCS-MP2 Energies <==================
	-----------------------------------------------------------
	 SCS Same-Spin Scale       =       0.3333333333333333 [-]
	 SCS Opposite-Spin Scale   =       1.2000000000000000 [-]
	 SCS Same-Spin Energy      =      -0.1361965040341102 [Eh]
	 SCS Opposite-Spin Energy  =      -1.5447358725589369 [Eh]
	 SCS Correlation Energy    =      -1.6809323765930471 [Eh]
	 SCS Total Energy          =    -420.4472539688953248 [Eh]
	-----------------------------------------------------------

  Dipole Moment: [D]
     X:    -1.3415      Y:     0.8270      Z:    -2.5909     Total:     3.0326

*** Psi4 exiting successfully. Buy a developer a beer!
