                               Psi4 1.3.2 release

  ==> Input File <==

--------------------------------------------------------------------------
#psi4
#
memory 32 gb

molecule  {
0 1
  O        1.2197630    -1.3791890     0.7815710
  O       -2.8493200    -0.0743410    -0.2921690
  O       -1.2471260     1.2289340     0.6316900
  C        1.6098530     0.5514350    -0.6010430
  C        0.7924890    -0.5949300    -0.0578730
  C       -0.6155180    -0.7660970    -0.6108670
  C        2.9660570     0.6794250     0.0724790
  C       -1.6132662     0.0828577    -0.1190508
  H        1.7167540     0.3993790    -1.6843760
  H        1.0152770     1.4637510    -0.4819620
  H       -0.6366420    -0.6467360    -1.7011060
  H       -0.9720840    -1.7722110    -0.3761960
  H        3.5474250    -0.2360290    -0.0491480
  H        3.5302360     1.5116820    -0.3550310
  H        2.8465530     0.8548240     1.1430380
  H       -3.3901630     0.6286630     0.1252190
units angstrom
no_reorient  #important for SAPT in psi4, default
symmetry c1  #important for SAPT in psi4, default
}

set PROPERTIES_ORIGIN ["COM"]
properties('MP2/aug-cc-pvtz', properties = ['dipole'])
--------------------------------------------------------------------------

    Molecular point group: c1
  Charge       = 0
  Multiplicity = 1
  Basis Set: AUG-CC-PVTZ
    Blend: AUG-CC-PVTZ
  Basis Set: (AUG-CC-PVTZ AUX)
    Blend: AUG-CC-PVTZ-JKFIT

    Orbital Energies [Eh]
    ---------------------

    Doubly Occupied:

       1A    -20.663284     2A    -20.560574     3A    -20.530415
       4A    -11.424767     5A    -11.351588     6A    -11.278261
       7A    -11.239309     8A    -11.215404     9A     -1.520939
      10A     -1.392344    11A     -1.265056    12A     -1.110454
      13A     -1.051799    14A     -0.923157    15A     -0.871281
      16A     -0.761413    17A     -0.725930    18A     -0.713967
      19A     -0.699554    20A     -0.661094    21A     -0.637503
      22A     -0.625508    23A     -0.591009    24A     -0.539766
      25A     -0.527319    26A     -0.516184    27A     -0.509784
      28A     -0.489806    29A     -0.442730    30A     -0.432226
      31A     -0.427989

  @DF-RHF Final Energy:  -418.70185032761867

   => Energetics <=

    Nuclear Repulsion Energy =            371.7316724068663234
    One-Electron Energy =               -1309.4662238872656417
    Two-Electron Energy =                 519.0327011527806462
    Total Energy =                       -418.7018503276186721
  Basis Set: (AUG-CC-PVTZ AUX)
    Blend: AUG-CC-PVTZ-RI
    Molecular point group: c1

    Geometry (in Angstrom), charge = 0, multiplicity = 1:

       Center              X                  Y                   Z               Mass
    ------------   -----------------  -----------------  -----------------  -----------------
         O            1.225102599280    -1.362475637146     0.792519065814    15.994914619570
         O           -2.843980400720    -0.057627637146    -0.281220934186    15.994914619570
         O           -1.241786400720     1.245647362854     0.642638065814    15.994914619570
         C            1.615192599280     0.568148362854    -0.590094934186    12.000000000000
         C            0.797828599280    -0.578216637146    -0.046924934186    12.000000000000
         C           -0.610178400720    -0.749383637146    -0.599918934186    12.000000000000
         C            2.971396599280     0.696138362854     0.083427065814    12.000000000000
         C           -1.607926600720     0.099571062854    -0.108102734186    12.000000000000
         H            1.722093599280     0.416092362854    -1.673427934186     1.007825032230
         H            1.020616599280     1.480464362854    -0.471013934186     1.007825032230
         H           -0.631302400720    -0.630022637146    -1.690157934186     1.007825032230
         H           -0.966744400720    -1.755497637146    -0.365247934186     1.007825032230
         H            3.552764599280    -0.219315637146    -0.038199934186     1.007825032230
         H            3.535575599280     1.528395362854    -0.344082934186     1.007825032230
         H            2.851892599280     0.871537362854     1.153986065814     1.007825032230
         H           -3.384823400720     0.645376362854     0.136167065814     1.007825032230

  Basis Set: AUG-CC-PVTZ
    Blend: AUG-CC-PVTZ
  Basis Set: (AUG-CC-PVTZ AUX)
    Blend: AUG-CC-PVTZ-JKFIT
	 Reference Energy          =    -418.7018503276186721 [Eh]
	 Singles Energy            =      -0.0000000000000000 [Eh]
	 Same-Spin Energy          =      -0.4125943042901146 [Eh]
	 Opposite-Spin Energy      =      -1.2939649280388004 [Eh]
	 Correlation Energy        =      -1.7065592323289149 [Eh]
	 Total Energy              =    -420.4084095599475859 [Eh]

	 ================> DF-SCS-MP2 Energies <==================
	-----------------------------------------------------------
	 SCS Same-Spin Scale       =       0.3333333333333333 [-]
	 SCS Opposite-Spin Scale   =       1.2000000000000000 [-]
	 SCS Same-Spin Energy      =      -0.1375314347633715 [Eh]
	 SCS Opposite-Spin Energy  =      -1.5527579136465604 [Eh]
	 SCS Correlation Energy    =      -1.6902893484099319 [Eh]
	 SCS Total Energy          =    -420.3921396760285916 [Eh]
	-----------------------------------------------------------

  Dipole Moment: [D]
     X:    -1.9014      Y:    -0.1372      Z:    -3.1585     Total:     3.6892

*** Psi4 exiting successfully. Buy a developer a beer!
