                               Psi4 1.4a3.dev225

  ==> Input File <==

--------------------------------------------------------------------------
#psi4
#
memory 32 gb

molecule  {
0 1
  O        1.1896460     1.3864710    -0.7896670
  O       -2.9164350     0.0620530     0.2465870
  O       -1.2994600    -1.1722570    -0.7513140
  C        1.5277270    -0.5390120     0.6173550
  C        0.7330570     0.6116870     0.0446410
  C       -0.6915030     0.7929470     0.5540020
  C        2.9119880    -0.6669770    -0.0005940
  C       -1.6205455    -0.2352636    -0.0750939
  H        1.5906630    -0.3916430     1.7048170
  H        0.9378800    -1.4511620     0.4690430
  H       -0.7449460     0.6872940     1.6445860
  H       -1.0362610     1.7983420     0.2961770
  H        3.4930330     0.2441750     0.1549910
  H        3.4532110    -1.5066350     0.4428820
  H        2.8367130    -0.8315610    -1.0772290
  H       -3.4525110    -0.6329900    -0.1896390
units angstrom
no_reorient  #important for SAPT in psi4, default
symmetry c1  #important for SAPT in psi4, default
}

set PROPERTIES_ORIGIN ["COM"]
properties('MP2/aug-cc-pvtz', properties = ['dipole'])
--------------------------------------------------------------------------

    Molecular point group: c1
  Charge       = 0
  Multiplicity = 1
  Basis Set: AUG-CC-PVTZ
    Blend: AUG-CC-PVTZ
  Basis Set: (AUG-CC-PVTZ AUX)
    Blend: AUG-CC-PVTZ-JKFIT

    Orbital Energies [Eh]
    ---------------------

    Doubly Occupied:

       1A    -20.629673     2A    -20.574425     3A    -20.556306
       4A    -11.412296     5A    -11.343639     6A    -11.271064
       7A    -11.242410     8A    -11.217871     9A     -1.479940
      10A     -1.388342    11A     -1.383080    12A     -1.082619
      13A     -1.039873    14A     -0.899877    15A     -0.836425
      16A     -0.742071    17A     -0.720002    18A     -0.707706
      19A     -0.679074    20A     -0.648641    21A     -0.633041
      22A     -0.624863    23A     -0.601425    24A     -0.575824
      25A     -0.525760    26A     -0.518397    27A     -0.515941
      28A     -0.507466    29A     -0.492000    30A     -0.470002
      31A     -0.423732

  @DF-RHF Final Energy:  -418.76827935907500

   => Energetics <=

    Nuclear Repulsion Energy =            371.9234268551460332
    One-Electron Energy =               -1309.8958354729827533
    Two-Electron Energy =                 519.2041292587616681
    Total Energy =                       -418.7682793590749952
  Basis Set: (AUG-CC-PVTZ AUX)
    Blend: AUG-CC-PVTZ-RI
    Molecular point group: c1

    Geometry (in Angstrom), charge = 0, multiplicity = 1:

       Center              X                  Y                   Z               Mass
    ------------   -----------------  -----------------  -----------------  -----------------
         O            1.249472845269     1.370279719486    -0.759098354152    15.994914619570
         O           -2.856608154731     0.045861719486     0.277155645848    15.994914619570
         O           -1.239633154731    -1.188448280514    -0.720745354152    15.994914619570
         C            1.587553845269    -0.555203280514     0.647923645848    12.000000000000
         C            0.792883845269     0.595495719486     0.075209645848    12.000000000000
         C           -0.631676154731     0.776755719486     0.584570645848    12.000000000000
         C            2.971814845269    -0.683168280514     0.029974645848    12.000000000000
         C           -1.560718654731    -0.251454880514    -0.044525254152    12.000000000000
         H            1.650489845269    -0.407834280514     1.735385645848     1.007825032230
         H            0.997706845269    -1.467353280514     0.499611645848     1.007825032230
         H           -0.685119154731     0.671102719486     1.675154645848     1.007825032230
         H           -0.976434154731     1.782150719486     0.326745645848     1.007825032230
         H            3.552859845269     0.227983719486     0.185559645848     1.007825032230
         H            3.513037845269    -1.522826280514     0.473450645848     1.007825032230
         H            2.896539845269    -0.847752280514    -1.046660354152     1.007825032230
         H           -3.392684154731    -0.649181280514    -0.159070354152     1.007825032230

  Basis Set: AUG-CC-PVTZ
    Blend: AUG-CC-PVTZ
  Basis Set: (AUG-CC-PVTZ AUX)
    Blend: AUG-CC-PVTZ-JKFIT
	 Reference Energy          =    -418.7682793590749952 [Eh]
	 Singles Energy            =      -0.0000000000000000 [Eh]
	 Same-Spin Energy          =      -0.4078387271297005 [Eh]
	 Opposite-Spin Energy      =      -1.2861435143780198 [Eh]
	 Correlation Energy        =      -1.6939822415077201 [Eh]
	 Total Energy              =    -420.4622616005827354 [Eh]

	 ================> DF-SCS-MP2 Energies <==================
	-----------------------------------------------------------
	 SCS Same-Spin Scale       =       0.3333333333333333 [-]
	 SCS Opposite-Spin Scale   =       1.2000000000000000 [-]
	 SCS Same-Spin Energy      =      -0.1359462423765668 [Eh]
	 SCS Opposite-Spin Energy  =      -1.5433722172536237 [Eh]
	 SCS Correlation Energy    =      -1.6793184596301904 [Eh]
	 SCS Total Energy          =    -420.4475978187051624 [Eh]
	-----------------------------------------------------------

  Dipole Moment: [D]
     X:    -1.3641      Y:    -0.8932      Z:     2.5123     Total:     2.9950

*** Psi4 exiting successfully. Buy a developer a beer!
