                               Psi4 1.3.2 release

  ==> Input File <==

--------------------------------------------------------------------------
#psi4
#
memory 32 gb

molecule  {
0 1
  O        1.2197630    -1.3791890     0.7815710
  O       -2.8256664    -0.1314230    -0.3270829
  O       -1.1860472     1.2120319     0.6245506
  C        1.6098530     0.5514350    -0.6010430
  C        0.7924890    -0.5949300    -0.0578730
  C       -0.6155180    -0.7660970    -0.6108670
  C        2.9660570     0.6794250     0.0724790
  C       -1.5616300     0.2444870    -0.0131750
  H        1.7167540     0.3993790    -1.6843760
  H        1.0152770     1.4637510    -0.4819620
  H       -0.6366420    -0.6467360    -1.7011060
  H       -0.9720840    -1.7722110    -0.3761960
  H        3.5474250    -0.2360290    -0.0491480
  H        3.5302360     1.5116820    -0.3550310
  H        2.8465530     0.8548240     1.1430380
  H       -3.3901630     0.6286630     0.1252190
units angstrom
no_reorient  #important for SAPT in psi4, default
symmetry c1  #important for SAPT in psi4, default
}

set PROPERTIES_ORIGIN ["COM"]
properties('MP2/aug-cc-pvtz', properties = ['dipole'])
--------------------------------------------------------------------------

    Molecular point group: c1
  Charge       = 0
  Multiplicity = 1
  Basis Set: AUG-CC-PVTZ
    Blend: AUG-CC-PVTZ
  Basis Set: (AUG-CC-PVTZ AUX)
    Blend: AUG-CC-PVTZ-JKFIT

    Orbital Energies [Eh]
    ---------------------

    Doubly Occupied:

       1A    -20.646699     2A    -20.574826     3A    -20.553184
       4A    -11.414547     5A    -11.340157     6A    -11.264489
       7A    -11.238534     8A    -11.215290     9A     -1.474613
      10A     -1.386565    11A     -1.380316    12A     -1.080267
      13A     -1.038177    14A     -0.897325    15A     -0.828765
      16A     -0.742017    17A     -0.716298    18A     -0.706936
      19A     -0.680108    20A     -0.646183    21A     -0.632468
      22A     -0.622419    23A     -0.597336    24A     -0.574041
      25A     -0.523594    26A     -0.516760    27A     -0.513117
      28A     -0.506103    29A     -0.490484    30A     -0.467079
      31A     -0.420729

  @DF-RHF Final Energy:  -418.75553950146502

   => Energetics <=

    Nuclear Repulsion Energy =            372.7762038589261806
    One-Electron Energy =               -1311.6846410329551418
    Two-Electron Energy =                 520.1528976725638813
    Total Energy =                       -418.7555395014650230
  Basis Set: (AUG-CC-PVTZ AUX)
    Blend: AUG-CC-PVTZ-RI
    Molecular point group: c1

    Geometry (in Angstrom), charge = 0, multiplicity = 1:

       Center              X                  Y                   Z               Mass
    ------------   -----------------  -----------------  -----------------  -----------------
         O            1.208084356264    -1.368991790041     0.787367111139    15.994914619570
         O           -2.837345043736    -0.121225790041    -0.321286788861    15.994914619570
         O           -1.197725843736     1.222229109959     0.630346711139    15.994914619570
         C            1.598174356264     0.561632209959    -0.595246888861    12.000000000000
         C            0.780810356264    -0.584732790041    -0.052076888861    12.000000000000
         C           -0.627196643736    -0.755899790041    -0.605070888861    12.000000000000
         C            2.954378356264     0.689622209959     0.078275111139    12.000000000000
         C           -1.573308643736     0.254684209959    -0.007378888861    12.000000000000
         H            1.705075356264     0.409576209959    -1.678579888861     1.007825032230
         H            1.003598356264     1.473948209959    -0.476165888861     1.007825032230
         H           -0.648320643736    -0.636538790041    -1.695309888861     1.007825032230
         H           -0.983762643736    -1.762013790041    -0.370399888861     1.007825032230
         H            3.535746356264    -0.225831790041    -0.043351888861     1.007825032230
         H            3.518557356264     1.521879209959    -0.349234888861     1.007825032230
         H            2.834874356264     0.865021209959     1.148834111139     1.007825032230
         H           -3.401841643736     0.638860209959     0.131015111139     1.007825032230

  Basis Set: AUG-CC-PVTZ
    Blend: AUG-CC-PVTZ
  Basis Set: (AUG-CC-PVTZ AUX)
    Blend: AUG-CC-PVTZ-JKFIT
	 Reference Energy          =    -418.7555395014650230 [Eh]
	 Singles Energy            =      -0.0000000000000000 [Eh]
	 Same-Spin Energy          =      -0.4098192792549425 [Eh]
	 Opposite-Spin Energy      =      -1.2900076803334626 [Eh]
	 Correlation Energy        =      -1.6998269595884050 [Eh]
	 Total Energy              =    -420.4553664610534156 [Eh]

	 ================> DF-SCS-MP2 Energies <==================
	-----------------------------------------------------------
	 SCS Same-Spin Scale       =       0.3333333333333333 [-]
	 SCS Opposite-Spin Scale   =       1.2000000000000000 [-]
	 SCS Same-Spin Energy      =      -0.1366064264183142 [Eh]
	 SCS Opposite-Spin Energy  =      -1.5480092164001551 [Eh]
	 SCS Correlation Energy    =      -1.6846156428184693 [Eh]
	 SCS Total Energy          =    -420.4401551442834943 [Eh]
	-----------------------------------------------------------

  Dipole Moment: [D]
     X:    -1.6699      Y:     0.9385      Z:    -2.4789     Total:     3.1328

*** Psi4 exiting successfully. Buy a developer a beer!
