                               Psi4 1.4a3.dev225

  ==> Input File <==

--------------------------------------------------------------------------
#psi4
#
memory 32 gb

molecule  {
0 1
  O        1.1896460     1.3864710    -0.7896670
  O       -2.9164350     0.0620530     0.2465870
  O       -1.2994600    -1.1722570    -0.7513140
  C        1.5277270    -0.5390120     0.6173550
  C        0.7330570     0.6116870     0.0446410
  C       -0.6915030     0.7929470     0.5540020
  C        2.9119880    -0.6669770    -0.0005940
  C       -1.6259000    -0.2196380    -0.0638170
  H        1.5906630    -0.3916430     1.7048170
  H        0.9378800    -1.4511620     0.4690430
  H       -0.7473819     0.6824784     1.6942939
  H       -1.0362610     1.7983420     0.2961770
  H        3.4930330     0.2441750     0.1549910
  H        3.4532110    -1.5066350     0.4428820
  H        2.8367130    -0.8315610    -1.0772290
  H       -3.4525110    -0.6329900    -0.1896390
units angstrom
no_reorient  #important for SAPT in psi4, default
symmetry c1  #important for SAPT in psi4, default
}

set PROPERTIES_ORIGIN ["COM"]
properties('MP2/aug-cc-pvtz', properties = ['dipole'])
--------------------------------------------------------------------------

    Molecular point group: c1
  Charge       = 0
  Multiplicity = 1
  Basis Set: AUG-CC-PVTZ
    Blend: AUG-CC-PVTZ
  Basis Set: (AUG-CC-PVTZ AUX)
    Blend: AUG-CC-PVTZ-JKFIT

    Orbital Energies [Eh]
    ---------------------

    Doubly Occupied:

       1A    -20.632900     2A    -20.570859     3A    -20.557102
       4A    -11.414171     5A    -11.344787     6A    -11.277296
       7A    -11.242116     8A    -11.217640     9A     -1.478608
      10A     -1.388452    11A     -1.375611    12A     -1.082404
      13A     -1.040223    14A     -0.901445    15A     -0.839363
      16A     -0.741019    17A     -0.719512    18A     -0.705664
      19A     -0.675924    20A     -0.649197    21A     -0.631923
      22A     -0.625579    23A     -0.598019    24A     -0.572933
      25A     -0.525499    26A     -0.517446    27A     -0.515413
      28A     -0.502866    29A     -0.489920    30A     -0.469618
      31A     -0.424774

  @DF-RHF Final Energy:  -418.76522809494844

   => Energetics <=

    Nuclear Repulsion Energy =            371.5850936223401391
    One-Electron Energy =               -1309.2440785049880105
    Two-Electron Energy =                 518.8937567876994308
    Total Energy =                       -418.7652280949484975
  Basis Set: (AUG-CC-PVTZ AUX)
    Blend: AUG-CC-PVTZ-RI
    Molecular point group: c1

    Geometry (in Angstrom), charge = 0, multiplicity = 1:

       Center              X                  Y                   Z               Mass
    ------------   -----------------  -----------------  -----------------  -----------------
         O            1.250047687903     1.368705759141    -0.760696147426    15.994914619570
         O           -2.856033312097     0.044287759141     0.275557852574    15.994914619570
         O           -1.239058312097    -1.190022240859    -0.722343147426    15.994914619570
         C            1.588128687903    -0.556777240859     0.646325852574    12.000000000000
         C            0.793458687903     0.593921759141     0.073611852574    12.000000000000
         C           -0.631101312097     0.775181759141     0.582972852574    12.000000000000
         C            2.972389687903    -0.684742240859     0.028376852574    12.000000000000
         C           -1.565498312097    -0.237403240859    -0.034846147426    12.000000000000
         H            1.651064687903    -0.409408240859     1.733787852574     1.007825032230
         H            0.998281687903    -1.468927240859     0.498013852574     1.007825032230
         H           -0.686980212097     0.664713159141     1.723264752574     1.007825032230
         H           -0.975859312097     1.780576759141     0.325147852574     1.007825032230
         H            3.553434687903     0.226409759141     0.183961852574     1.007825032230
         H            3.513612687903    -1.524400240859     0.471852852574     1.007825032230
         H            2.897114687903    -0.849326240859    -1.048258147426     1.007825032230
         H           -3.392109312097    -0.650755240859    -0.160668147426     1.007825032230

  Basis Set: AUG-CC-PVTZ
    Blend: AUG-CC-PVTZ
  Basis Set: (AUG-CC-PVTZ AUX)
    Blend: AUG-CC-PVTZ-JKFIT
	 Reference Energy          =    -418.7652280949484407 [Eh]
	 Singles Energy            =      -0.0000000000000000 [Eh]
	 Same-Spin Energy          =      -0.4082631872711958 [Eh]
	 Opposite-Spin Energy      =      -1.2871574804012975 [Eh]
	 Correlation Energy        =      -1.6954206676724932 [Eh]
	 Total Energy              =    -420.4606487626209059 [Eh]

	 ================> DF-SCS-MP2 Energies <==================
	-----------------------------------------------------------
	 SCS Same-Spin Scale       =       0.3333333333333333 [-]
	 SCS Opposite-Spin Scale   =       1.2000000000000000 [-]
	 SCS Same-Spin Energy      =      -0.1360877290903986 [Eh]
	 SCS Opposite-Spin Energy  =      -1.5445889764815570 [Eh]
	 SCS Correlation Energy    =      -1.6806767055719556 [Eh]
	 SCS Total Energy          =    -420.4459048005203954 [Eh]
	-----------------------------------------------------------

  Dipole Moment: [D]
     X:    -1.4248      Y:    -0.7954      Z:     2.5788     Total:     3.0517

*** Psi4 exiting successfully. Buy a developer a beer!
