                               Psi4 1.3.2 release

  ==> Input File <==

--------------------------------------------------------------------------
#psi4
#
memory 32 gb

molecule  {
0 1
  O        1.2197630    -1.3791890     0.7815710
  O       -2.8493200    -0.0743410    -0.2921690
  O       -1.2471260     1.2289340     0.6316900
  C        1.6098530     0.5514350    -0.6010430
  C        0.7924890    -0.5949300    -0.0578730
  C       -0.6155180    -0.7660970    -0.6108670
  C        2.9660570     0.6794250     0.0724790
  C       -1.5466837     0.2638633    -0.0228570
  H        1.7167540     0.3993790    -1.6843760
  H        1.0152770     1.4637510    -0.4819620
  H       -0.6366420    -0.6467360    -1.7011060
  H       -0.9572102    -1.7795067    -0.3856506
  H        3.5474250    -0.2360290    -0.0491480
  H        3.5302360     1.5116820    -0.3550310
  H        2.8465530     0.8548240     1.1430380
  H       -3.3901630     0.6286630     0.1252190
units angstrom
no_reorient  #important for SAPT in psi4, default
symmetry c1  #important for SAPT in psi4, default
}

set PROPERTIES_ORIGIN ["COM"]
properties('MP2/aug-cc-pvtz', properties = ['dipole'])
--------------------------------------------------------------------------

    Molecular point group: c1
  Charge       = 0
  Multiplicity = 1
  Basis Set: AUG-CC-PVTZ
    Blend: AUG-CC-PVTZ
  Basis Set: (AUG-CC-PVTZ AUX)
    Blend: AUG-CC-PVTZ-JKFIT

    Orbital Energies [Eh]
    ---------------------

    Doubly Occupied:

       1A    -20.627925     2A    -20.574094     3A    -20.557112
       4A    -11.412874     5A    -11.344125     6A    -11.271366
       7A    -11.241884     8A    -11.217599     9A     -1.477268
      10A     -1.389365    11A     -1.379981    12A     -1.085628
      13A     -1.042089    14A     -0.900694    15A     -0.835918
      16A     -0.742631    17A     -0.719820    18A     -0.707988
      19A     -0.680370    20A     -0.646778    21A     -0.632803
      22A     -0.625701    23A     -0.602040    24A     -0.575791
      25A     -0.526073    26A     -0.519206    27A     -0.515966
      28A     -0.506021    29A     -0.492673    30A     -0.470388
      31A     -0.424666

  @DF-RHF Final Energy:  -418.76768855481151

   => Energetics <=

    Nuclear Repulsion Energy =            372.3335090983363216
    One-Electron Energy =               -1310.7087222097195536
    Two-Electron Energy =                 519.6075245565716614
    Total Energy =                       -418.7676885548115706
  Basis Set: (AUG-CC-PVTZ AUX)
    Blend: AUG-CC-PVTZ-RI
    Molecular point group: c1

    Geometry (in Angstrom), charge = 0, multiplicity = 1:

       Center              X                  Y                   Z               Mass
    ------------   -----------------  -----------------  -----------------  -----------------
         O            1.218088391465    -1.381129354966     0.782654152263    15.994914619570
         O           -2.850994608535    -0.076281354966    -0.291085847737    15.994914619570
         O           -1.248800608535     1.226993645034     0.632773152263    15.994914619570
         C            1.608178391465     0.549494645034    -0.599959847737    12.000000000000
         C            0.790814391465    -0.596870354966    -0.056789847737    12.000000000000
         C           -0.617192608535    -0.768037354966    -0.609783847737    12.000000000000
         C            2.964382391465     0.677484645034     0.073562152263    12.000000000000
         C           -1.548358308535     0.261922945034    -0.021773847737    12.000000000000
         H            1.715079391465     0.397438645034    -1.683292847737     1.007825032230
         H            1.013602391465     1.461810645034    -0.480878847737     1.007825032230
         H           -0.638316608535    -0.648676354966    -1.700022847737     1.007825032230
         H           -0.958884808535    -1.781447054966    -0.384567447737     1.007825032230
         H            3.545750391465    -0.237969354966    -0.048064847737     1.007825032230
         H            3.528561391465     1.509741645034    -0.353947847737     1.007825032230
         H            2.844878391465     0.852883645034     1.144121152263     1.007825032230
         H           -3.391837608535     0.626722645034     0.126302152263     1.007825032230

  Basis Set: AUG-CC-PVTZ
    Blend: AUG-CC-PVTZ
  Basis Set: (AUG-CC-PVTZ AUX)
    Blend: AUG-CC-PVTZ-JKFIT
	 Reference Energy          =    -418.7676885548115138 [Eh]
	 Singles Energy            =      -0.0000000000000000 [Eh]
	 Same-Spin Energy          =      -0.4081111136536332 [Eh]
	 Opposite-Spin Energy      =      -1.2864265754520667 [Eh]
	 Correlation Energy        =      -1.6945376891057000 [Eh]
	 Total Energy              =    -420.4622262439172005 [Eh]

	 ================> DF-SCS-MP2 Energies <==================
	-----------------------------------------------------------
	 SCS Same-Spin Scale       =       0.3333333333333333 [-]
	 SCS Opposite-Spin Scale   =       1.2000000000000000 [-]
	 SCS Same-Spin Energy      =      -0.1360370378845444 [Eh]
	 SCS Opposite-Spin Energy  =      -1.5437118905424800 [Eh]
	 SCS Correlation Energy    =      -1.6797489284270244 [Eh]
	 SCS Total Energy          =    -420.4474374832385593 [Eh]
	-----------------------------------------------------------

  Dipole Moment: [D]
     X:    -1.2110      Y:     0.8547      Z:    -2.5306     Total:     2.9327

*** Psi4 exiting successfully. Buy a developer a beer!
