                               Psi4 1.3.2 release

  ==> Input File <==

--------------------------------------------------------------------------
#psi4
#
memory 32 gb

molecule  {
0 1
  O        1.2197630    -1.3791890     0.7815710
  O       -2.8256441    -0.1311768    -0.3274673
  O       -1.2471260     1.2289340     0.6316900
  C        1.6098530     0.5514350    -0.6010430
  C        0.7924890    -0.5949300    -0.0578730
  C       -0.6781462    -0.8047819    -0.6393817
  C        2.9660570     0.6794250     0.0724790
  C       -1.5616300     0.2444870    -0.0131750
  H        1.7167540     0.3993790    -1.6843760
  H        1.0152770     1.4637510    -0.4819620
  H       -0.6366420    -0.6467360    -1.7011060
  H       -0.9720840    -1.7722110    -0.3761960
  H        3.5474250    -0.2360290    -0.0491480
  H        3.5302360     1.5116820    -0.3550310
  H        2.8465530     0.8548240     1.1430380
  H       -3.3901630     0.6286630     0.1252190
units angstrom
no_reorient  #important for SAPT in psi4, default
symmetry c1  #important for SAPT in psi4, default
}

set PROPERTIES_ORIGIN ["COM"]
properties('MP2/aug-cc-pvtz', properties = ['dipole'])
--------------------------------------------------------------------------

    Molecular point group: c1
  Charge       = 0
  Multiplicity = 1
  Basis Set: AUG-CC-PVTZ
    Blend: AUG-CC-PVTZ
  Basis Set: (AUG-CC-PVTZ AUX)
    Blend: AUG-CC-PVTZ-JKFIT

    Orbital Energies [Eh]
    ---------------------

    Doubly Occupied:

       1A    -20.639200     2A    -20.575800     3A    -20.554814
       4A    -11.413317     5A    -11.344686     6A    -11.265362
       7A    -11.241534     8A    -11.217139     9A     -1.473819
      10A     -1.385735    11A     -1.376362    12A     -1.077425
      13A     -1.040829    14A     -0.896495    15A     -0.825811
      16A     -0.740659    17A     -0.714516    18A     -0.705071
      19A     -0.683702    20A     -0.643526    21A     -0.632017
      22A     -0.619759    23A     -0.597154    24A     -0.583853
      25A     -0.528502    26A     -0.517766    27A     -0.515012
      28A     -0.505101    29A     -0.491494    30A     -0.471139
      31A     -0.414222

  @DF-RHF Final Energy:  -418.75066404899070

   => Energetics <=

    Nuclear Repulsion Energy =            371.2680128444697516
    One-Electron Energy =               -1308.6537142485231016
    Two-Electron Energy =                 518.6350373550626500
    Total Energy =                       -418.7506640489907568
  Basis Set: (AUG-CC-PVTZ AUX)
    Blend: AUG-CC-PVTZ-RI
    Molecular point group: c1

    Geometry (in Angstrom), charge = 0, multiplicity = 1:

       Center              X                  Y                   Z               Mass
    ------------   -----------------  -----------------  -----------------  -----------------
         O            1.222975967249    -1.367355102816     0.789384656250    15.994914619570
         O           -2.822431132751    -0.119342902816    -0.319653643750    15.994914619570
         O           -1.243913032751     1.240767897184     0.639503656250    15.994914619570
         C            1.613065967249     0.563268897184    -0.593229343750    12.000000000000
         C            0.795701967249    -0.583096102816    -0.050059343750    12.000000000000
         C           -0.674933232751    -0.792948002816    -0.631568043750    12.000000000000
         C            2.969269967249     0.691258897184     0.080292656250    12.000000000000
         C           -1.558417032751     0.256320897184    -0.005361343750    12.000000000000
         H            1.719966967249     0.411212897184    -1.676562343750     1.007825032230
         H            1.018489967249     1.475584897184    -0.474148343750     1.007825032230
         H           -0.633429032751    -0.634902102816    -1.693292343750     1.007825032230
         H           -0.968871032751    -1.760377102816    -0.368382343750     1.007825032230
         H            3.550637967249    -0.224195102816    -0.041334343750     1.007825032230
         H            3.533448967249     1.523515897184    -0.347217343750     1.007825032230
         H            2.849765967249     0.866657897184     1.150851656250     1.007825032230
         H           -3.386950032751     0.640496897184     0.133032656250     1.007825032230

  Basis Set: AUG-CC-PVTZ
    Blend: AUG-CC-PVTZ
  Basis Set: (AUG-CC-PVTZ AUX)
    Blend: AUG-CC-PVTZ-JKFIT
	 Reference Energy          =    -418.7506640489906999 [Eh]
	 Singles Energy            =      -0.0000000000000000 [Eh]
	 Same-Spin Energy          =      -0.4096422177784075 [Eh]
	 Opposite-Spin Energy      =      -1.2900606406732122 [Eh]
	 Correlation Energy        =      -1.6997028584516198 [Eh]
	 Total Energy              =    -420.4503669074423442 [Eh]

	 ================> DF-SCS-MP2 Energies <==================
	-----------------------------------------------------------
	 SCS Same-Spin Scale       =       0.3333333333333333 [-]
	 SCS Opposite-Spin Scale   =       1.2000000000000000 [-]
	 SCS Same-Spin Energy      =      -0.1365474059261358 [Eh]
	 SCS Opposite-Spin Energy  =      -1.5480727688078546 [Eh]
	 SCS Correlation Energy    =      -1.6846201747339904 [Eh]
	 SCS Total Energy          =    -420.4352842237246932 [Eh]
	-----------------------------------------------------------

  Dipole Moment: [D]
     X:    -1.3586      Y:     0.8885      Z:    -2.4792     Total:     2.9634

*** Psi4 exiting successfully. Buy a developer a beer!
