                               Psi4 1.3.2 release

  ==> Input File <==

--------------------------------------------------------------------------
#psi4
#
memory 32 gb

molecule  {
0 1
  O        1.2197630    -1.3791890     0.7815710
  O       -2.8493200    -0.0743410    -0.2921690
  O       -1.2471260     1.2289340     0.6316900
  C        1.6098530     0.5514350    -0.6010430
  C        0.7924890    -0.5949300    -0.0578730
  C       -0.6155180    -0.7660970    -0.6108670
  C        2.9660570     0.6794250     0.0724790
  C       -1.3716483     0.2915259     0.0279869
  H        1.7167540     0.3993790    -1.6843760
  H        1.0152770     1.4637510    -0.4819620
  H       -0.6366420    -0.6467360    -1.7011060
  H       -0.9720840    -1.7722110    -0.3761960
  H        3.5474250    -0.2360290    -0.0491480
  H        3.5302360     1.5116820    -0.3550310
  H        2.8465530     0.8548240     1.1430380
  H       -3.3901630     0.6286630     0.1252190
units angstrom
no_reorient  #important for SAPT in psi4, default
symmetry c1  #important for SAPT in psi4, default
}

set PROPERTIES_ORIGIN ["COM"]
properties('MP2/aug-cc-pvtz', properties = ['dipole'])
--------------------------------------------------------------------------

    Molecular point group: c1
  Charge       = 0
  Multiplicity = 1
  Basis Set: AUG-CC-PVTZ
    Blend: AUG-CC-PVTZ
  Basis Set: (AUG-CC-PVTZ AUX)
    Blend: AUG-CC-PVTZ-JKFIT

    Orbital Energies [Eh]
    ---------------------

    Doubly Occupied:

       1A    -20.603597     2A    -20.570157     3A    -20.565729
       4A    -11.413204     5A    -11.351852     6A    -11.280595
       7A    -11.251839     8A    -11.224968     9A     -1.513939
      10A     -1.397867    11A     -1.325034    12A     -1.108510
      13A     -1.054889    14A     -0.904091    15A     -0.811491
      16A     -0.757194    17A     -0.723258    18A     -0.710530
      19A     -0.690144    20A     -0.646678    21A     -0.634632
      22A     -0.632238    23A     -0.607304    24A     -0.579376
      25A     -0.534447    26A     -0.527059    27A     -0.524305
      28A     -0.501326    29A     -0.492004    30A     -0.465917
      31A     -0.428168

  @DF-RHF Final Energy:  -418.72876092231968

   => Energetics <=

    Nuclear Repulsion Energy =            373.6005925121072551
    One-Electron Energy =               -1312.9940231445627887
    Two-Electron Energy =                 520.6646697101358541
    Total Energy =                       -418.7287609223196796
  Basis Set: (AUG-CC-PVTZ AUX)
    Blend: AUG-CC-PVTZ-RI
    Molecular point group: c1

    Geometry (in Angstrom), charge = 0, multiplicity = 1:

       Center              X                  Y                   Z               Mass
    ------------   -----------------  -----------------  -----------------  -----------------
         O            1.200117841360    -1.384053196022     0.777314474848    15.994914619570
         O           -2.868965158640    -0.079205196022    -0.296425525152    15.994914619570
         O           -1.266771158640     1.224069803978     0.627433474848    15.994914619570
         C            1.590207841360     0.546570803978    -0.605299525152    12.000000000000
         C            0.772843841360    -0.599794196022    -0.062129525152    12.000000000000
         C           -0.635163158640    -0.770961196022    -0.615123525152    12.000000000000
         C            2.946411841360     0.674560803978     0.068222474848    12.000000000000
         C           -1.391293458640     0.286661703978     0.023730374848    12.000000000000
         H            1.697108841360     0.394514803978    -1.688632525152     1.007825032230
         H            0.995631841360     1.458886803978    -0.486218525152     1.007825032230
         H           -0.656287158640    -0.651600196022    -1.705362525152     1.007825032230
         H           -0.991729158640    -1.777075196022    -0.380452525152     1.007825032230
         H            3.527779841360    -0.240893196022    -0.053404525152     1.007825032230
         H            3.510590841360     1.506817803978    -0.359287525152     1.007825032230
         H            2.826907841360     0.849959803978     1.138781474848     1.007825032230
         H           -3.409808158640     0.623798803978     0.120962474848     1.007825032230

  Basis Set: AUG-CC-PVTZ
    Blend: AUG-CC-PVTZ
  Basis Set: (AUG-CC-PVTZ AUX)
    Blend: AUG-CC-PVTZ-JKFIT
	 Reference Energy          =    -418.7287609223196796 [Eh]
	 Singles Energy            =      -0.0000000000000000 [Eh]
	 Same-Spin Energy          =      -0.4091371243834939 [Eh]
	 Opposite-Spin Energy      =      -1.2891686135023053 [Eh]
	 Correlation Energy        =      -1.6983057378857991 [Eh]
	 Total Energy              =    -420.4270666602054689 [Eh]

	 ================> DF-SCS-MP2 Energies <==================
	-----------------------------------------------------------
	 SCS Same-Spin Scale       =       0.3333333333333333 [-]
	 SCS Opposite-Spin Scale   =       1.2000000000000000 [-]
	 SCS Same-Spin Energy      =      -0.1363790414611646 [Eh]
	 SCS Opposite-Spin Energy  =      -1.5470023362027663 [Eh]
	 SCS Correlation Energy    =      -1.6833813776639310 [Eh]
	 SCS Total Energy          =    -420.4121422999836000 [Eh]
	-----------------------------------------------------------

  Dipole Moment: [D]
     X:     0.5295      Y:     1.1951      Z:    -2.2044     Total:     2.5628

*** Psi4 exiting successfully. Buy a developer a beer!
