                               Psi4 1.3.2 release

  ==> Input File <==

--------------------------------------------------------------------------
#psi4
#
memory 32 gb

molecule  {
0 1
  O        1.2197630    -1.3791890     0.7815710
  O       -2.8493200    -0.0743410    -0.2921690
  O       -1.2471260     1.2289340     0.6316900
  C        1.6098530     0.5514350    -0.6010430
  C        0.7924890    -0.5949300    -0.0578730
  C       -0.6155180    -0.7660970    -0.6108670
  C        2.9660570     0.6794250     0.0724790
  C       -1.4666392     0.2680064     0.0074059
  H        1.7167540     0.3993790    -1.6843760
  H        1.0152770     1.4637510    -0.4819620
  H       -0.6366420    -0.6467360    -1.7011060
  H       -0.9720840    -1.7722110    -0.3761960
  H        3.5474250    -0.2360290    -0.0491480
  H        3.5302360     1.5116820    -0.3550310
  H        2.8465530     0.8548240     1.1430380
  H       -3.3901630     0.6286630     0.1252190
units angstrom
no_reorient  #important for SAPT in psi4, default
symmetry c1  #important for SAPT in psi4, default
}

set PROPERTIES_ORIGIN ["COM"]
properties('MP2/aug-cc-pvtz', properties = ['dipole'])
--------------------------------------------------------------------------

    Molecular point group: c1
  Charge       = 0
  Multiplicity = 1
  Basis Set: AUG-CC-PVTZ
    Blend: AUG-CC-PVTZ
  Basis Set: (AUG-CC-PVTZ AUX)
    Blend: AUG-CC-PVTZ-JKFIT

    Orbital Energies [Eh]
    ---------------------

    Doubly Occupied:

       1A    -20.602921     2A    -20.586523     3A    -20.560842
       4A    -11.411985     5A    -11.347513     6A    -11.274748
       7A    -11.246209     8A    -11.220803     9A     -1.480752
      10A     -1.392694    11A     -1.363763    12A     -1.095870
      13A     -1.048332    14A     -0.901554    15A     -0.820686
      16A     -0.747003    17A     -0.716934    18A     -0.708284
      19A     -0.683026    20A     -0.643832    21A     -0.632703
      22A     -0.626395    23A     -0.610232    24A     -0.573234
      25A     -0.529289    26A     -0.523161    27A     -0.519676
      28A     -0.508934    29A     -0.496379    30A     -0.472861
      31A     -0.427010

  @DF-RHF Final Energy:  -418.75740530204143

   => Energetics <=

    Nuclear Repulsion Energy =            372.8733793802944092
    One-Electron Energy =               -1311.7132694319648181
    Two-Electron Energy =                 520.0824847496289749
    Total Energy =                       -418.7574053020414340
  Basis Set: (AUG-CC-PVTZ AUX)
    Blend: AUG-CC-PVTZ-RI
    Molecular point group: c1

    Geometry (in Angstrom), charge = 0, multiplicity = 1:

       Center              X                  Y                   Z               Mass
    ------------   -----------------  -----------------  -----------------  -----------------
         O            1.209940477187    -1.381621136916     0.779442675212    15.994914619570
         O           -2.859142522813    -0.076773136916    -0.294297324788    15.994914619570
         O           -1.256948522813     1.226501863084     0.629561675212    15.994914619570
         C            1.600030477187     0.549002863084    -0.603171324788    12.000000000000
         C            0.782666477187    -0.597362136916    -0.060001324788    12.000000000000
         C           -0.625340522813    -0.768529136916    -0.612995324788    12.000000000000
         C            2.956234477187     0.676992863084     0.070350675212    12.000000000000
         C           -1.476461722813     0.265574263084     0.005277575212    12.000000000000
         H            1.706931477187     0.396946863084    -1.686504324788     1.007825032230
         H            1.005454477187     1.461318863084    -0.484090324788     1.007825032230
         H           -0.646464522813    -0.649168136916    -1.703234324788     1.007825032230
         H           -0.981906522813    -1.774643136916    -0.378324324788     1.007825032230
         H            3.537602477187    -0.238461136916    -0.051276324788     1.007825032230
         H            3.520413477187     1.509249863084    -0.357159324788     1.007825032230
         H            2.836730477187     0.852391863084     1.140909675212     1.007825032230
         H           -3.399985522813     0.626230863084     0.123090675212     1.007825032230

  Basis Set: AUG-CC-PVTZ
    Blend: AUG-CC-PVTZ
  Basis Set: (AUG-CC-PVTZ AUX)
    Blend: AUG-CC-PVTZ-JKFIT
	 Reference Energy          =    -418.7574053020414340 [Eh]
	 Singles Energy            =      -0.0000000000000000 [Eh]
	 Same-Spin Energy          =      -0.4083779738337249 [Eh]
	 Opposite-Spin Energy      =      -1.2873594028111004 [Eh]
	 Correlation Energy        =      -1.6957373766448254 [Eh]
	 Total Energy              =    -420.4531426786862767 [Eh]

	 ================> DF-SCS-MP2 Energies <==================
	-----------------------------------------------------------
	 SCS Same-Spin Scale       =       0.3333333333333333 [-]
	 SCS Opposite-Spin Scale   =       1.2000000000000000 [-]
	 SCS Same-Spin Energy      =      -0.1361259912779083 [Eh]
	 SCS Opposite-Spin Energy  =      -1.5448312833733204 [Eh]
	 SCS Correlation Energy    =      -1.6809572746512287 [Eh]
	 SCS Total Energy          =    -420.4383625766926684 [Eh]
	-----------------------------------------------------------

  Dipole Moment: [D]
     X:    -0.4463      Y:     0.9907      Z:    -2.3822     Total:     2.6183

*** Psi4 exiting successfully. Buy a developer a beer!
