                               Psi4 1.3.2 release

  ==> Input File <==

--------------------------------------------------------------------------
#psi4
#
memory 32 gb

molecule  {
0 1
  O        1.1635896    -1.4100885     0.7788423
  O       -2.8493200    -0.0743410    -0.2921690
  O       -1.2471260     1.2289340     0.6316900
  C        1.6098530     0.5514350    -0.6010430
  C        0.7924890    -0.5949300    -0.0578730
  C       -0.6239931    -0.8298617    -0.5638077
  C        2.9660570     0.6794250     0.0724790
  C       -1.5616300     0.2444870    -0.0131750
  H        1.7167540     0.3993790    -1.6843760
  H        1.0152770     1.4637510    -0.4819620
  H       -0.6366420    -0.6467360    -1.7011060
  H       -0.9720840    -1.7722110    -0.3761960
  H        3.5474250    -0.2360290    -0.0491480
  H        3.5302360     1.5116820    -0.3550310
  H        2.8465530     0.8548240     1.1430380
  H       -3.3901630     0.6286630     0.1252190
units angstrom
no_reorient  #important for SAPT in psi4, default
symmetry c1  #important for SAPT in psi4, default
}

set PROPERTIES_ORIGIN ["COM"]
properties('MP2/aug-cc-pvtz', properties = ['dipole'])
--------------------------------------------------------------------------

    Molecular point group: c1
  Charge       = 0
  Multiplicity = 1
  Basis Set: AUG-CC-PVTZ
    Blend: AUG-CC-PVTZ
  Basis Set: (AUG-CC-PVTZ AUX)
    Blend: AUG-CC-PVTZ-JKFIT

    Orbital Energies [Eh]
    ---------------------

    Doubly Occupied:

       1A    -20.631095     2A    -20.569721     3A    -20.554335
       4A    -11.412611     5A    -11.343301     6A    -11.268646
       7A    -11.246016     8A    -11.220212     9A     -1.477754
      10A     -1.389018    11A     -1.374690    12A     -1.081272
      13A     -1.043145    14A     -0.901645    15A     -0.840527
      16A     -0.743751    17A     -0.717782    18A     -0.707402
      19A     -0.674329    20A     -0.653684    21A     -0.633572
      22A     -0.626532    23A     -0.597684    24A     -0.573235
      25A     -0.531632    26A     -0.520493    27A     -0.515748
      28A     -0.502656    29A     -0.490836    30A     -0.466396
      31A     -0.422612

  @DF-RHF Final Energy:  -418.75988502993721

   => Energetics <=

    Nuclear Repulsion Energy =            371.9669632744220849
    One-Electron Energy =               -1309.9890287477542188
    Two-Electron Energy =                 519.2621804433948682
    Total Energy =                       -418.7598850299372089
  Basis Set: (AUG-CC-PVTZ AUX)
    Blend: AUG-CC-PVTZ-RI
    Molecular point group: c1

    Geometry (in Angstrom), charge = 0, multiplicity = 1:

       Center              X                  Y                   Z               Mass
    ------------   -----------------  -----------------  -----------------  -----------------
         O            1.172208512045    -1.399236023847     0.774352047168    15.994914619570
         O           -2.840701087955    -0.063488523847    -0.296659252832    15.994914619570
         O           -1.238507087955     1.239786476153     0.627199747168    15.994914619570
         C            1.618471912045     0.562287476153    -0.605533252832    12.000000000000
         C            0.801107912045    -0.584077523847    -0.062363252832    12.000000000000
         C           -0.615374187955    -0.819009223847    -0.568297952832    12.000000000000
         C            2.974675912045     0.690277476153     0.067988747168    12.000000000000
         C           -1.553011087955     0.255339476153    -0.017665252832    12.000000000000
         H            1.725372912045     0.410231476153    -1.688866252832     1.007825032230
         H            1.023895912045     1.474603476153    -0.486452252832     1.007825032230
         H           -0.628023087955    -0.635883523847    -1.705596252832     1.007825032230
         H           -0.963465087955    -1.761358523847    -0.380686252832     1.007825032230
         H            3.556043912045    -0.225176523847    -0.053638252832     1.007825032230
         H            3.538854912045     1.522534476153    -0.359521252832     1.007825032230
         H            2.855171912045     0.865676476153     1.138547747168     1.007825032230
         H           -3.381544087955     0.639515476153     0.120728747168     1.007825032230

  Basis Set: AUG-CC-PVTZ
    Blend: AUG-CC-PVTZ
  Basis Set: (AUG-CC-PVTZ AUX)
    Blend: AUG-CC-PVTZ-JKFIT
	 Reference Energy          =    -418.7598850299372089 [Eh]
	 Singles Energy            =      -0.0000000000000000 [Eh]
	 Same-Spin Energy          =      -0.4080388643810213 [Eh]
	 Opposite-Spin Energy      =      -1.2865162932631438 [Eh]
	 Correlation Energy        =      -1.6945551576441651 [Eh]
	 Total Energy              =    -420.4544401875813833 [Eh]

	 ================> DF-SCS-MP2 Energies <==================
	-----------------------------------------------------------
	 SCS Same-Spin Scale       =       0.3333333333333333 [-]
	 SCS Opposite-Spin Scale   =       1.2000000000000000 [-]
	 SCS Same-Spin Energy      =      -0.1360129547936738 [Eh]
	 SCS Opposite-Spin Energy  =      -1.5438195519157725 [Eh]
	 SCS Correlation Energy    =      -1.6798325067094462 [Eh]
	 SCS Total Energy          =    -420.4397175366466399 [Eh]
	-----------------------------------------------------------

  Dipole Moment: [D]
     X:    -1.1691      Y:     0.8755      Z:    -2.5250     Total:     2.9170

*** Psi4 exiting successfully. Buy a developer a beer!
