                               Psi4 1.3.2 release

  ==> Input File <==

--------------------------------------------------------------------------
#psi4
#
memory 32 gb

molecule  {
0 1
  O        1.2197630    -1.3791890     0.7815710
  O       -2.8493200    -0.0743410    -0.2921690
  O       -1.2471260     1.2289340     0.6316900
  C        1.6098530     0.5514350    -0.6010430
  C        0.7924890    -0.5949300    -0.0578730
  C       -0.6155180    -0.7660970    -0.6108670
  C        2.9660570     0.6794250     0.0724790
  C       -1.6047219     0.1845351     0.0147671
  H        1.7167540     0.3993790    -1.6843760
  H        1.0152770     1.4637510    -0.4819620
  H       -0.6366420    -0.6467360    -1.7011060
  H       -1.0160359    -1.7484944    -0.3482724
  H        3.5474250    -0.2360290    -0.0491480
  H        3.5302360     1.5116820    -0.3550310
  H        2.8465530     0.8548240     1.1430380
  H       -3.3901630     0.6286630     0.1252190
units angstrom
no_reorient  #important for SAPT in psi4, default
symmetry c1  #important for SAPT in psi4, default
}

set PROPERTIES_ORIGIN ["COM"]
properties('MP2/aug-cc-pvtz', properties = ['dipole'])
--------------------------------------------------------------------------

    Molecular point group: c1
  Charge       = 0
  Multiplicity = 1
  Basis Set: AUG-CC-PVTZ
    Blend: AUG-CC-PVTZ
  Basis Set: (AUG-CC-PVTZ AUX)
    Blend: AUG-CC-PVTZ-JKFIT

    Orbital Energies [Eh]
    ---------------------

    Doubly Occupied:

       1A    -20.647090     2A    -20.559359     3A    -20.555725
       4A    -11.415752     5A    -11.343981     6A    -11.271740
       7A    -11.239541     8A    -11.215798     9A     -1.496917
      10A     -1.387837    11A     -1.352927    12A     -1.083956
      13A     -1.042128    14A     -0.906053    15A     -0.851443
      16A     -0.745045    17A     -0.721814    18A     -0.705329
      19A     -0.684747    20A     -0.653055    21A     -0.630478
      22A     -0.628927    23A     -0.587526    24A     -0.578292
      25A     -0.525890    26A     -0.516467    27A     -0.512714
      28A     -0.494580    29A     -0.480480    30A     -0.462154
      31A     -0.424653

  @DF-RHF Final Energy:  -418.75892229873091

   => Energetics <=

    Nuclear Repulsion Energy =            371.9884270462955556
    One-Electron Energy =               -1310.0499071540955356
    Two-Electron Energy =                 519.3025578090690715
    Total Energy =                       -418.7589222987309086
  Basis Set: (AUG-CC-PVTZ AUX)
    Blend: AUG-CC-PVTZ-RI
    Molecular point group: c1

    Geometry (in Angstrom), charge = 0, multiplicity = 1:

       Center              X                  Y                   Z               Mass
    ------------   -----------------  -----------------  -----------------  -----------------
         O            1.224600771552    -1.373195666912     0.778438977075    15.994914619570
         O           -2.844482228448    -0.068347666912    -0.295301022925    15.994914619570
         O           -1.242288228448     1.234927333088     0.628557977075    15.994914619570
         C            1.614690771552     0.557428333088    -0.604175022925    12.000000000000
         C            0.797326771552    -0.588936666912    -0.061005022925    12.000000000000
         C           -0.610680228448    -0.760103666912    -0.613999022925    12.000000000000
         C            2.970894771552     0.685418333088     0.069346977075    12.000000000000
         C           -1.599884128448     0.190528433088     0.011635077075    12.000000000000
         H            1.721591771552     0.405372333088    -1.687508022925     1.007825032230
         H            1.020114771552     1.469744333088    -0.485094022925     1.007825032230
         H           -0.631804228448    -0.640742666912    -1.704238022925     1.007825032230
         H           -1.011198128448    -1.742501066912    -0.351404422925     1.007825032230
         H            3.552262771552    -0.230035666912    -0.052280022925     1.007825032230
         H            3.535073771552     1.517675333088    -0.358163022925     1.007825032230
         H            2.851390771552     0.860817333088     1.139905977075     1.007825032230
         H           -3.385325228448     0.634656333088     0.122086977075     1.007825032230

  Basis Set: AUG-CC-PVTZ
    Blend: AUG-CC-PVTZ
  Basis Set: (AUG-CC-PVTZ AUX)
    Blend: AUG-CC-PVTZ-JKFIT
	 Reference Energy          =    -418.7589222987309086 [Eh]
	 Singles Energy            =      -0.0000000000000000 [Eh]
	 Same-Spin Energy          =      -0.4089312033188167 [Eh]
	 Opposite-Spin Energy      =      -1.2877553344848209 [Eh]
	 Correlation Energy        =      -1.6966865378036375 [Eh]
	 Total Energy              =    -420.4556088365345659 [Eh]

	 ================> DF-SCS-MP2 Energies <==================
	-----------------------------------------------------------
	 SCS Same-Spin Scale       =       0.3333333333333333 [-]
	 SCS Opposite-Spin Scale   =       1.2000000000000000 [-]
	 SCS Same-Spin Energy      =      -0.1363104011062722 [Eh]
	 SCS Opposite-Spin Energy  =      -1.5453064013817850 [Eh]
	 SCS Correlation Energy    =      -1.6816168024880571 [Eh]
	 SCS Total Energy          =    -420.4405391012189739 [Eh]
	-----------------------------------------------------------

  Dipole Moment: [D]
     X:    -1.7361      Y:     0.5692      Z:    -2.6462     Total:     3.2157

*** Psi4 exiting successfully. Buy a developer a beer!
