                               Psi4 1.3.2 release

  ==> Input File <==

--------------------------------------------------------------------------
#psi4
#
memory 32 gb

molecule  {
0 1
  O        1.2197630    -1.3791890     0.7815710
  O       -2.8493200    -0.0743410    -0.2921690
  O       -1.2471260     1.2289340     0.6316900
  C        1.6098530     0.5514350    -0.6010430
  C        0.7227687    -0.4669588    -0.1948490
  C       -0.6155180    -0.7660970    -0.6108670
  C        2.9660570     0.6794250     0.0724790
  C       -1.5616300     0.2444870    -0.0131750
  H        1.7167540     0.3993790    -1.6843760
  H        1.0152770     1.4637510    -0.4819620
  H       -0.6366420    -0.6467360    -1.7011060
  H       -0.9720840    -1.7722110    -0.3761960
  H        3.5474250    -0.2360290    -0.0491480
  H        3.5302360     1.5116820    -0.3550310
  H        2.8465530     0.8548240     1.1430380
  H       -3.3901630     0.6286630     0.1252190
units angstrom
no_reorient  #important for SAPT in psi4, default
symmetry c1  #important for SAPT in psi4, default
}

set PROPERTIES_ORIGIN ["COM"]
properties('MP2/aug-cc-pvtz', properties = ['dipole'])
--------------------------------------------------------------------------

    Molecular point group: c1
  Charge       = 0
  Multiplicity = 1
  Basis Set: AUG-CC-PVTZ
    Blend: AUG-CC-PVTZ
  Basis Set: (AUG-CC-PVTZ AUX)
    Blend: AUG-CC-PVTZ-JKFIT

    Orbital Energies [Eh]
    ---------------------

    Doubly Occupied:

       1A    -20.638540     2A    -20.577595     3A    -20.537255
       4A    -11.421577     5A    -11.358992     6A    -11.281821
       7A    -11.250198     8A    -11.223040     9A     -1.485948
      10A     -1.383689    11A     -1.280544    12A     -1.110405
      13A     -1.062130    14A     -0.925023    15A     -0.855965
      16A     -0.746768    17A     -0.723827    18A     -0.716293
      19A     -0.684387    20A     -0.654176    21A     -0.641359
      22A     -0.615022    23A     -0.605618    24A     -0.553292
      25A     -0.540489    26A     -0.515088    27A     -0.508124
      28A     -0.494225    29A     -0.481636    30A     -0.428120
      31A     -0.422190

  @DF-RHF Final Energy:  -418.69467152676498

   => Energetics <=

    Nuclear Repulsion Energy =            372.0642075800205362
    One-Electron Energy =               -1310.0710838441311807
    Two-Electron Energy =                 519.3122047373456098
    Total Energy =                       -418.6946715267649779
  Basis Set: (AUG-CC-PVTZ AUX)
    Blend: AUG-CC-PVTZ-RI
    Molecular point group: c1

    Geometry (in Angstrom), charge = 0, multiplicity = 1:

       Center              X                  Y                   Z               Mass
    ------------   -----------------  -----------------  -----------------  -----------------
         O            1.226972605023    -1.392422087248     0.795735015328    15.994914619570
         O           -2.842110394977    -0.087574087248    -0.278004984672    15.994914619570
         O           -1.239916394977     1.215700912752     0.645854015328    15.994914619570
         C            1.617062605023     0.538201912752    -0.586878984672    12.000000000000
         C            0.729978305023    -0.480191887248    -0.180684984672    12.000000000000
         C           -0.608308394977    -0.779330087248    -0.596702984672    12.000000000000
         C            2.973266605023     0.666191912752     0.086643015328    12.000000000000
         C           -1.554420394977     0.231253912752     0.000989015328    12.000000000000
         H            1.723963605023     0.386145912752    -1.670211984672     1.007825032230
         H            1.022486605023     1.450517912752    -0.467797984672     1.007825032230
         H           -0.629432394977    -0.659969087248    -1.686941984672     1.007825032230
         H           -0.964874394977    -1.785444087248    -0.362031984672     1.007825032230
         H            3.554634605023    -0.249262087248    -0.034983984672     1.007825032230
         H            3.537445605023     1.498448912752    -0.340866984672     1.007825032230
         H            2.853762605023     0.841590912752     1.157202015328     1.007825032230
         H           -3.382953394977     0.615429912752     0.139383015328     1.007825032230

  Basis Set: AUG-CC-PVTZ
    Blend: AUG-CC-PVTZ
  Basis Set: (AUG-CC-PVTZ AUX)
    Blend: AUG-CC-PVTZ-JKFIT
	 Reference Energy          =    -418.6946715267649779 [Eh]
	 Singles Energy            =      -0.0000000000000000 [Eh]
	 Same-Spin Energy          =      -0.4162178455541921 [Eh]
	 Opposite-Spin Energy      =      -1.3020105361506171 [Eh]
	 Correlation Energy        =      -1.7182283817048092 [Eh]
	 Total Energy              =    -420.4128999084697966 [Eh]

	 ================> DF-SCS-MP2 Energies <==================
	-----------------------------------------------------------
	 SCS Same-Spin Scale       =       0.3333333333333333 [-]
	 SCS Opposite-Spin Scale   =       1.2000000000000000 [-]
	 SCS Same-Spin Energy      =      -0.1387392818513973 [Eh]
	 SCS Opposite-Spin Energy  =      -1.5624126433807406 [Eh]
	 SCS Correlation Energy    =      -1.7011519252321379 [Eh]
	 SCS Total Energy          =    -420.3958234519971029 [Eh]
	-----------------------------------------------------------

  Dipole Moment: [D]
     X:    -1.5509      Y:     1.2273      Z:    -2.9246     Total:     3.5305

*** Psi4 exiting successfully. Buy a developer a beer!
