                               Psi4 1.3.2 release

  ==> Input File <==

--------------------------------------------------------------------------
#psi4
#
memory 32 gb

molecule  {
0 1
  O        1.2197630    -1.3791890     0.7815710
  O       -2.8493200    -0.0743410    -0.2921690
  O       -1.2471260     1.2289340     0.6316900
  C        1.6098530     0.5514350    -0.6010430
  C        0.8466527    -0.5189646    -0.0938669
  C       -0.6155180    -0.7660970    -0.6108670
  C        2.9660570     0.6794250     0.0724790
  C       -1.5616300     0.2444870    -0.0131750
  H        1.7167540     0.3993790    -1.6843760
  H        1.0152770     1.4637510    -0.4819620
  H       -0.6366420    -0.6467360    -1.7011060
  H       -0.9720840    -1.7722110    -0.3761960
  H        3.5474250    -0.2360290    -0.0491480
  H        3.5302360     1.5116820    -0.3550310
  H        2.8465530     0.8548240     1.1430380
  H       -3.3901630     0.6286630     0.1252190
units angstrom
no_reorient  #important for SAPT in psi4, default
symmetry c1  #important for SAPT in psi4, default
}

set PROPERTIES_ORIGIN ["COM"]
properties('MP2/aug-cc-pvtz', properties = ['dipole'])
--------------------------------------------------------------------------

    Molecular point group: c1
  Charge       = 0
  Multiplicity = 1
  Basis Set: AUG-CC-PVTZ
    Blend: AUG-CC-PVTZ
  Basis Set: (AUG-CC-PVTZ AUX)
    Blend: AUG-CC-PVTZ-JKFIT

    Orbital Energies [Eh]
    ---------------------

    Doubly Occupied:

       1A    -20.631371     2A    -20.568953     3A    -20.551532
       4A    -11.411111     5A    -11.349853     6A    -11.272802
       7A    -11.244091     8A    -11.221987     9A     -1.478005
      10A     -1.375587    11A     -1.351639    12A     -1.096640
      13A     -1.046216    14A     -0.916339    15A     -0.837144
      16A     -0.741653    17A     -0.718887    18A     -0.705564
      19A     -0.675881    20A     -0.650422    21A     -0.640797
      22A     -0.616594    23A     -0.597861    24A     -0.571638
      25A     -0.529115    26A     -0.518178    27A     -0.516412
      28A     -0.499574    29A     -0.482316    30A     -0.462083
      31A     -0.428191

  @DF-RHF Final Energy:  -418.74859909695488

   => Energetics <=

    Nuclear Repulsion Energy =            372.0704560588986851
    One-Electron Energy =               -1310.2212400276719109
    Two-Electron Energy =                 519.4021848718183492
    Total Energy =                       -418.7485990969548766
  Basis Set: (AUG-CC-PVTZ AUX)
    Blend: AUG-CC-PVTZ-RI
    Molecular point group: c1

    Geometry (in Angstrom), charge = 0, multiplicity = 1:

       Center              X                  Y                   Z               Mass
    ------------   -----------------  -----------------  -----------------  -----------------
         O            1.214162247222    -1.387044371758     0.785292853044    15.994914619570
         O           -2.854920752778    -0.082196371758    -0.288447146956    15.994914619570
         O           -1.252726752778     1.221078628242     0.635411853044    15.994914619570
         C            1.604252247222     0.543579628242    -0.597321146956    12.000000000000
         C            0.841051947222    -0.526819971758    -0.090145046956    12.000000000000
         C           -0.621118752778    -0.773952371758    -0.607145146956    12.000000000000
         C            2.960456247222     0.671569628242     0.076200853044    12.000000000000
         C           -1.567230752778     0.236631628242    -0.009453146956    12.000000000000
         H            1.711153247222     0.391523628242    -1.680654146956     1.007825032230
         H            1.009676247222     1.455895628242    -0.478240146956     1.007825032230
         H           -0.642242752778    -0.654591371758    -1.697384146956     1.007825032230
         H           -0.977684752778    -1.780066371758    -0.372474146956     1.007825032230
         H            3.541824247222    -0.243884371758    -0.045426146956     1.007825032230
         H            3.524635247222     1.503826628242    -0.351309146956     1.007825032230
         H            2.840952247222     0.846968628242     1.146759853044     1.007825032230
         H           -3.395763752778     0.620807628242     0.128940853044     1.007825032230

  Basis Set: AUG-CC-PVTZ
    Blend: AUG-CC-PVTZ
  Basis Set: (AUG-CC-PVTZ AUX)
    Blend: AUG-CC-PVTZ-JKFIT
	 Reference Energy          =    -418.7485990969548766 [Eh]
	 Singles Energy            =      -0.0000000000000000 [Eh]
	 Same-Spin Energy          =      -0.4104926988950506 [Eh]
	 Opposite-Spin Energy      =      -1.2907966652416238 [Eh]
	 Correlation Energy        =      -1.7012893641366744 [Eh]
	 Total Energy              =    -420.4498884610915752 [Eh]

	 ================> DF-SCS-MP2 Energies <==================
	-----------------------------------------------------------
	 SCS Same-Spin Scale       =       0.3333333333333333 [-]
	 SCS Opposite-Spin Scale   =       1.2000000000000000 [-]
	 SCS Same-Spin Energy      =      -0.1368308996316835 [Eh]
	 SCS Opposite-Spin Energy  =      -1.5489559982899486 [Eh]
	 SCS Correlation Energy    =      -1.6857868979216322 [Eh]
	 SCS Total Energy          =    -420.4343859948764930 [Eh]
	-----------------------------------------------------------

  Dipole Moment: [D]
     X:    -1.0600      Y:     1.0918      Z:    -2.7234     Total:     3.1197

*** Psi4 exiting successfully. Buy a developer a beer!
