                               Psi4 1.3.2 release

  ==> Input File <==

--------------------------------------------------------------------------
#psi4
#
memory 32 gb

molecule  {
0 1
  O        1.2197630    -1.3791890     0.7815710
  O       -2.8493200    -0.0743410    -0.2921690
  O       -1.2471260     1.2289340     0.6316900
  C        1.6098530     0.5514350    -0.6010430
  C        0.7351390    -0.5753310    -0.1085554
  C       -0.6155180    -0.7660970    -0.6108670
  C        2.9810682     0.7419781     0.0256665
  C       -1.5616300     0.2444870    -0.0131750
  H        1.7167540     0.3993790    -1.6843760
  H        1.0152770     1.4637510    -0.4819620
  H       -0.6366420    -0.6467360    -1.7011060
  H       -0.9720840    -1.7722110    -0.3761960
  H        3.5474250    -0.2360290    -0.0491480
  H        3.5302360     1.5116820    -0.3550310
  H        2.8465530     0.8548240     1.1430380
  H       -3.3901630     0.6286630     0.1252190
units angstrom
no_reorient  #important for SAPT in psi4, default
symmetry c1  #important for SAPT in psi4, default
}

set PROPERTIES_ORIGIN ["COM"]
properties('MP2/aug-cc-pvtz', properties = ['dipole'])
--------------------------------------------------------------------------

    Molecular point group: c1
  Charge       = 0
  Multiplicity = 1
  Basis Set: AUG-CC-PVTZ
    Blend: AUG-CC-PVTZ
  Basis Set: (AUG-CC-PVTZ AUX)
    Blend: AUG-CC-PVTZ-JKFIT

    Orbital Energies [Eh]
    ---------------------

    Doubly Occupied:

       1A    -20.636660     2A    -20.574584     3A    -20.552109
       4A    -11.418772     5A    -11.350460     6A    -11.276399
       7A    -11.244463     8A    -11.218716     9A     -1.483542
      10A     -1.380945    11A     -1.345938    12A     -1.099264
      13A     -1.045253    14A     -0.908744    15A     -0.848732
      16A     -0.745270    17A     -0.722645    18A     -0.712400
      19A     -0.683761    20A     -0.650586    21A     -0.628802
      22A     -0.621029    23A     -0.599547    24A     -0.579336
      25A     -0.543568    26A     -0.510267    27A     -0.501179
      28A     -0.492381    29A     -0.484998    30A     -0.458810
      31A     -0.431731

  @DF-RHF Final Energy:  -418.74288809087761

   => Energetics <=

    Nuclear Repulsion Energy =            371.7319445612828872
    One-Electron Energy =               -1309.4478817786914533
    Two-Electron Energy =                 518.9730491265308956
    Total Energy =                       -418.7428880908776136
  Basis Set: (AUG-CC-PVTZ AUX)
    Blend: AUG-CC-PVTZ-RI
    Molecular point group: c1

    Geometry (in Angstrom), charge = 0, multiplicity = 1:

       Center              X                  Y                   Z               Mass
    ------------   -----------------  -----------------  -----------------  -----------------
         O            1.224141191668    -1.387684114103     0.791652429866    15.994914619570
         O           -2.844941808332    -0.082836114103    -0.282087570134    15.994914619570
         O           -1.242747808332     1.220438885897     0.641771429866    15.994914619570
         C            1.614231191668     0.542939885897    -0.590961570134    12.000000000000
         C            0.739517191668    -0.583826114103    -0.098473970134    12.000000000000
         C           -0.611139808332    -0.774592114103    -0.600785570134    12.000000000000
         C            2.985446391668     0.733482985897     0.035747929866    12.000000000000
         C           -1.557251808332     0.235991885897    -0.003093570134    12.000000000000
         H            1.721132191668     0.390883885897    -1.674294570134     1.007825032230
         H            1.019655191668     1.455255885897    -0.471880570134     1.007825032230
         H           -0.632263808332    -0.655231114103    -1.691024570134     1.007825032230
         H           -0.967705808332    -1.780706114103    -0.366114570134     1.007825032230
         H            3.551803191668    -0.244524114103    -0.039066570134     1.007825032230
         H            3.534614191668     1.503186885897    -0.344949570134     1.007825032230
         H            2.850931191668     0.846328885897     1.153119429866     1.007825032230
         H           -3.385784808332     0.620167885897     0.135300429866     1.007825032230

  Basis Set: AUG-CC-PVTZ
    Blend: AUG-CC-PVTZ
  Basis Set: (AUG-CC-PVTZ AUX)
    Blend: AUG-CC-PVTZ-JKFIT
	 Reference Energy          =    -418.7428880908776136 [Eh]
	 Singles Energy            =      -0.0000000000000000 [Eh]
	 Same-Spin Energy          =      -0.4108201887522646 [Eh]
	 Opposite-Spin Energy      =      -1.2920501643715734 [Eh]
	 Correlation Energy        =      -1.7028703531238381 [Eh]
	 Total Energy              =    -420.4457584440014557 [Eh]

	 ================> DF-SCS-MP2 Energies <==================
	-----------------------------------------------------------
	 SCS Same-Spin Scale       =       0.3333333333333333 [-]
	 SCS Opposite-Spin Scale   =       1.2000000000000000 [-]
	 SCS Same-Spin Energy      =      -0.1369400629174215 [Eh]
	 SCS Opposite-Spin Energy  =      -1.5504601972458880 [Eh]
	 SCS Correlation Energy    =      -1.6874002601633096 [Eh]
	 SCS Total Energy          =    -420.4302883510409288 [Eh]
	-----------------------------------------------------------

  Dipole Moment: [D]
     X:    -1.6369      Y:     0.9110      Z:    -2.7191     Total:     3.3019

*** Psi4 exiting successfully. Buy a developer a beer!
