                               Psi4 1.4a3.dev225

  ==> Input File <==

--------------------------------------------------------------------------
#psi4
#
memory 32 gb

molecule  {
0 1
  O        1.1896460     1.3864710    -0.7896670
  O       -2.9164350     0.0620530     0.2465870
  O       -1.2994600    -1.1722570    -0.7513140
  C        1.5277270    -0.5390120     0.6173550
  C        0.7330570     0.6116870     0.0446410
  C       -0.6915030     0.7929470     0.5540020
  C        2.9119880    -0.6669770    -0.0005940
  C       -1.6259000    -0.2196380    -0.0638170
  H        1.5906630    -0.3916430     1.7048170
  H        0.9378800    -1.4511620     0.4690430
  H       -0.7449460     0.6872940     1.6445860
  H       -1.0362610     1.7983420     0.2961770
  H        3.4930330     0.2441750     0.1549910
  H        3.4532110    -1.5066350     0.4428820
  H        2.8367130    -0.8315610    -1.0772290
  H       -3.4798568    -0.6684448    -0.2118913
units angstrom
no_reorient  #important for SAPT in psi4, default
symmetry c1  #important for SAPT in psi4, default
}

set PROPERTIES_ORIGIN ["COM"]
properties('MP2/aug-cc-pvtz', properties = ['dipole'])
--------------------------------------------------------------------------

    Molecular point group: c1
  Charge       = 0
  Multiplicity = 1
  Basis Set: AUG-CC-PVTZ
    Blend: AUG-CC-PVTZ
  Basis Set: (AUG-CC-PVTZ AUX)
    Blend: AUG-CC-PVTZ-JKFIT

    Orbital Energies [Eh]
    ---------------------

    Doubly Occupied:

       1A    -20.635722     2A    -20.569671     3A    -20.556474
       4A    -11.412879     5A    -11.344155     6A    -11.271568
       7A    -11.241971     8A    -11.217517     9A     -1.472076
      10A     -1.387645    11A     -1.370921    12A     -1.083572
      13A     -1.040579    14A     -0.899253    15A     -0.833112
      16A     -0.741540    17A     -0.714070    18A     -0.705654
      19A     -0.679117    20A     -0.648022    21A     -0.630826
      22A     -0.624623    23A     -0.595212    24A     -0.576001
      25A     -0.525690    26A     -0.517369    27A     -0.515193
      28A     -0.501911    29A     -0.489347    30A     -0.468847
      31A     -0.424235

  @DF-RHF Final Energy:  -418.76241954792442

   => Energetics <=

    Nuclear Repulsion Energy =            371.5399383643594433
    One-Electron Energy =               -1309.2151754338849514
    Two-Electron Energy =                 518.9128175216011414
    Total Energy =                       -418.7624195479244236
  Basis Set: (AUG-CC-PVTZ AUX)
    Blend: AUG-CC-PVTZ-RI
    Molecular point group: c1

    Geometry (in Angstrom), charge = 0, multiplicity = 1:

       Center              X                  Y                   Z               Mass
    ------------   -----------------  -----------------  -----------------  -----------------
         O            1.250264020478     1.368971848408    -0.760071201707    15.994914619570
         O           -2.855816979522     0.044553848408     0.276182798293    15.994914619570
         O           -1.238841979522    -1.189756151592    -0.721718201707    15.994914619570
         C            1.588345020478    -0.556511151592     0.646950798293    12.000000000000
         C            0.793675020478     0.594187848408     0.074236798293    12.000000000000
         C           -0.630884979522     0.775447848408     0.583597798293    12.000000000000
         C            2.972606020478    -0.684476151592     0.029001798293    12.000000000000
         C           -1.565281979522    -0.237137151592    -0.034221201707    12.000000000000
         H            1.651281020478    -0.409142151592     1.734412798293     1.007825032230
         H            0.998498020478    -1.468661151592     0.498638798293     1.007825032230
         H           -0.684327979522     0.669794848408     1.674181798293     1.007825032230
         H           -0.975642979522     1.780842848408     0.325772798293     1.007825032230
         H            3.553651020478     0.226675848408     0.184586798293     1.007825032230
         H            3.513829020478    -1.524134151592     0.472477798293     1.007825032230
         H            2.897331020478    -0.849060151592    -1.047633201707     1.007825032230
         H           -3.419238779522    -0.685943951592    -0.182295501707     1.007825032230

  Basis Set: AUG-CC-PVTZ
    Blend: AUG-CC-PVTZ
  Basis Set: (AUG-CC-PVTZ AUX)
    Blend: AUG-CC-PVTZ-JKFIT
	 Reference Energy          =    -418.7624195479244236 [Eh]
	 Singles Energy            =      -0.0000000000000000 [Eh]
	 Same-Spin Energy          =      -0.4088509159054274 [Eh]
	 Opposite-Spin Energy      =      -1.2882973786442156 [Eh]
	 Correlation Energy        =      -1.6971482945496430 [Eh]
	 Total Energy              =    -420.4595678424740868 [Eh]

	 ================> DF-SCS-MP2 Energies <==================
	-----------------------------------------------------------
	 SCS Same-Spin Scale       =       0.3333333333333333 [-]
	 SCS Opposite-Spin Scale   =       1.2000000000000000 [-]
	 SCS Same-Spin Energy      =      -0.1362836386351425 [Eh]
	 SCS Opposite-Spin Energy  =      -1.5459568543730586 [Eh]
	 SCS Correlation Energy    =      -1.6822404930082011 [Eh]
	 SCS Total Energy          =    -420.4446600409326038 [Eh]
	-----------------------------------------------------------

  Dipole Moment: [D]
     X:    -1.4748      Y:    -0.8315      Z:     2.5614     Total:     3.0704

*** Psi4 exiting successfully. Buy a developer a beer!
