                               Psi4 1.3.2 release

  ==> Input File <==

--------------------------------------------------------------------------
#psi4
#
memory 32 gb

molecule  {
0 1
  O        1.2197630    -1.3791890     0.7815710
  O       -2.8493200    -0.0743410    -0.2921690
  O       -1.2266550     1.2236827     0.6293723
  C        1.6098530     0.5514350    -0.6010430
  C        0.7924890    -0.5949300    -0.0578730
  C       -0.5952020    -0.7524860    -0.6011421
  C        2.9660570     0.6794250     0.0724790
  C       -1.5616300     0.2444870    -0.0131750
  H        1.7167540     0.3993790    -1.6843760
  H        1.0152770     1.4637510    -0.4819620
  H       -0.6366420    -0.6467360    -1.7011060
  H       -0.9720840    -1.7722110    -0.3761960
  H        3.5474250    -0.2360290    -0.0491480
  H        3.5302360     1.5116820    -0.3550310
  H        2.8465530     0.8548240     1.1430380
  H       -3.3901630     0.6286630     0.1252190
units angstrom
no_reorient  #important for SAPT in psi4, default
symmetry c1  #important for SAPT in psi4, default
}

set PROPERTIES_ORIGIN ["COM"]
properties('MP2/aug-cc-pvtz', properties = ['dipole'])
--------------------------------------------------------------------------

    Molecular point group: c1
  Charge       = 0
  Multiplicity = 1
  Basis Set: AUG-CC-PVTZ
    Blend: AUG-CC-PVTZ
  Basis Set: (AUG-CC-PVTZ AUX)
    Blend: AUG-CC-PVTZ-JKFIT

    Orbital Energies [Eh]
    ---------------------

    Doubly Occupied:

       1A    -20.635536     2A    -20.570143     3A    -20.556220
       4A    -11.413987     5A    -11.342337     6A    -11.271370
       7A    -11.240235     8A    -11.216486     9A     -1.479951
      10A     -1.389182    11A     -1.377682    12A     -1.086370
      13A     -1.041058    14A     -0.902401    15A     -0.840746
      16A     -0.743372    17A     -0.721198    18A     -0.707719
      19A     -0.680324    20A     -0.649307    21A     -0.632378
      22A     -0.627576    23A     -0.597817    24A     -0.573708
      25A     -0.524038    26A     -0.517880    27A     -0.514329
      28A     -0.503203    29A     -0.490629    30A     -0.467603
      31A     -0.426259

  @DF-RHF Final Energy:  -418.76671319796299

   => Energetics <=

    Nuclear Repulsion Energy =            372.7613209502072209
    One-Electron Energy =               -1311.5739805202349544
    Two-Electron Energy =                 520.0459463720648046
    Total Energy =                       -418.7667131979629858
  Basis Set: (AUG-CC-PVTZ AUX)
    Blend: AUG-CC-PVTZ-RI
    Molecular point group: c1

    Geometry (in Angstrom), charge = 0, multiplicity = 1:

       Center              X                  Y                   Z               Mass
    ------------   -----------------  -----------------  -----------------  -----------------
         O            1.214840767730    -1.379872756574     0.780884702299    15.994914619570
         O           -2.854242232270    -0.075024756574    -0.292855297701    15.994914619570
         O           -1.231577232270     1.222998943426     0.628686002299    15.994914619570
         C            1.604930767730     0.550751243426    -0.601729297701    12.000000000000
         C            0.787566767730    -0.595613756574    -0.058559297701    12.000000000000
         C           -0.600124232270    -0.753169756574    -0.601828397701    12.000000000000
         C            2.961134767730     0.678741243426     0.071792702299    12.000000000000
         C           -1.566552232270     0.243803243426    -0.013861297701    12.000000000000
         H            1.711831767730     0.398695243426    -1.685062297701     1.007825032230
         H            1.010354767730     1.463067243426    -0.482648297701     1.007825032230
         H           -0.641564232270    -0.647419756574    -1.701792297701     1.007825032230
         H           -0.977006232270    -1.772894756574    -0.376882297701     1.007825032230
         H            3.542502767730    -0.236712756574    -0.049834297701     1.007825032230
         H            3.525313767730     1.510998243426    -0.355717297701     1.007825032230
         H            2.841630767730     0.854140243426     1.142351702299     1.007825032230
         H           -3.395085232270     0.627979243426     0.124532702299     1.007825032230

  Basis Set: AUG-CC-PVTZ
    Blend: AUG-CC-PVTZ
  Basis Set: (AUG-CC-PVTZ AUX)
    Blend: AUG-CC-PVTZ-JKFIT
	 Reference Energy          =    -418.7667131979629858 [Eh]
	 Singles Energy            =      -0.0000000000000000 [Eh]
	 Same-Spin Energy          =      -0.4084299503960679 [Eh]
	 Opposite-Spin Energy      =      -1.2868250819418985 [Eh]
	 Correlation Energy        =      -1.6952550323379665 [Eh]
	 Total Energy              =    -420.4619682303009540 [Eh]

	 ================> DF-SCS-MP2 Energies <==================
	-----------------------------------------------------------
	 SCS Same-Spin Scale       =       0.3333333333333333 [-]
	 SCS Opposite-Spin Scale   =       1.2000000000000000 [-]
	 SCS Same-Spin Energy      =      -0.1361433167986893 [Eh]
	 SCS Opposite-Spin Energy  =      -1.5441900983302781 [Eh]
	 SCS Correlation Energy    =      -1.6803334151289673 [Eh]
	 SCS Total Energy          =    -420.4470466130919704 [Eh]
	-----------------------------------------------------------

  Dipole Moment: [D]
     X:    -1.4523      Y:     0.7991      Z:    -2.5568     Total:     3.0471

*** Psi4 exiting successfully. Buy a developer a beer!
