                               Psi4 1.3.2 release

  ==> Input File <==

--------------------------------------------------------------------------
#psi4
#
memory 32 gb

molecule  {
0 1
  N        2.3399850     0.0000400    -0.0882940
  C        0.9354480     0.0000030    -0.0013470
  C        0.2222290     1.2072330    -0.0096550
  C       -1.1718320     1.2039030     0.0053930
  C       -1.8790760     0.0000220     0.0076380
  C       -1.1718640    -1.2038970     0.0054270
  C        0.2221720    -1.2072360    -0.0096460
  H        2.7198960     0.8684796     0.2754818
  H        2.7627430    -0.8301660     0.3152910
  H        0.7657540     2.1507970    -0.0162340
  H       -1.7067870     2.1509120     0.0059600
  H       -2.9656380    -0.0000200     0.0197930
  H       -1.7069100    -2.1508590     0.0059040
  H        0.7657150    -2.1507810    -0.0159610
units angstrom
no_reorient  #important for SAPT in psi4, default
symmetry c1  #important for SAPT in psi4, default
}

set PROPERTIES_ORIGIN ["COM"]
properties('MP2/aug-cc-pvtz', properties = ['dipole'])
--------------------------------------------------------------------------

    Molecular point group: c1
  Charge       = 0
  Multiplicity = 1
  Basis Set: AUG-CC-PVTZ
    Blend: AUG-CC-PVTZ
  Basis Set: (AUG-CC-PVTZ AUX)
    Blend: AUG-CC-PVTZ-JKFIT

    Orbital Energies [Eh]
    ---------------------

    Doubly Occupied:

       1A    -15.567426     2A    -11.278286     3A    -11.237331
       4A    -11.237150     5A    -11.226095     6A    -11.225650
       7A    -11.221590     8A     -1.222331     9A     -1.125248
      10A     -1.011324    11A     -0.984331    12A     -0.831587
      13A     -0.809710    14A     -0.700935    15A     -0.685791
      16A     -0.652469    17A     -0.596309    18A     -0.592668
      19A     -0.580775    20A     -0.533964    21A     -0.505651
      22A     -0.489236    23A     -0.449380    24A     -0.336722
      25A     -0.297135

  @DF-RHF Final Energy:  -285.83365076471387

   => Energetics <=

    Nuclear Repulsion Energy =            271.0198540897587236
    One-Electron Energy =                -922.9088269329610057
    Two-Electron Energy =                 366.0553220784884161
    Total Energy =                       -285.8336507647138660
  Basis Set: (AUG-CC-PVTZ AUX)
    Blend: AUG-CC-PVTZ-RI
    Molecular point group: c1

    Geometry (in Angstrom), charge = 0, multiplicity = 1:

       Center              X                  Y                   Z               Mass
    ------------   -----------------  -----------------  -----------------  -----------------
         N            2.347596961403    -0.000385100213    -0.081117668123    14.003074004430
         C            0.943059961403    -0.000422100213     0.005829331877    12.000000000000
         C            0.229840961403     1.206807899787    -0.002478668123    12.000000000000
         C           -1.164220038597     1.203477899787     0.012569331877    12.000000000000
         C           -1.871464038597    -0.000403100213     0.014814331877    12.000000000000
         C           -1.164252038597    -1.204322100213     0.012603331877    12.000000000000
         C            0.229783961403    -1.207661100213    -0.002469668123    12.000000000000
         H            2.727507961403     0.868054499787     0.282658131877     1.007825032230
         H            2.770354961403    -0.830591100213     0.322467331877     1.007825032230
         H            0.773365961403     2.150371899787    -0.009057668123     1.007825032230
         H           -1.699175038597     2.150486899787     0.013136331877     1.007825032230
         H           -2.958026038597    -0.000445100213     0.026969331877     1.007825032230
         H           -1.699298038597    -2.151284100213     0.013080331877     1.007825032230
         H            0.773326961403    -2.151206100213    -0.008784668123     1.007825032230

  Basis Set: AUG-CC-PVTZ
    Blend: AUG-CC-PVTZ
  Basis Set: (AUG-CC-PVTZ AUX)
    Blend: AUG-CC-PVTZ-JKFIT
	 Reference Energy          =    -285.8336507647138660 [Eh]
	 Singles Energy            =      -0.0000000000000000 [Eh]
	 Same-Spin Energy          =      -0.3155245998032889 [Eh]
	 Opposite-Spin Energy      =      -0.9943656462056208 [Eh]
	 Correlation Energy        =      -1.3098902460089097 [Eh]
	 Total Energy              =    -287.1435410107227995 [Eh]

	 ================> DF-SCS-MP2 Energies <==================
	-----------------------------------------------------------
	 SCS Same-Spin Scale       =       0.3333333333333333 [-]
	 SCS Opposite-Spin Scale   =       1.2000000000000000 [-]
	 SCS Same-Spin Energy      =      -0.1051748666010963 [Eh]
	 SCS Opposite-Spin Energy  =      -1.1932387754467451 [Eh]
	 SCS Correlation Energy    =      -1.2984136420478414 [Eh]
	 SCS Total Energy          =    -287.1320644067616854 [Eh]
	-----------------------------------------------------------

  Dipole Moment: [D]
     X:     0.9628      Y:     0.0217      Z:     1.0300     Total:     1.4101

*** Psi4 exiting successfully. Buy a developer a beer!
