                               Psi4 1.3.2 release

  ==> Input File <==

--------------------------------------------------------------------------
#psi4
#
memory 32 gb

molecule  {
0 1
  N        2.3326885    -0.1469172    -0.0814565
  C        0.9354480     0.0000030    -0.0013470
  C        0.2222290     1.2072330    -0.0096550
  C       -1.1718320     1.2039030     0.0053930
  C       -1.8790760     0.0000220     0.0076380
  C       -1.1718640    -1.2038970     0.0054270
  C        0.2221720    -1.2072360    -0.0096460
  H        2.7627720     0.8296730     0.3164440
  H        2.7627430    -0.8301660     0.3152910
  H        0.7657540     2.1507970    -0.0162340
  H       -1.7067870     2.1509120     0.0059600
  H       -2.9656380    -0.0000200     0.0197930
  H       -1.7069100    -2.1508590     0.0059040
  H        0.7657150    -2.1507810    -0.0159610
units angstrom
no_reorient  #important for SAPT in psi4, default
symmetry c1  #important for SAPT in psi4, default
}

set PROPERTIES_ORIGIN ["COM"]
properties('MP2/aug-cc-pvtz', properties = ['dipole'])
--------------------------------------------------------------------------

    Molecular point group: c1
  Charge       = 0
  Multiplicity = 1
  Basis Set: AUG-CC-PVTZ
    Blend: AUG-CC-PVTZ
  Basis Set: (AUG-CC-PVTZ AUX)
    Blend: AUG-CC-PVTZ-JKFIT

    Orbital Energies [Eh]
    ---------------------

    Doubly Occupied:

       1A    -15.566811     2A    -11.280628     3A    -11.238788
       4A    -11.236195     5A    -11.229803     6A    -11.223851
       7A    -11.222482     8A     -1.226168     9A     -1.127430
      10A     -1.011809    11A     -0.988541    12A     -0.831298
      13A     -0.816853    14A     -0.717437    15A     -0.676355
      16A     -0.649141    17A     -0.605903    18A     -0.583322
      19A     -0.569800    20A     -0.534843    21A     -0.506163
      22A     -0.487049    23A     -0.450484    24A     -0.337122
      25A     -0.298472

  @DF-RHF Final Energy:  -285.80431697069690

   => Energetics <=

    Nuclear Repulsion Energy =            271.0973505270676469
    One-Electron Energy =                -922.9698338727956752
    Two-Electron Energy =                 366.0681663750311259
    Total Energy =                       -285.8043169706969024
  Basis Set: (AUG-CC-PVTZ AUX)
    Blend: AUG-CC-PVTZ-RI
    Molecular point group: c1

    Geometry (in Angstrom), charge = 0, multiplicity = 1:

       Center              X                  Y                   Z               Mass
    ------------   -----------------  -----------------  -----------------  -----------------
         N            2.340934066455    -0.124808329921    -0.075752679579    14.003074004430
         C            0.943693566455     0.022111870079     0.004356820421    12.000000000000
         C            0.230474566455     1.229341870079    -0.003951179579    12.000000000000
         C           -1.163586433545     1.226011870079     0.011096820421    12.000000000000
         C           -1.870830433545     0.022130870079     0.013341820421    12.000000000000
         C           -1.163618433545    -1.181788129921     0.011130820421    12.000000000000
         C            0.230417566455    -1.185127129921    -0.003942179579    12.000000000000
         H            2.771017566455     0.851781870079     0.322147820421     1.007825032230
         H            2.770988566455    -0.808057129921     0.320994820421     1.007825032230
         H            0.773999566455     2.172905870079    -0.010530179579     1.007825032230
         H           -1.698541433545     2.173020870079     0.011663820421     1.007825032230
         H           -2.957392433545     0.022088870079     0.025496820421     1.007825032230
         H           -1.698664433545    -2.128750129921     0.011607820421     1.007825032230
         H            0.773960566455    -2.128672129921    -0.010257179579     1.007825032230

  Basis Set: AUG-CC-PVTZ
    Blend: AUG-CC-PVTZ
  Basis Set: (AUG-CC-PVTZ AUX)
    Blend: AUG-CC-PVTZ-JKFIT
	 Reference Energy          =    -285.8043169706969024 [Eh]
	 Singles Energy            =      -0.0000000000000000 [Eh]
	 Same-Spin Energy          =      -0.3157759436617456 [Eh]
	 Opposite-Spin Energy      =      -0.9955734878577933 [Eh]
	 Correlation Energy        =      -1.3113494315195389 [Eh]
	 Total Energy              =    -287.1156664022164478 [Eh]

	 ================> DF-SCS-MP2 Energies <==================
	-----------------------------------------------------------
	 SCS Same-Spin Scale       =       0.3333333333333333 [-]
	 SCS Opposite-Spin Scale   =       1.2000000000000000 [-]
	 SCS Same-Spin Energy      =      -0.1052586478872485 [Eh]
	 SCS Opposite-Spin Energy  =      -1.1946881854293518 [Eh]
	 SCS Correlation Energy    =      -1.2999468333166004 [Eh]
	 SCS Total Energy          =    -287.1042638040134989 [Eh]
	-----------------------------------------------------------

  Dipole Moment: [D]
     X:     0.9083      Y:     0.1062      Z:     1.0669     Total:     1.4052

*** Psi4 exiting successfully. Buy a developer a beer!
