                               Psi4 1.3.2 release

  ==> Input File <==

--------------------------------------------------------------------------
#psi4
#
memory 32 gb

molecule  {
0 1
  N        2.3399850     0.0000400    -0.0882940
  C        0.9354480     0.0000030    -0.0013470
  C        0.2222290     1.2072330    -0.0096550
  C       -1.1718320     1.2039030     0.0053930
  C       -1.8790760     0.0000220     0.0076380
  C       -1.1718640    -1.2038970     0.0054270
  C        0.2221720    -1.2072360    -0.0096460
  H        2.7211308     0.7479606     0.2765805
  H        2.7627430    -0.8301660     0.3152910
  H        0.7657540     2.1507970    -0.0162340
  H       -1.7067870     2.1509120     0.0059600
  H       -2.9656380    -0.0000200     0.0197930
  H       -1.7069100    -2.1508590     0.0059040
  H        0.7657150    -2.1507810    -0.0159610
units angstrom
no_reorient  #important for SAPT in psi4, default
symmetry c1  #important for SAPT in psi4, default
}

set PROPERTIES_ORIGIN ["COM"]
properties('MP2/aug-cc-pvtz', properties = ['dipole'])
--------------------------------------------------------------------------

    Molecular point group: c1
  Charge       = 0
  Multiplicity = 1
  Basis Set: AUG-CC-PVTZ
    Blend: AUG-CC-PVTZ
  Basis Set: (AUG-CC-PVTZ AUX)
    Blend: AUG-CC-PVTZ-JKFIT

    Orbital Energies [Eh]
    ---------------------

    Doubly Occupied:

       1A    -15.556420     2A    -11.278701     3A    -11.237418
       4A    -11.237277     5A    -11.226499     6A    -11.226170
       7A    -11.222193     8A     -1.234539     9A     -1.129186
      10A     -1.011569    11A     -0.989537    12A     -0.832489
      13A     -0.814317    14A     -0.708519    15A     -0.692759
      16A     -0.655142    17A     -0.599803    18A     -0.595039
      19A     -0.581448    20A     -0.534778    21A     -0.506259
      22A     -0.489518    23A     -0.450995    24A     -0.336824
      25A     -0.298661

  @DF-RHF Final Energy:  -285.82754241745550

   => Energetics <=

    Nuclear Repulsion Energy =            271.5011854132009148
    One-Electron Energy =                -923.7653371461253755
    Two-Electron Energy =                 366.4366093154689565
    Total Energy =                       -285.8275424174555042
  Basis Set: (AUG-CC-PVTZ AUX)
    Blend: AUG-CC-PVTZ-RI
    Molecular point group: c1

    Geometry (in Angstrom), charge = 0, multiplicity = 1:

       Center              X                  Y                   Z               Mass
    ------------   -----------------  -----------------  -----------------  -----------------
         N            2.347583588406     0.000920131598    -0.081129567145    14.003074004430
         C            0.943046588406     0.000883131598     0.005817432855    12.000000000000
         C            0.229827588406     1.208113131598    -0.002490567145    12.000000000000
         C           -1.164233411594     1.204783131598     0.012557432855    12.000000000000
         C           -1.871477411594     0.000902131598     0.014802432855    12.000000000000
         C           -1.164265411594    -1.203016868402     0.012591432855    12.000000000000
         C            0.229770588406    -1.206355868402    -0.002481567145    12.000000000000
         H            2.728729388406     0.748840731598     0.283744932855     1.007825032230
         H            2.770341588406    -0.829285868402     0.322455432855     1.007825032230
         H            0.773352588406     2.151677131598    -0.009069567145     1.007825032230
         H           -1.699188411594     2.151792131598     0.013124432855     1.007825032230
         H           -2.958039411594     0.000860131598     0.026957432855     1.007825032230
         H           -1.699311411594    -2.149978868402     0.013068432855     1.007825032230
         H            0.773313588406    -2.149900868402    -0.008796567145     1.007825032230

  Basis Set: AUG-CC-PVTZ
    Blend: AUG-CC-PVTZ
  Basis Set: (AUG-CC-PVTZ AUX)
    Blend: AUG-CC-PVTZ-JKFIT
	 Reference Energy          =    -285.8275424174555042 [Eh]
	 Singles Energy            =      -0.0000000000000000 [Eh]
	 Same-Spin Energy          =      -0.3148978108475906 [Eh]
	 Opposite-Spin Energy      =      -0.9927594736127935 [Eh]
	 Correlation Energy        =      -1.3076572844603840 [Eh]
	 Total Energy              =    -287.1351997019158944 [Eh]

	 ================> DF-SCS-MP2 Energies <==================
	-----------------------------------------------------------
	 SCS Same-Spin Scale       =       0.3333333333333333 [-]
	 SCS Opposite-Spin Scale   =       1.2000000000000000 [-]
	 SCS Same-Spin Energy      =      -0.1049659369491969 [Eh]
	 SCS Opposite-Spin Energy  =      -1.1913113683353522 [Eh]
	 SCS Correlation Energy    =      -1.2962773052845491 [Eh]
	 SCS Total Energy          =    -287.1238197227400519 [Eh]
	-----------------------------------------------------------

  Dipole Moment: [D]
     X:     0.9314      Y:    -0.0462      Z:     1.0629     Total:     1.4140

*** Psi4 exiting successfully. Buy a developer a beer!
