                               Psi4 1.4a3.dev225

  ==> Input File <==

--------------------------------------------------------------------------
#psi4
#
memory 32 gb

molecule  {
0 1
  N       -2.3397230    -0.0000020    -0.0878920
  C       -0.9854898    -0.0000001    -0.0046419
  C       -0.2222120    -1.2072400    -0.0095320
  C        1.1718210    -1.2038670     0.0053410
  C        1.8791240     0.0000000     0.0076690
  C        1.1718200     1.2038680     0.0053420
  C       -0.2222130     1.2072400    -0.0095320
  H       -2.7631340    -0.8301610     0.3147570
  H       -2.7631370     0.8301660     0.3147360
  H       -0.7656510    -2.1508580    -0.0161820
  H        1.7067130    -2.1509240     0.0060020
  H        2.9656770     0.0000010     0.0198220
  H        1.7067110     2.1509250     0.0059990
  H       -0.7656540     2.1508570    -0.0161750
units angstrom
no_reorient  #important for SAPT in psi4, default
symmetry c1  #important for SAPT in psi4, default
}

set PROPERTIES_ORIGIN ["COM"]
properties('MP2/aug-cc-pvtz', properties = ['dipole'])
--------------------------------------------------------------------------

    Molecular point group: c1
  Charge       = 0
  Multiplicity = 1
  Basis Set: AUG-CC-PVTZ
    Blend: AUG-CC-PVTZ
  Basis Set: (AUG-CC-PVTZ AUX)
    Blend: AUG-CC-PVTZ-JKFIT

    Orbital Energies [Eh]
    ---------------------

    Doubly Occupied:

       1A    -15.573295     2A    -11.283088     3A    -11.235881
       4A    -11.235851     5A    -11.226017     6A    -11.226004
       7A    -11.218720     8A     -1.240756     9A     -1.122568
      10A     -1.006794    11A     -0.980024    12A     -0.827733
      13A     -0.812266    14A     -0.705311    15A     -0.688841
      16A     -0.660399    17A     -0.598672    18A     -0.585563
      19A     -0.577014    20A     -0.538899    21A     -0.508092
      22A     -0.480059    23A     -0.453849    24A     -0.334630
      25A     -0.290358

  @DF-RHF Final Energy:  -285.83015382091821

   => Energetics <=

    Nuclear Repulsion Energy =            270.6805087415523872
    One-Electron Energy =                -922.1999534728518029
    Two-Electron Energy =                 365.6892909103812599
    Total Energy =                       -285.8301538209182127
  Basis Set: (AUG-CC-PVTZ AUX)
    Blend: AUG-CC-PVTZ-RI
    Molecular point group: c1

    Geometry (in Angstrom), charge = 0, multiplicity = 1:

       Center              X                  Y                   Z               Mass
    ------------   -----------------  -----------------  -----------------  -----------------
         N           -2.340444099756    -0.000001880083    -0.080787555169    14.003074004430
         C           -0.986210899756     0.000000019917     0.002462544831    12.000000000000
         C           -0.222933099756    -1.207239880083    -0.002427555169    12.000000000000
         C            1.171099900244    -1.203866880083     0.012445444831    12.000000000000
         C            1.878402900244     0.000000119917     0.014773444831    12.000000000000
         C            1.171098900244     1.203868119917     0.012446444831    12.000000000000
         C           -0.222934099756     1.207240119917    -0.002427555169    12.000000000000
         H           -2.763855099756    -0.830160880083     0.321861444831     1.007825032230
         H           -2.763858099756     0.830166119917     0.321840444831     1.007825032230
         H           -0.766372099756    -2.150857880083    -0.009077555169     1.007825032230
         H            1.705991900244    -2.150923880083     0.013106444831     1.007825032230
         H            2.964955900244     0.000001119917     0.026926444831     1.007825032230
         H            1.705989900244     2.150925119917     0.013103444831     1.007825032230
         H           -0.766375099756     2.150857119917    -0.009070555169     1.007825032230

  Basis Set: AUG-CC-PVTZ
    Blend: AUG-CC-PVTZ
  Basis Set: (AUG-CC-PVTZ AUX)
    Blend: AUG-CC-PVTZ-JKFIT
	 Reference Energy          =    -285.8301538209182127 [Eh]
	 Singles Energy            =      -0.0000000000000000 [Eh]
	 Same-Spin Energy          =      -0.3158541363020626 [Eh]
	 Opposite-Spin Energy      =      -0.9946652914379014 [Eh]
	 Correlation Energy        =      -1.3105194277399641 [Eh]
	 Total Energy              =    -287.1406732486581745 [Eh]

	 ================> DF-SCS-MP2 Energies <==================
	-----------------------------------------------------------
	 SCS Same-Spin Scale       =       0.3333333333333333 [-]
	 SCS Opposite-Spin Scale   =       1.2000000000000000 [-]
	 SCS Same-Spin Energy      =      -0.1052847121006875 [Eh]
	 SCS Opposite-Spin Energy  =      -1.1935983497254816 [Eh]
	 SCS Correlation Energy    =      -1.2988830618261691 [Eh]
	 SCS Total Energy          =    -287.1290368827444013 [Eh]
	-----------------------------------------------------------

  Dipole Moment: [D]
     X:    -1.3159      Y:     0.0000      Z:     1.0609     Total:     1.6903

*** Psi4 exiting successfully. Buy a developer a beer!
