                               Psi4 1.3.2 release

  ==> Input File <==

--------------------------------------------------------------------------
#psi4
#
memory 32 gb

molecule  {
0 1
  N        2.3399850     0.0000400    -0.0882940
  C        0.9376990     0.0436038     0.0211601
  C        0.2222290     1.2072330    -0.0096550
  C       -1.1718320     1.2039030     0.0053930
  C       -1.8790760     0.0000220     0.0076380
  C       -1.1718640    -1.2038970     0.0054270
  C        0.2221720    -1.2072360    -0.0096460
  H        2.7627720     0.8296730     0.3164440
  H        2.7627430    -0.8301660     0.3152910
  H        0.7657540     2.1507970    -0.0162340
  H       -1.7067870     2.1509120     0.0059600
  H       -2.9656380    -0.0000200     0.0197930
  H       -1.7069100    -2.1508590     0.0059040
  H        0.7657150    -2.1507810    -0.0159610
units angstrom
no_reorient  #important for SAPT in psi4, default
symmetry c1  #important for SAPT in psi4, default
}

set PROPERTIES_ORIGIN ["COM"]
properties('MP2/aug-cc-pvtz', properties = ['dipole'])
--------------------------------------------------------------------------

    Molecular point group: c1
  Charge       = 0
  Multiplicity = 1
  Basis Set: AUG-CC-PVTZ
    Blend: AUG-CC-PVTZ
  Basis Set: (AUG-CC-PVTZ AUX)
    Blend: AUG-CC-PVTZ-JKFIT

    Orbital Energies [Eh]
    ---------------------

    Doubly Occupied:

       1A    -15.567673     2A    -11.278314     3A    -11.237578
       4A    -11.236609     5A    -11.230354     6A    -11.222181
       7A    -11.221957     8A     -1.222386     9A     -1.125640
      10A     -1.012356    11A     -0.984273    12A     -0.831516
      13A     -0.809622    14A     -0.702199    15A     -0.680532
      16A     -0.654030    17A     -0.600471    18A     -0.587529
      19A     -0.580339    20A     -0.534387    21A     -0.506804
      22A     -0.486688    23A     -0.450451    24A     -0.337208
      25A     -0.297749

  @DF-RHF Final Energy:  -285.83131406966191

   => Energetics <=

    Nuclear Repulsion Energy =            270.9244926136881304
    One-Electron Energy =                -922.7139281868388707
    Two-Electron Energy =                 365.9581215034888260
    Total Energy =                       -285.8313140696619143
  Basis Set: (AUG-CC-PVTZ AUX)
    Blend: AUG-CC-PVTZ-RI
    Molecular point group: c1

    Geometry (in Angstrom), charge = 0, multiplicity = 1:

       Center              X                  Y                   Z               Mass
    ------------   -----------------  -----------------  -----------------  -----------------
         N            2.346842339341    -0.005587233522    -0.084463629083    14.003074004430
         C            0.944556339341     0.037976566478     0.024990470917    12.000000000000
         C            0.229086339341     1.201605766478    -0.005824629083    12.000000000000
         C           -1.164974660659     1.198275766478     0.009223370917    12.000000000000
         C           -1.872218660659    -0.005605233522     0.011468370917    12.000000000000
         C           -1.165006660659    -1.209524233522     0.009257370917    12.000000000000
         C            0.229029339341    -1.212863233522    -0.005815629083    12.000000000000
         H            2.769629339341     0.824045766478     0.320274370917     1.007825032230
         H            2.769600339341    -0.835793233522     0.319121370917     1.007825032230
         H            0.772611339341     2.145169766478    -0.012403629083     1.007825032230
         H           -1.699929660659     2.145284766478     0.009790370917     1.007825032230
         H           -2.958780660659    -0.005647233522     0.023623370917     1.007825032230
         H           -1.700052660659    -2.156486233522     0.009734370917     1.007825032230
         H            0.772572339341    -2.156408233522    -0.012130629083     1.007825032230

  Basis Set: AUG-CC-PVTZ
    Blend: AUG-CC-PVTZ
  Basis Set: (AUG-CC-PVTZ AUX)
    Blend: AUG-CC-PVTZ-JKFIT
	 Reference Energy          =    -285.8313140696619143 [Eh]
	 Singles Energy            =      -0.0000000000000000 [Eh]
	 Same-Spin Energy          =      -0.3154424653527926 [Eh]
	 Opposite-Spin Energy      =      -0.9945780040082233 [Eh]
	 Correlation Energy        =      -1.3100204693610160 [Eh]
	 Total Energy              =    -287.1413345390229210 [Eh]

	 ================> DF-SCS-MP2 Energies <==================
	-----------------------------------------------------------
	 SCS Same-Spin Scale       =       0.3333333333333333 [-]
	 SCS Opposite-Spin Scale   =       1.2000000000000000 [-]
	 SCS Same-Spin Energy      =      -0.1051474884509309 [Eh]
	 SCS Opposite-Spin Energy  =      -1.1934936048098679 [Eh]
	 SCS Correlation Energy    =      -1.2986410932607988 [Eh]
	 SCS Total Energy          =    -287.1299551629227267 [Eh]
	-----------------------------------------------------------

  Dipole Moment: [D]
     X:     0.9604      Y:    -0.0159      Z:     1.0761     Total:     1.4424

*** Psi4 exiting successfully. Buy a developer a beer!
