                               Psi4 1.3.2 release

  ==> Input File <==

--------------------------------------------------------------------------
#psi4
#
memory 32 gb

molecule  {
0 1
  N        2.3399850     0.0000400    -0.0882940
  C        0.8356391     0.0000004     0.0048316
  C        0.2222290     1.2072330    -0.0096550
  C       -1.1718320     1.2039030     0.0053930
  C       -1.8790760     0.0000220     0.0076380
  C       -1.1718640    -1.2038970     0.0054270
  C        0.2221720    -1.2072360    -0.0096460
  H        2.7627720     0.8296730     0.3164440
  H        2.7627430    -0.8301660     0.3152910
  H        0.7657540     2.1507970    -0.0162340
  H       -1.7067870     2.1509120     0.0059600
  H       -2.9656380    -0.0000200     0.0197930
  H       -1.7069100    -2.1508590     0.0059040
  H        0.7657150    -2.1507810    -0.0159610
units angstrom
no_reorient  #important for SAPT in psi4, default
symmetry c1  #important for SAPT in psi4, default
}

set PROPERTIES_ORIGIN ["COM"]
properties('MP2/aug-cc-pvtz', properties = ['dipole'])
--------------------------------------------------------------------------

    Molecular point group: c1
  Charge       = 0
  Multiplicity = 1
  Basis Set: AUG-CC-PVTZ
    Blend: AUG-CC-PVTZ
  Basis Set: (AUG-CC-PVTZ AUX)
    Blend: AUG-CC-PVTZ-JKFIT

    Orbital Energies [Eh]
    ---------------------

    Doubly Occupied:

       1A    -15.556304     2A    -11.271805     3A    -11.239927
       4A    -11.239883     5A    -11.226795     6A    -11.226102
       7A    -11.226066     8A     -1.198818     9A     -1.125709
      10A     -1.021207    11A     -0.993517    12A     -0.838128
      13A     -0.810298    14A     -0.703096    15A     -0.667506
      16A     -0.641466    17A     -0.607824    18A     -0.588376
      19A     -0.582556    20A     -0.532199    21A     -0.503603
      22A     -0.497398    23A     -0.437394    24A     -0.340943
      25A     -0.311238

  @DF-RHF Final Energy:  -285.82331999854489

   => Energetics <=

    Nuclear Repulsion Energy =            271.6314177082759329
    One-Electron Energy =                -924.1331608167142804
    Two-Electron Energy =                 366.6784231098935152
    Total Energy =                       -285.8233199985448891
  Basis Set: (AUG-CC-PVTZ AUX)
    Blend: AUG-CC-PVTZ-RI
    Molecular point group: c1

    Geometry (in Angstrom), charge = 0, multiplicity = 1:

       Center              X                  Y                   Z               Mass
    ------------   -----------------  -----------------  -----------------  -----------------
         N            2.360003172200     0.000035514095    -0.082358035610    14.003074004430
         C            0.855657272200    -0.000004085905     0.010767564390    12.000000000000
         C            0.242247172200     1.207228514095    -0.003719035610    12.000000000000
         C           -1.151813827800     1.203898514095     0.011328964390    12.000000000000
         C           -1.859057827800     0.000017514095     0.013573964390    12.000000000000
         C           -1.151845827800    -1.203901485905     0.011362964390    12.000000000000
         C            0.242190172200    -1.207240485905    -0.003710035610    12.000000000000
         H            2.782790172200     0.829668514095     0.322379964390     1.007825032230
         H            2.782761172200    -0.830170485905     0.321226964390     1.007825032230
         H            0.785772172200     2.150792514095    -0.010298035610     1.007825032230
         H           -1.686768827800     2.150907514095     0.011895964390     1.007825032230
         H           -2.945619827800    -0.000024485905     0.025728964390     1.007825032230
         H           -1.686891827800    -2.150863485905     0.011839964390     1.007825032230
         H            0.785733172200    -2.150785485905    -0.010025035610     1.007825032230

  Basis Set: AUG-CC-PVTZ
    Blend: AUG-CC-PVTZ
  Basis Set: (AUG-CC-PVTZ AUX)
    Blend: AUG-CC-PVTZ-JKFIT
	 Reference Energy          =    -285.8233199985448891 [Eh]
	 Singles Energy            =      -0.0000000000000000 [Eh]
	 Same-Spin Energy          =      -0.3152240203133665 [Eh]
	 Opposite-Spin Energy      =      -0.9945968655148203 [Eh]
	 Correlation Energy        =      -1.3098208858281868 [Eh]
	 Total Energy              =    -287.1331408843730628 [Eh]

	 ================> DF-SCS-MP2 Energies <==================
	-----------------------------------------------------------
	 SCS Same-Spin Scale       =       0.3333333333333333 [-]
	 SCS Opposite-Spin Scale   =       1.2000000000000000 [-]
	 SCS Same-Spin Energy      =      -0.1050746734377888 [Eh]
	 SCS Opposite-Spin Energy  =      -1.1935162386177842 [Eh]
	 SCS Correlation Energy    =      -1.2985909120555730 [Eh]
	 SCS Total Energy          =    -287.1219109106004339 [Eh]
	-----------------------------------------------------------

  Dipole Moment: [D]
     X:     0.3246      Y:    -0.0007      Z:     1.0941     Total:     1.1413

*** Psi4 exiting successfully. Buy a developer a beer!
