                               Psi4 1.3.2 release

  ==> Input File <==

--------------------------------------------------------------------------
#psi4
#
memory 32 gb

molecule  {
0 1
  N        2.3399850     0.0000400    -0.0882940
  C        1.1350659     0.0000083    -0.0137042
  C        0.2222290     1.2072330    -0.0096550
  C       -1.1718320     1.2039030     0.0053930
  C       -1.8790760     0.0000220     0.0076380
  C       -1.1718640    -1.2038970     0.0054270
  C        0.2221720    -1.2072360    -0.0096460
  H        2.7627720     0.8296730     0.3164440
  H        2.7627430    -0.8301660     0.3152910
  H        0.7657540     2.1507970    -0.0162340
  H       -1.7067870     2.1509120     0.0059600
  H       -2.9656380    -0.0000200     0.0197930
  H       -1.7069100    -2.1508590     0.0059040
  H        0.7657150    -2.1507810    -0.0159610
units angstrom
no_reorient  #important for SAPT in psi4, default
symmetry c1  #important for SAPT in psi4, default
}

set PROPERTIES_ORIGIN ["COM"]
properties('MP2/aug-cc-pvtz', properties = ['dipole'])
--------------------------------------------------------------------------

    Molecular point group: c1
  Charge       = 0
  Multiplicity = 1
  Basis Set: AUG-CC-PVTZ
    Blend: AUG-CC-PVTZ
  Basis Set: (AUG-CC-PVTZ AUX)
    Blend: AUG-CC-PVTZ-JKFIT

    Orbital Energies [Eh]
    ---------------------

    Doubly Occupied:

       1A    -15.595612     2A    -11.297572     3A    -11.231787
       4A    -11.231773     5A    -11.224439     6A    -11.224428
       7A    -11.205499     8A     -1.320359     9A     -1.109113
      10A     -0.994196    11A     -0.962040    12A     -0.827273
      13A     -0.823842    14A     -0.725810    15A     -0.718099
      16A     -0.664473    17A     -0.595568    18A     -0.576887
      19A     -0.574723    20A     -0.558178    21A     -0.506804
      22A     -0.456128    23A     -0.445990    24A     -0.328736
      25A     -0.266498

  @DF-RHF Final Energy:  -285.76945935451096

   => Energetics <=

    Nuclear Repulsion Energy =            270.2018960909763337
    One-Electron Energy =                -921.0110552249064995
    Two-Electron Energy =                 365.0396997794192089
    Total Energy =                       -285.7694593545109569
  Basis Set: (AUG-CC-PVTZ AUX)
    Blend: AUG-CC-PVTZ-RI
    Molecular point group: c1

    Geometry (in Angstrom), charge = 0, multiplicity = 1:

       Center              X                  Y                   Z               Mass
    ------------   -----------------  -----------------  -----------------  -----------------
         N            2.321391473889     0.000034495374    -0.079967806286    14.003074004430
         C            1.116472373889     0.000002795374    -0.005378006286    12.000000000000
         C            0.203635473889     1.207227495374    -0.001328806286    12.000000000000
         C           -1.190425526111     1.203897495374     0.013719193714    12.000000000000
         C           -1.897669526111     0.000016495374     0.015964193714    12.000000000000
         C           -1.190457526111    -1.203902504626     0.013753193714    12.000000000000
         C            0.203578473889    -1.207241504626    -0.001319806286    12.000000000000
         H            2.744178473889     0.829667495374     0.324770193714     1.007825032230
         H            2.744149473889    -0.830171504626     0.323617193714     1.007825032230
         H            0.747160473889     2.150791495374    -0.007907806286     1.007825032230
         H           -1.725380526111     2.150906495374     0.014286193714     1.007825032230
         H           -2.984231526111    -0.000025504626     0.028119193714     1.007825032230
         H           -1.725503526111    -2.150864504626     0.014230193714     1.007825032230
         H            0.747121473889    -2.150786504626    -0.007634806286     1.007825032230

  Basis Set: AUG-CC-PVTZ
    Blend: AUG-CC-PVTZ
  Basis Set: (AUG-CC-PVTZ AUX)
    Blend: AUG-CC-PVTZ-JKFIT
	 Reference Energy          =    -285.7694593545109569 [Eh]
	 Singles Energy            =      -0.0000000000000000 [Eh]
	 Same-Spin Energy          =      -0.3176533114238890 [Eh]
	 Opposite-Spin Energy      =      -0.9970786682659942 [Eh]
	 Correlation Energy        =      -1.3147319796898831 [Eh]
	 Total Energy              =    -287.0841913342008525 [Eh]

	 ================> DF-SCS-MP2 Energies <==================
	-----------------------------------------------------------
	 SCS Same-Spin Scale       =       0.3333333333333333 [-]
	 SCS Opposite-Spin Scale   =       1.2000000000000000 [-]
	 SCS Same-Spin Energy      =      -0.1058844371412963 [Eh]
	 SCS Opposite-Spin Energy  =      -1.1964944019191930 [Eh]
	 SCS Correlation Energy    =      -1.3023788390604893 [Eh]
	 SCS Total Energy          =    -287.0718381935714660 [Eh]
	-----------------------------------------------------------

  Dipole Moment: [D]
     X:     2.5090      Y:    -0.0007      Z:     1.0138     Total:     2.7061

*** Psi4 exiting successfully. Buy a developer a beer!
