                               Psi4 1.4a3.dev225

  ==> Input File <==

--------------------------------------------------------------------------
#psi4
#
memory 32 gb

molecule  {
0 1
  N       -2.3397230    -0.0000020    -0.0878920
  C       -0.9355840     0.0000000    -0.0015740
  C       -0.2222120    -1.2072400    -0.0095320
  C        1.1718210    -1.2038670     0.0053410
  C        1.8791240     0.0000000     0.0076690
  C        1.1718200     1.2038680     0.0053420
  C       -0.2222130     1.2072400    -0.0095320
  H       -2.7839882    -0.8710487     0.3345886
  H       -2.7631370     0.8301660     0.3147360
  H       -0.7656510    -2.1508580    -0.0161820
  H        1.7067130    -2.1509240     0.0060020
  H        2.9656770     0.0000010     0.0198220
  H        1.7067110     2.1509250     0.0059990
  H       -0.7656540     2.1508570    -0.0161750
units angstrom
no_reorient  #important for SAPT in psi4, default
symmetry c1  #important for SAPT in psi4, default
}

set PROPERTIES_ORIGIN ["COM"]
properties('MP2/aug-cc-pvtz', properties = ['dipole'])
--------------------------------------------------------------------------

    Molecular point group: c1
  Charge       = 0
  Multiplicity = 1
  Basis Set: AUG-CC-PVTZ
    Blend: AUG-CC-PVTZ
  Basis Set: (AUG-CC-PVTZ AUX)
    Blend: AUG-CC-PVTZ-JKFIT

    Orbital Energies [Eh]
    ---------------------

    Doubly Occupied:

       1A    -15.572216     2A    -11.278735     3A    -11.237164
       4A    -11.237077     5A    -11.226146     6A    -11.225947
       7A    -11.221803     8A     -1.217476     9A     -1.123916
      10A     -1.011204    11A     -0.983258    12A     -0.830363
      13A     -0.809503    14A     -0.701387    15A     -0.673834
      16A     -0.652771    17A     -0.596766    18A     -0.588465
      19A     -0.579450    20A     -0.533792    21A     -0.505821
      22A     -0.488861    23A     -0.449285    24A     -0.336603
      25A     -0.297459

  @DF-RHF Final Energy:  -285.83062734045961

   => Energetics <=

    Nuclear Repulsion Energy =            270.7088095328225563
    One-Electron Energy =                -922.3202676845596670
    Two-Electron Energy =                 365.7808308112774967
    Total Energy =                       -285.8306273404596141
  Basis Set: (AUG-CC-PVTZ AUX)
    Blend: AUG-CC-PVTZ-RI
    Molecular point group: c1

    Geometry (in Angstrom), charge = 0, multiplicity = 1:

       Center              X                  Y                   Z               Mass
    ------------   -----------------  -----------------  -----------------  -----------------
         N           -2.346653701848     0.000440924558    -0.081397945194    14.003074004430
         C           -0.942514701848     0.000442924558     0.004920054806    12.000000000000
         C           -0.229142701848    -1.206797075442    -0.003037945194    12.000000000000
         C            1.164890298152    -1.203424075442     0.011835054806    12.000000000000
         C            1.872193298152     0.000442924558     0.014163054806    12.000000000000
         C            1.164889298152     1.204310924558     0.011836054806    12.000000000000
         C           -0.229143701848     1.207682924558    -0.003037945194    12.000000000000
         H           -2.790918901848    -0.870605775442     0.341082654806     1.007825032230
         H           -2.770067701848     0.830608924558     0.321230054806     1.007825032230
         H           -0.772581701848    -2.150415075442    -0.009687945194     1.007825032230
         H            1.699782298152    -2.150481075442     0.012496054806     1.007825032230
         H            2.958746298152     0.000443924558     0.026316054806     1.007825032230
         H            1.699780298152     2.151367924558     0.012493054806     1.007825032230
         H           -0.772584701848     2.151299924558    -0.009680945194     1.007825032230

  Basis Set: AUG-CC-PVTZ
    Blend: AUG-CC-PVTZ
  Basis Set: (AUG-CC-PVTZ AUX)
    Blend: AUG-CC-PVTZ-JKFIT
	 Reference Energy          =    -285.8306273404596141 [Eh]
	 Singles Energy            =      -0.0000000000000000 [Eh]
	 Same-Spin Energy          =      -0.3157498867427081 [Eh]
	 Opposite-Spin Energy      =      -0.9951881226526094 [Eh]
	 Correlation Energy        =      -1.3109380093953176 [Eh]
	 Total Energy              =    -287.1415653498549432 [Eh]

	 ================> DF-SCS-MP2 Energies <==================
	-----------------------------------------------------------
	 SCS Same-Spin Scale       =       0.3333333333333333 [-]
	 SCS Opposite-Spin Scale   =       1.2000000000000000 [-]
	 SCS Same-Spin Energy      =      -0.1052499622475694 [Eh]
	 SCS Opposite-Spin Energy  =      -1.1942257471831312 [Eh]
	 SCS Correlation Energy    =      -1.2994757094307006 [Eh]
	 SCS Total Energy          =    -287.1301030498902946 [Eh]
	-----------------------------------------------------------

  Dipole Moment: [D]
     X:    -0.9741      Y:    -0.0212      Z:     1.0794     Total:     1.4541

*** Psi4 exiting successfully. Buy a developer a beer!
