                               Psi4 1.4a3.dev225

  ==> Input File <==

--------------------------------------------------------------------------
#psi4
#
memory 32 gb

molecule  {
0 1
  N       -2.3397230    -0.0000020    -0.0878920
  C       -0.8856782     0.0000001     0.0014939
  C       -0.2222120    -1.2072400    -0.0095320
  C        1.1718210    -1.2038670     0.0053410
  C        1.8791240     0.0000000     0.0076690
  C        1.1718200     1.2038680     0.0053420
  C       -0.2222130     1.2072400    -0.0095320
  H       -2.7631340    -0.8301610     0.3147570
  H       -2.7631370     0.8301660     0.3147360
  H       -0.7656510    -2.1508580    -0.0161820
  H        1.7067130    -2.1509240     0.0060020
  H        2.9656770     0.0000010     0.0198220
  H        1.7067110     2.1509250     0.0059990
  H       -0.7656540     2.1508570    -0.0161750
units angstrom
no_reorient  #important for SAPT in psi4, default
symmetry c1  #important for SAPT in psi4, default
}

set PROPERTIES_ORIGIN ["COM"]
properties('MP2/aug-cc-pvtz', properties = ['dipole'])
--------------------------------------------------------------------------

    Molecular point group: c1
  Charge       = 0
  Multiplicity = 1
  Basis Set: AUG-CC-PVTZ
    Blend: AUG-CC-PVTZ
  Basis Set: (AUG-CC-PVTZ AUX)
    Blend: AUG-CC-PVTZ-JKFIT

    Orbital Energies [Eh]
    ---------------------

    Doubly Occupied:

       1A    -15.561677     2A    -11.274897     3A    -11.238511
       4A    -11.238471     5A    -11.226071     6A    -11.226048
       7A    -11.224518     8A     -1.207943     9A     -1.126789
      10A     -1.016043    11A     -0.989571    12A     -0.834403
      13A     -0.810347    14A     -0.702027    15A     -0.673565
      16A     -0.646904    17A     -0.599253    18A     -0.593806
      19A     -0.582017    20A     -0.532080    21A     -0.502481
      22A     -0.496867    23A     -0.444164    24A     -0.338733
      25A     -0.304720

  @DF-RHF Final Energy:  -285.83171417437734

   => Energetics <=

    Nuclear Repulsion Energy =            271.2762770623815527
    One-Electron Energy =                -923.4321738144072924
    Two-Electron Energy =                 366.3241825776483438
    Total Energy =                       -285.8317141743773391
  Basis Set: (AUG-CC-PVTZ AUX)
    Blend: AUG-CC-PVTZ-RI
    Molecular point group: c1

    Geometry (in Angstrom), charge = 0, multiplicity = 1:

       Center              X                  Y                   Z               Mass
    ------------   -----------------  -----------------  -----------------  -----------------
         N           -2.353315009732    -0.000001905874    -0.081578779129    14.003074004430
         C           -0.899270209732     0.000000194126     0.007807120871    12.000000000000
         C           -0.235804009732    -1.207239905874    -0.003218779129    12.000000000000
         C            1.158228990268    -1.203866905874     0.011654220871    12.000000000000
         C            1.865531990268     0.000000094126     0.013982220871    12.000000000000
         C            1.158227990268     1.203868094126     0.011655220871    12.000000000000
         C           -0.235805009732     1.207240094126    -0.003218779129    12.000000000000
         H           -2.776726009732    -0.830160905874     0.321070220871     1.007825032230
         H           -2.776729009732     0.830166094126     0.321049220871     1.007825032230
         H           -0.779243009732    -2.150857905874    -0.009868779129     1.007825032230
         H            1.693120990268    -2.150923905874     0.012315220871     1.007825032230
         H            2.952084990268     0.000001094126     0.026135220871     1.007825032230
         H            1.693118990268     2.150925094126     0.012312220871     1.007825032230
         H           -0.779246009732     2.150857094126    -0.009861779129     1.007825032230

  Basis Set: AUG-CC-PVTZ
    Blend: AUG-CC-PVTZ
  Basis Set: (AUG-CC-PVTZ AUX)
    Blend: AUG-CC-PVTZ-JKFIT
	 Reference Energy          =    -285.8317141743773391 [Eh]
	 Singles Energy            =      -0.0000000000000000 [Eh]
	 Same-Spin Energy          =      -0.3152370505627654 [Eh]
	 Opposite-Spin Energy      =      -0.9942568792972029 [Eh]
	 Correlation Energy        =      -1.3094939298599684 [Eh]
	 Total Energy              =    -287.1412081042373075 [Eh]

	 ================> DF-SCS-MP2 Energies <==================
	-----------------------------------------------------------
	 SCS Same-Spin Scale       =       0.3333333333333333 [-]
	 SCS Opposite-Spin Scale   =       1.2000000000000000 [-]
	 SCS Same-Spin Energy      =      -0.1050790168542551 [Eh]
	 SCS Opposite-Spin Energy  =      -1.1931082551566434 [Eh]
	 SCS Correlation Energy    =      -1.2981872720108985 [Eh]
	 SCS Total Energy          =    -287.1299014463882600 [Eh]
	-----------------------------------------------------------

  Dipole Moment: [D]
     X:    -0.6378      Y:     0.0000      Z:     1.0827     Total:     1.2565

*** Psi4 exiting successfully. Buy a developer a beer!
