                               Psi4 1.3.2 release

  ==> Input File <==

--------------------------------------------------------------------------
#psi4
#
memory 32 gb

molecule  {
0 1
  N        2.3399850     0.0000400    -0.0882940
  C        0.9354480     0.0000030    -0.0013470
  C        0.2222290     1.2072330    -0.0096550
  C       -1.1718320     1.2039030     0.0053930
  C       -1.8790760     0.0000220     0.0076380
  C       -1.1718640    -1.2038970     0.0054270
  C        0.2221720    -1.2072360    -0.0096460
  H        2.6977505     0.8863074     0.2543232
  H        2.7627430    -0.8301660     0.3152910
  H        0.7657540     2.1507970    -0.0162340
  H       -1.7067870     2.1509120     0.0059600
  H       -2.9656380    -0.0000200     0.0197930
  H       -1.7069100    -2.1508590     0.0059040
  H        0.7657150    -2.1507810    -0.0159610
units angstrom
no_reorient  #important for SAPT in psi4, default
symmetry c1  #important for SAPT in psi4, default
}

set PROPERTIES_ORIGIN ["COM"]
properties('MP2/aug-cc-pvtz', properties = ['dipole'])
--------------------------------------------------------------------------

    Molecular point group: c1
  Charge       = 0
  Multiplicity = 1
  Basis Set: AUG-CC-PVTZ
    Blend: AUG-CC-PVTZ
  Basis Set: (AUG-CC-PVTZ AUX)
    Blend: AUG-CC-PVTZ-JKFIT

    Orbital Energies [Eh]
    ---------------------

    Doubly Occupied:

       1A    -15.567452     2A    -11.278100     3A    -11.237413
       4A    -11.237137     5A    -11.226098     6A    -11.225414
       7A    -11.221437     8A     -1.222571     9A     -1.125127
      10A     -1.011343    11A     -0.983959    12A     -0.831963
      13A     -0.809169    14A     -0.700403    15A     -0.688256
      16A     -0.651810    17A     -0.596294    18A     -0.592682
      19A     -0.580861    20A     -0.533895    21A     -0.505522
      22A     -0.489300    23A     -0.449140    24A     -0.336758
      25A     -0.296774

  @DF-RHF Final Energy:  -285.83298634349023

   => Energetics <=

    Nuclear Repulsion Energy =            271.0575517765516338
    One-Electron Energy =                -922.9833167562378549
    Two-Electron Energy =                 366.0927786361959306
    Total Energy =                       -285.8329863434902336
  Basis Set: (AUG-CC-PVTZ AUX)
    Blend: AUG-CC-PVTZ-RI
    Molecular point group: c1

    Geometry (in Angstrom), charge = 0, multiplicity = 1:

       Center              X                  Y                   Z               Mass
    ------------   -----------------  -----------------  -----------------  -----------------
         N            2.347836799196    -0.000578176920    -0.080888518547    14.003074004430
         C            0.943299799196    -0.000615176920     0.006058481453    12.000000000000
         C            0.230080799196     1.206614823080    -0.002249518547    12.000000000000
         C           -1.163980200804     1.203284823080     0.012798481453    12.000000000000
         C           -1.871224200804    -0.000596176920     0.015043481453    12.000000000000
         C           -1.164012200804    -1.204515176920     0.012832481453    12.000000000000
         C            0.230023799196    -1.207854176920    -0.002240518547    12.000000000000
         H            2.705602299196     0.885689223080     0.261728681453     1.007825032230
         H            2.770594799196    -0.830784176920     0.322696481453     1.007825032230
         H            0.773605799196     2.150178823080    -0.008828518547     1.007825032230
         H           -1.698935200804     2.150293823080     0.013365481453     1.007825032230
         H           -2.957786200804    -0.000638176920     0.027198481453     1.007825032230
         H           -1.699058200804    -2.151477176920     0.013309481453     1.007825032230
         H            0.773566799196    -2.151399176920    -0.008555518547     1.007825032230

  Basis Set: AUG-CC-PVTZ
    Blend: AUG-CC-PVTZ
  Basis Set: (AUG-CC-PVTZ AUX)
    Blend: AUG-CC-PVTZ-JKFIT
	 Reference Energy          =    -285.8329863434902336 [Eh]
	 Singles Energy            =      -0.0000000000000000 [Eh]
	 Same-Spin Energy          =      -0.3155791001662700 [Eh]
	 Opposite-Spin Energy      =      -0.9944261157500914 [Eh]
	 Correlation Energy        =      -1.3100052159163615 [Eh]
	 Total Energy              =    -287.1429915594065960 [Eh]

	 ================> DF-SCS-MP2 Energies <==================
	-----------------------------------------------------------
	 SCS Same-Spin Scale       =       0.3333333333333333 [-]
	 SCS Opposite-Spin Scale   =       1.2000000000000000 [-]
	 SCS Same-Spin Energy      =      -0.1051930333887567 [Eh]
	 SCS Opposite-Spin Energy  =      -1.1933113389001098 [Eh]
	 SCS Correlation Energy    =      -1.2985043722888665 [Eh]
	 SCS Total Energy          =    -287.1314907157790799 [Eh]
	-----------------------------------------------------------

  Dipole Moment: [D]
     X:     0.9628      Y:     0.0309      Z:     1.0064     Total:     1.3931

*** Psi4 exiting successfully. Buy a developer a beer!
