                               Psi4 1.3.2 release

  ==> Input File <==

--------------------------------------------------------------------------
#psi4
#
memory 32 gb

molecule  {
0 1
  N        2.3397047     0.0245764    -0.0893428
  C        0.9354480     0.0000030    -0.0013470
  C        0.2222290     1.2072330    -0.0096550
  C       -1.1718320     1.2039030     0.0053930
  C       -1.8790760     0.0000220     0.0076380
  C       -1.1718640    -1.2038970     0.0054270
  C        0.2221720    -1.2072360    -0.0096460
  H        2.7627720     0.8296730     0.3164440
  H        2.7627430    -0.8301660     0.3152910
  H        0.7657540     2.1507970    -0.0162340
  H       -1.7067870     2.1509120     0.0059600
  H       -2.9656380    -0.0000200     0.0197930
  H       -1.7069100    -2.1508590     0.0059040
  H        0.7657150    -2.1507810    -0.0159610
units angstrom
no_reorient  #important for SAPT in psi4, default
symmetry c1  #important for SAPT in psi4, default
}

set PROPERTIES_ORIGIN ["COM"]
properties('MP2/aug-cc-pvtz', properties = ['dipole'])
--------------------------------------------------------------------------

    Molecular point group: c1
  Charge       = 0
  Multiplicity = 1
  Basis Set: AUG-CC-PVTZ
    Blend: AUG-CC-PVTZ
  Basis Set: (AUG-CC-PVTZ AUX)
    Blend: AUG-CC-PVTZ-JKFIT

    Orbital Energies [Eh]
    ---------------------

    Doubly Occupied:

       1A    -15.567412     2A    -11.278709     3A    -11.237424
       4A    -11.236987     5A    -11.226669     6A    -11.225660
       7A    -11.221971     8A     -1.222023     9A     -1.125566
      10A     -1.011342    11A     -0.985178    12A     -0.830922
      13A     -0.811003    14A     -0.702998    15A     -0.679998
      16A     -0.653618    17A     -0.598108    18A     -0.590253
      19A     -0.580406    20A     -0.534135    21A     -0.505925
      22A     -0.489054    23A     -0.449912    24A     -0.336688
      25A     -0.297958

  @DF-RHF Final Energy:  -285.83331471375021

   => Energetics <=

    Nuclear Repulsion Energy =            270.9502109036077968
    One-Electron Energy =                -922.7672108067347381
    Two-Electron Energy =                 365.9836851893767857
    Total Energy =                       -285.8333147137502124
  Basis Set: (AUG-CC-PVTZ AUX)
    Blend: AUG-CC-PVTZ-RI
    Molecular point group: c1

    Geometry (in Angstrom), charge = 0, multiplicity = 1:

       Center              X                  Y                   Z               Mass
    ------------   -----------------  -----------------  -----------------  -----------------
         N            2.346894489122     0.020879412841    -0.082452272134    14.003074004430
         C            0.942637789122    -0.003693987159     0.005543527866    12.000000000000
         C            0.229418789122     1.203536012841    -0.002764472134    12.000000000000
         C           -1.164642210878     1.200206012841     0.012283527866    12.000000000000
         C           -1.871886210878    -0.003674987159     0.014528527866    12.000000000000
         C           -1.164674210878    -1.207593987159     0.012317527866    12.000000000000
         C            0.229361789122    -1.210932987159    -0.002755472134    12.000000000000
         H            2.769961789122     0.825976012841     0.323334527866     1.007825032230
         H            2.769932789122    -0.833862987159     0.322181527866     1.007825032230
         H            0.772943789122     2.147100012841    -0.009343472134     1.007825032230
         H           -1.699597210878     2.147215012841     0.012850527866     1.007825032230
         H           -2.958448210878    -0.003716987159     0.026683527866     1.007825032230
         H           -1.699720210878    -2.154555987159     0.012794527866     1.007825032230
         H            0.772904789122    -2.154477987159    -0.009070472134     1.007825032230

  Basis Set: AUG-CC-PVTZ
    Blend: AUG-CC-PVTZ
  Basis Set: (AUG-CC-PVTZ AUX)
    Blend: AUG-CC-PVTZ-JKFIT
	 Reference Energy          =    -285.8333147137502124 [Eh]
	 Singles Energy            =      -0.0000000000000000 [Eh]
	 Same-Spin Energy          =      -0.3154705592084251 [Eh]
	 Opposite-Spin Energy      =      -0.9943647449530550 [Eh]
	 Correlation Energy        =      -1.3098353041614801 [Eh]
	 Total Energy              =    -287.1431500179116938 [Eh]

	 ================> DF-SCS-MP2 Energies <==================
	-----------------------------------------------------------
	 SCS Same-Spin Scale       =       0.3333333333333333 [-]
	 SCS Opposite-Spin Scale   =       1.2000000000000000 [-]
	 SCS Same-Spin Energy      =      -0.1051568530694750 [Eh]
	 SCS Opposite-Spin Energy  =      -1.1932376939436660 [Eh]
	 SCS Correlation Energy    =      -1.2983945470131411 [Eh]
	 SCS Total Energy          =    -287.1317092607633299 [Eh]
	-----------------------------------------------------------

  Dipole Moment: [D]
     X:     0.9556      Y:    -0.0187      Z:     1.0782     Total:     1.4408

*** Psi4 exiting successfully. Buy a developer a beer!
