                               Psi4 1.4a3.dev225

  ==> Input File <==

--------------------------------------------------------------------------
#psi4
#
memory 32 gb

molecule  {
0 1
  N       -2.3397230    -0.0000020    -0.0878920
  C       -0.9156217     0.0000000    -0.0003468
  C       -0.2222120    -1.2072400    -0.0095320
  C        1.1718210    -1.2038670     0.0053410
  C        1.8791240     0.0000000     0.0076690
  C        1.1718200     1.2038680     0.0053420
  C       -0.2222130     1.2072400    -0.0095320
  H       -2.7631340    -0.8301610     0.3147570
  H       -2.7631370     0.8301660     0.3147360
  H       -0.7656510    -2.1508580    -0.0161820
  H        1.7067130    -2.1509240     0.0060020
  H        2.9656770     0.0000010     0.0198220
  H        1.7067110     2.1509250     0.0059990
  H       -0.7656540     2.1508570    -0.0161750
units angstrom
no_reorient  #important for SAPT in psi4, default
symmetry c1  #important for SAPT in psi4, default
}

set PROPERTIES_ORIGIN ["COM"]
properties('MP2/aug-cc-pvtz', properties = ['dipole'])
--------------------------------------------------------------------------

    Molecular point group: c1
  Charge       = 0
  Multiplicity = 1
  Basis Set: AUG-CC-PVTZ
    Blend: AUG-CC-PVTZ
  Basis Set: (AUG-CC-PVTZ AUX)
    Blend: AUG-CC-PVTZ-JKFIT

    Orbital Energies [Eh]
    ---------------------

    Doubly Occupied:

       1A    -15.565003     2A    -11.277101     3A    -11.237711
       4A    -11.237673     5A    -11.226090     6A    -11.226071
       7A    -11.222990     8A     -1.215835     9A     -1.126255
      10A     -1.013150    11A     -0.986945    12A     -0.832266
      13A     -0.810596    14A     -0.702034    15A     -0.677686
      16A     -0.650986    17A     -0.596140    18A     -0.594403
      19A     -0.581266    20A     -0.532988    21A     -0.504728
      22A     -0.492326    23A     -0.447707    24A     -0.337472
      25A     -0.300613

  @DF-RHF Final Energy:  -285.83395237844098

   => Energetics <=

    Nuclear Repulsion Energy =            271.0784942988452713
    One-Electron Energy =                -923.0328222048507314
    Two-Electron Energy =                 366.1203755275644767
    Total Energy =                       -285.8339523784409835
  Basis Set: (AUG-CC-PVTZ AUX)
    Blend: AUG-CC-PVTZ-RI
    Molecular point group: c1

    Geometry (in Angstrom), charge = 0, multiplicity = 1:

       Center              X                  Y                   Z               Mass
    ------------   -----------------  -----------------  -----------------  -----------------
         N           -2.349453734160    -0.000001892978    -0.081341417099    14.003074004430
         C           -0.925352434160     0.000000107022     0.006203782901    12.000000000000
         C           -0.231942734160    -1.207239892978    -0.002981417099    12.000000000000
         C            1.162090265840    -1.203866892978     0.011891582901    12.000000000000
         C            1.869393265840     0.000000107022     0.014219582901    12.000000000000
         C            1.162089265840     1.203868107022     0.011892582901    12.000000000000
         C           -0.231943734160     1.207240107022    -0.002981417099    12.000000000000
         H           -2.772864734160    -0.830160892978     0.321307582901     1.007825032230
         H           -2.772867734160     0.830166107022     0.321286582901     1.007825032230
         H           -0.775381734160    -2.150857892978    -0.009631417099     1.007825032230
         H            1.696982265840    -2.150923892978     0.012552582901     1.007825032230
         H            2.955946265840     0.000001107022     0.026372582901     1.007825032230
         H            1.696980265840     2.150925107022     0.012549582901     1.007825032230
         H           -0.775384734160     2.150857107022    -0.009624417099     1.007825032230

  Basis Set: AUG-CC-PVTZ
    Blend: AUG-CC-PVTZ
  Basis Set: (AUG-CC-PVTZ AUX)
    Blend: AUG-CC-PVTZ-JKFIT
	 Reference Energy          =    -285.8339523784409835 [Eh]
	 Singles Energy            =      -0.0000000000000000 [Eh]
	 Same-Spin Energy          =      -0.3153450241681447 [Eh]
	 Opposite-Spin Energy      =      -0.9942378418445411 [Eh]
	 Correlation Energy        =      -1.3095828660126858 [Eh]
	 Total Energy              =    -287.1435352444536875 [Eh]

	 ================> DF-SCS-MP2 Energies <==================
	-----------------------------------------------------------
	 SCS Same-Spin Scale       =       0.3333333333333333 [-]
	 SCS Opposite-Spin Scale   =       1.2000000000000000 [-]
	 SCS Same-Spin Energy      =      -0.1051150080560482 [Eh]
	 SCS Opposite-Spin Energy  =      -1.1930854102134494 [Eh]
	 SCS Correlation Energy    =      -1.2982004182694975 [Eh]
	 SCS Total Energy          =    -287.1321527967104998 [Eh]
	-----------------------------------------------------------

  Dipole Moment: [D]
     X:    -0.8317      Y:     0.0000      Z:     1.0770     Total:     1.3608

*** Psi4 exiting successfully. Buy a developer a beer!
