                               Psi4 1.3.2 release

  ==> Input File <==

--------------------------------------------------------------------------
#psi4
#
memory 32 gb

molecule  {
0 1
  N        2.3399850     0.0000400    -0.0882940
  C        0.9354480     0.0000030    -0.0013470
  C        0.2222290     1.2072330    -0.0096550
  C       -1.1718320     1.2039030     0.0053930
  C       -1.8790760     0.0000220     0.0076380
  C       -1.1718640    -1.2038970     0.0054270
  C        0.2221720    -1.2072360    -0.0096460
  H        2.8035882     0.7868245     0.3554344
  H        2.7627430    -0.8301660     0.3152910
  H        0.7657540     2.1507970    -0.0162340
  H       -1.7067870     2.1509120     0.0059600
  H       -2.9656380    -0.0000200     0.0197930
  H       -1.7069100    -2.1508590     0.0059040
  H        0.7657150    -2.1507810    -0.0159610
units angstrom
no_reorient  #important for SAPT in psi4, default
symmetry c1  #important for SAPT in psi4, default
}

set PROPERTIES_ORIGIN ["COM"]
properties('MP2/aug-cc-pvtz', properties = ['dipole'])
--------------------------------------------------------------------------

    Molecular point group: c1
  Charge       = 0
  Multiplicity = 1
  Basis Set: AUG-CC-PVTZ
    Blend: AUG-CC-PVTZ
  Basis Set: (AUG-CC-PVTZ AUX)
    Blend: AUG-CC-PVTZ-JKFIT

    Orbital Energies [Eh]
    ---------------------

    Doubly Occupied:

       1A    -15.567107     2A    -11.279089     3A    -11.237245
       4A    -11.237080     5A    -11.226625     6A    -11.226202
       7A    -11.222315     8A     -1.221725     9A     -1.125854
      10A     -1.011350    11A     -0.985941    12A     -0.830356
      13A     -0.812102    14A     -0.704104    15A     -0.675085
      16A     -0.655129    17A     -0.598550    18A     -0.589426
      19A     -0.580074    20A     -0.534172    21A     -0.506236
      22A     -0.488968    23A     -0.450272    24A     -0.336642
      25A     -0.298686

  @DF-RHF Final Energy:  -285.83363863683525

   => Energetics <=

    Nuclear Repulsion Energy =            270.8858008165656770
    One-Electron Energy =                -922.6382111962470844
    Two-Electron Energy =                 365.9187717428461042
    Total Energy =                       -285.8336386368352464
  Basis Set: (AUG-CC-PVTZ AUX)
    Blend: AUG-CC-PVTZ-RI
    Molecular point group: c1

    Geometry (in Angstrom), charge = 0, multiplicity = 1:

       Center              X                  Y                   Z               Mass
    ------------   -----------------  -----------------  -----------------  -----------------
         N            2.346690567210     0.000499232000    -0.081983562106    14.003074004430
         C            0.942153567210     0.000462232000     0.004963437894    12.000000000000
         C            0.228934567210     1.207692232000    -0.003344562106    12.000000000000
         C           -1.165126432790     1.204362232000     0.011703437894    12.000000000000
         C           -1.872370432790     0.000481232000     0.013948437894    12.000000000000
         C           -1.165158432790    -1.203437768000     0.011737437894    12.000000000000
         C            0.228877567210    -1.206776768000    -0.003335562106    12.000000000000
         H            2.810293767210     0.787283732000     0.361744837894     1.007825032230
         H            2.769448567210    -0.829706768000     0.321601437894     1.007825032230
         H            0.772459567210     2.151256232000    -0.009923562106     1.007825032230
         H           -1.700081432790     2.151371232000     0.012270437894     1.007825032230
         H           -2.958932432790     0.000439232000     0.026103437894     1.007825032230
         H           -1.700204432790    -2.150399768000     0.012214437894     1.007825032230
         H            0.772420567210    -2.150321768000    -0.009650562106     1.007825032230

  Basis Set: AUG-CC-PVTZ
    Blend: AUG-CC-PVTZ
  Basis Set: (AUG-CC-PVTZ AUX)
    Blend: AUG-CC-PVTZ-JKFIT
	 Reference Energy          =    -285.8336386368352464 [Eh]
	 Singles Energy            =      -0.0000000000000000 [Eh]
	 Same-Spin Energy          =      -0.3154391125598162 [Eh]
	 Opposite-Spin Energy      =      -0.9943334022464612 [Eh]
	 Correlation Energy        =      -1.3097725148062773 [Eh]
	 Total Energy              =    -287.1434111516415442 [Eh]

	 ================> DF-SCS-MP2 Energies <==================
	-----------------------------------------------------------
	 SCS Same-Spin Scale       =       0.3333333333333333 [-]
	 SCS Opposite-Spin Scale   =       1.2000000000000000 [-]
	 SCS Same-Spin Energy      =      -0.1051463708532721 [Eh]
	 SCS Opposite-Spin Energy  =      -1.1932000826957534 [Eh]
	 SCS Correlation Energy    =      -1.2983464535490254 [Eh]
	 SCS Total Energy          =    -287.1319850903842621 [Eh]
	-----------------------------------------------------------

  Dipole Moment: [D]
     X:     0.9509      Y:    -0.0285      Z:     1.1208     Total:     1.4701

*** Psi4 exiting successfully. Buy a developer a beer!
