                               Psi4 1.3.2 release

  ==> Input File <==

--------------------------------------------------------------------------
#psi4
#
memory 32 gb

molecule  {
0 1
  N        2.3399850     0.0000400    -0.0882940
  C        0.9389627    -0.1305868    -0.0693937
  C        0.2222290     1.2072330    -0.0096550
  C       -1.1718320     1.2039030     0.0053930
  C       -1.8790760     0.0000220     0.0076380
  C       -1.1718640    -1.2038970     0.0054270
  C        0.2221720    -1.2072360    -0.0096460
  H        2.7627720     0.8296730     0.3164440
  H        2.7627430    -0.8301660     0.3152910
  H        0.7657540     2.1507970    -0.0162340
  H       -1.7067870     2.1509120     0.0059600
  H       -2.9656380    -0.0000200     0.0197930
  H       -1.7069100    -2.1508590     0.0059040
  H        0.7657150    -2.1507810    -0.0159610
units angstrom
no_reorient  #important for SAPT in psi4, default
symmetry c1  #important for SAPT in psi4, default
}

set PROPERTIES_ORIGIN ["COM"]
properties('MP2/aug-cc-pvtz', properties = ['dipole'])
--------------------------------------------------------------------------

    Molecular point group: c1
  Charge       = 0
  Multiplicity = 1
  Basis Set: AUG-CC-PVTZ
    Blend: AUG-CC-PVTZ
  Basis Set: (AUG-CC-PVTZ AUX)
    Blend: AUG-CC-PVTZ-JKFIT

    Orbital Energies [Eh]
    ---------------------

    Doubly Occupied:

       1A    -15.566290     2A    -11.277488     3A    -11.238429
       4A    -11.237416     5A    -11.235231     6A    -11.223019
       7A    -11.212718     8A     -1.220909     9A     -1.126528
      10A     -1.020146    11A     -0.980612    12A     -0.835882
      13A     -0.803570    14A     -0.705124    15A     -0.678024
      16A     -0.659401    17A     -0.609680    18A     -0.582444
      19A     -0.574786    20A     -0.535148    21A     -0.512298
      22A     -0.474772    23A     -0.446741    24A     -0.342134
      25A     -0.295938

  @DF-RHF Final Energy:  -285.81177803828615

   => Energetics <=

    Nuclear Repulsion Energy =            270.9715821468487889
    One-Electron Energy =                -922.7772658908311314
    Two-Electron Energy =                 365.9939057056962497
    Total Energy =                       -285.8117780382861497
  Basis Set: (AUG-CC-PVTZ AUX)
    Blend: AUG-CC-PVTZ-RI
    Molecular point group: c1

    Geometry (in Angstrom), charge = 0, multiplicity = 1:

       Center              X                  Y                   Z               Mass
    ------------   -----------------  -----------------  -----------------  -----------------
         N            2.346679382641     0.016875000640    -0.072786531353    14.003074004430
         C            0.945657082641    -0.113751799360    -0.053886231353    12.000000000000
         C            0.228923382641     1.224068000640     0.005852468647    12.000000000000
         C           -1.165137617359     1.220738000640     0.020900468647    12.000000000000
         C           -1.872381617359     0.016857000640     0.023145468647    12.000000000000
         C           -1.165169617359    -1.187061999360     0.020934468647    12.000000000000
         C            0.228866382641    -1.190400999360     0.005861468647    12.000000000000
         H            2.769466382641     0.846508000640     0.331951468647     1.007825032230
         H            2.769437382641    -0.813330999360     0.330798468647     1.007825032230
         H            0.772448382641     2.167632000640    -0.000726531353     1.007825032230
         H           -1.700092617359     2.167747000640     0.021467468647     1.007825032230
         H           -2.958943617359     0.016815000640     0.035300468647     1.007825032230
         H           -1.700215617359    -2.134023999360     0.021411468647     1.007825032230
         H            0.772409382641    -2.133945999360    -0.000453531353     1.007825032230

  Basis Set: AUG-CC-PVTZ
    Blend: AUG-CC-PVTZ
  Basis Set: (AUG-CC-PVTZ AUX)
    Blend: AUG-CC-PVTZ-JKFIT
	 Reference Energy          =    -285.8117780382861497 [Eh]
	 Singles Energy            =      -0.0000000000000000 [Eh]
	 Same-Spin Energy          =      -0.3150155151344020 [Eh]
	 Opposite-Spin Energy      =      -0.9952398360345193 [Eh]
	 Correlation Energy        =      -1.3102553511689212 [Eh]
	 Total Energy              =    -287.1220333894550549 [Eh]

	 ================> DF-SCS-MP2 Energies <==================
	-----------------------------------------------------------
	 SCS Same-Spin Scale       =       0.3333333333333333 [-]
	 SCS Opposite-Spin Scale   =       1.2000000000000000 [-]
	 SCS Same-Spin Energy      =      -0.1050051717114673 [Eh]
	 SCS Opposite-Spin Energy  =      -1.1942878032414230 [Eh]
	 SCS Correlation Energy    =      -1.2992929749528903 [Eh]
	 SCS Total Energy          =    -287.1110710132390409 [Eh]
	-----------------------------------------------------------

  Dipole Moment: [D]
     X:     0.9278      Y:     0.0395      Z:     1.0752     Total:     1.4207

*** Psi4 exiting successfully. Buy a developer a beer!
