                               Psi4 1.3.2 release

  ==> Input File <==

--------------------------------------------------------------------------
#psi4
#
memory 32 gb

molecule  {
0 1
  N        2.3399850     0.0000400    -0.0882940
  C        0.9354480     0.0000030    -0.0013470
  C        0.2222290     1.2072330    -0.0096550
  C       -1.1718320     1.2039030     0.0053930
  C       -1.8790760     0.0000220     0.0076380
  C       -1.1718640    -1.2038970     0.0054270
  C        0.2221720    -1.2072360    -0.0096460
  H        2.7627720     0.8296730     0.3164440
  H        2.7627430    -0.8301660     0.3152910
  H        0.7657540     2.1507970    -0.0162340
  H       -1.7067870     2.1509120     0.0059600
  H       -2.9656380    -0.0000200     0.0197930
  H       -1.7069100    -2.1508590     0.0059040
  H        0.7657150    -2.1507810    -0.0159610
units angstrom
no_reorient  #important for SAPT in psi4, default
symmetry c1  #important for SAPT in psi4, default
}

set PROPERTIES_ORIGIN ["COM"]
properties('MP2/aug-cc-pvtz', properties = ['dipole'])
--------------------------------------------------------------------------

    Molecular point group: c1
  Charge       = 0
  Multiplicity = 1
  Basis Set: AUG-CC-PVTZ
    Blend: AUG-CC-PVTZ
  Basis Set: (AUG-CC-PVTZ AUX)
    Blend: AUG-CC-PVTZ-JKFIT

    Orbital Energies [Eh]
    ---------------------

    Doubly Occupied:

       1A    -15.567307     2A    -11.278679     3A    -11.237209
       4A    -11.237173     5A    -11.226138     6A    -11.226119
       7A    -11.221931     8A     -1.221956     9A     -1.125526
      10A     -1.011318    11A     -0.985111    12A     -0.830919
      13A     -0.810862    14A     -0.702393    15A     -0.680503
      16A     -0.653796    17A     -0.597257    18A     -0.591410
      19A     -0.580524    20A     -0.534080    21A     -0.505930
      22A     -0.489106    23A     -0.449838    24A     -0.336669
      25A     -0.297890

  @DF-RHF Final Energy:  -285.83418109070999

   => Energetics <=

    Nuclear Repulsion Energy =            270.9494742198668291
    One-Electron Energy =                -922.7680221958556785
    Two-Electron Energy =                 365.9843668852788596
    Total Energy =                       -285.8341810907099898
  Basis Set: (AUG-CC-PVTZ AUX)
    Blend: AUG-CC-PVTZ-RI
    Molecular point group: c1

    Geometry (in Angstrom), charge = 0, multiplicity = 1:

       Center              X                  Y                   Z               Mass
    ------------   -----------------  -----------------  -----------------  -----------------
         N            2.347132610395     0.000035178820    -0.081561292502    14.003074004430
         C            0.942595610395    -0.000001821180     0.005385707498    12.000000000000
         C            0.229376610395     1.207228178820    -0.002922292502    12.000000000000
         C           -1.164684389605     1.203898178820     0.012125707498    12.000000000000
         C           -1.871928389605     0.000017178820     0.014370707498    12.000000000000
         C           -1.164716389605    -1.203901821180     0.012159707498    12.000000000000
         C            0.229319610395    -1.207240821180    -0.002913292502    12.000000000000
         H            2.769919610395     0.829668178820     0.323176707498     1.007825032230
         H            2.769890610395    -0.830170821180     0.322023707498     1.007825032230
         H            0.772901610395     2.150792178820    -0.009501292502     1.007825032230
         H           -1.699639389605     2.150907178820     0.012692707498     1.007825032230
         H           -2.958490389605    -0.000024821180     0.026525707498     1.007825032230
         H           -1.699762389605    -2.150863821180     0.012636707498     1.007825032230
         H            0.772862610395    -2.150785821180    -0.009228292502     1.007825032230

  Basis Set: AUG-CC-PVTZ
    Blend: AUG-CC-PVTZ
  Basis Set: (AUG-CC-PVTZ AUX)
    Blend: AUG-CC-PVTZ-JKFIT
	 Reference Energy          =    -285.8341810907099898 [Eh]
	 Singles Energy            =      -0.0000000000000000 [Eh]
	 Same-Spin Energy          =      -0.3154554336201815 [Eh]
	 Opposite-Spin Energy      =      -0.9943072619899858 [Eh]
	 Correlation Energy        =      -1.3097626956101673 [Eh]
	 Total Energy              =    -287.1439437863201647 [Eh]

	 ================> DF-SCS-MP2 Energies <==================
	-----------------------------------------------------------
	 SCS Same-Spin Scale       =       0.3333333333333333 [-]
	 SCS Opposite-Spin Scale   =       1.2000000000000000 [-]
	 SCS Same-Spin Energy      =      -0.1051518112067272 [Eh]
	 SCS Opposite-Spin Energy  =      -1.1931687143879828 [Eh]
	 SCS Correlation Energy    =      -1.2983205255947099 [Eh]
	 SCS Total Energy          =    -287.1325016163046939 [Eh]
	-----------------------------------------------------------

  Dipole Moment: [D]
     X:     0.9591      Y:    -0.0007      Z:     1.0763     Total:     1.4416

*** Psi4 exiting successfully. Buy a developer a beer!
