                               Psi4 1.3.2 release

  ==> Input File <==

--------------------------------------------------------------------------
#psi4
#
memory 32 gb

molecule  {
0 1
  N        2.3398375    -0.0244964    -0.0872187
  C        0.9354480     0.0000030    -0.0013470
  C        0.2222290     1.2072330    -0.0096550
  C       -1.1718320     1.2039030     0.0053930
  C       -1.8790760     0.0000220     0.0076380
  C       -1.1718640    -1.2038970     0.0054270
  C        0.2221720    -1.2072360    -0.0096460
  H        2.7627720     0.8296730     0.3164440
  H        2.7627430    -0.8301660     0.3152910
  H        0.7657540     2.1507970    -0.0162340
  H       -1.7067870     2.1509120     0.0059600
  H       -2.9656380    -0.0000200     0.0197930
  H       -1.7069100    -2.1508590     0.0059040
  H        0.7657150    -2.1507810    -0.0159610
units angstrom
no_reorient  #important for SAPT in psi4, default
symmetry c1  #important for SAPT in psi4, default
}

set PROPERTIES_ORIGIN ["COM"]
properties('MP2/aug-cc-pvtz', properties = ['dipole'])
--------------------------------------------------------------------------

    Molecular point group: c1
  Charge       = 0
  Multiplicity = 1
  Basis Set: AUG-CC-PVTZ
    Blend: AUG-CC-PVTZ
  Basis Set: (AUG-CC-PVTZ AUX)
    Blend: AUG-CC-PVTZ-JKFIT

    Orbital Energies [Eh]
    ---------------------

    Doubly Occupied:

       1A    -15.567203     2A    -11.278749     3A    -11.237412
       4A    -11.236977     5A    -11.226635     6A    -11.225639
       7A    -11.221929     8A     -1.222110     9A     -1.125590
      10A     -1.011325    11A     -0.985228    12A     -0.830934
      13A     -0.811049    14A     -0.703059    15A     -0.680390
      16A     -0.653634    17A     -0.598111    18A     -0.590417
      19A     -0.580438    20A     -0.534077    21A     -0.505946
      22A     -0.489056    23A     -0.449816    24A     -0.336678
      25A     -0.297869

  @DF-RHF Final Energy:  -285.83338834255943

   => Energetics <=

    Nuclear Repulsion Energy =            270.9560456548645675
    One-Electron Energy =                -922.7783260846049416
    Two-Electron Energy =                 365.9888920871810001
    Total Energy =                       -285.8333883425594308
  Basis Set: (AUG-CC-PVTZ AUX)
    Blend: AUG-CC-PVTZ-RI
    Molecular point group: c1

    Geometry (in Angstrom), charge = 0, multiplicity = 1:

       Center              X                  Y                   Z               Mass
    ------------   -----------------  -----------------  -----------------  -----------------
         N            2.347007305765    -0.020809055201    -0.080647800513    14.003074004430
         C            0.942617805765     0.003690344799     0.005223899487    12.000000000000
         C            0.229398805765     1.210920344799    -0.003084100513    12.000000000000
         C           -1.164662194235     1.207590344799     0.011963899487    12.000000000000
         C           -1.871906194235     0.003709344799     0.014208899487    12.000000000000
         C           -1.164694194235    -1.200209655201     0.011997899487    12.000000000000
         C            0.229341805765    -1.203548655201    -0.003075100513    12.000000000000
         H            2.769941805765     0.833360344799     0.323014899487     1.007825032230
         H            2.769912805765    -0.826478655201     0.321861899487     1.007825032230
         H            0.772923805765     2.154484344799    -0.009663100513     1.007825032230
         H           -1.699617194235     2.154599344799     0.012530899487     1.007825032230
         H           -2.958468194235     0.003667344799     0.026363899487     1.007825032230
         H           -1.699740194235    -2.147171655201     0.012474899487     1.007825032230
         H            0.772884805765    -2.147093655201    -0.009390100513     1.007825032230

  Basis Set: AUG-CC-PVTZ
    Blend: AUG-CC-PVTZ
  Basis Set: (AUG-CC-PVTZ AUX)
    Blend: AUG-CC-PVTZ-JKFIT
	 Reference Energy          =    -285.8333883425594308 [Eh]
	 Singles Energy            =      -0.0000000000000000 [Eh]
	 Same-Spin Energy          =      -0.3154597438931548 [Eh]
	 Opposite-Spin Energy      =      -0.9943268651763613 [Eh]
	 Correlation Energy        =      -1.3097866090695161 [Eh]
	 Total Energy              =    -287.1431749516289642 [Eh]

	 ================> DF-SCS-MP2 Energies <==================
	-----------------------------------------------------------
	 SCS Same-Spin Scale       =       0.3333333333333333 [-]
	 SCS Opposite-Spin Scale   =       1.2000000000000000 [-]
	 SCS Same-Spin Energy      =      -0.1051532479643849 [Eh]
	 SCS Opposite-Spin Energy  =      -1.1931922382116336 [Eh]
	 SCS Correlation Energy    =      -1.2983454861760184 [Eh]
	 SCS Total Energy          =    -287.1317338287354346 [Eh]
	-----------------------------------------------------------

  Dipole Moment: [D]
     X:     0.9592      Y:     0.0174      Z:     1.0744     Total:     1.4404

*** Psi4 exiting successfully. Buy a developer a beer!
