                               Psi4 1.3.2 release

  ==> Input File <==

--------------------------------------------------------------------------
#psi4
#
memory 32 gb

molecule  {
0 1
  N        2.3399850     0.0000400    -0.0882940
  C        0.9416585     0.0871516     0.0435339
  C        0.2222290     1.2072330    -0.0096550
  C       -1.1718320     1.2039030     0.0053930
  C       -1.8790760     0.0000220     0.0076380
  C       -1.1718640    -1.2038970     0.0054270
  C        0.2221720    -1.2072360    -0.0096460
  H        2.7627720     0.8296730     0.3164440
  H        2.7627430    -0.8301660     0.3152910
  H        0.7657540     2.1507970    -0.0162340
  H       -1.7067870     2.1509120     0.0059600
  H       -2.9656380    -0.0000200     0.0197930
  H       -1.7069100    -2.1508590     0.0059040
  H        0.7657150    -2.1507810    -0.0159610
units angstrom
no_reorient  #important for SAPT in psi4, default
symmetry c1  #important for SAPT in psi4, default
}

set PROPERTIES_ORIGIN ["COM"]
properties('MP2/aug-cc-pvtz', properties = ['dipole'])
--------------------------------------------------------------------------

    Molecular point group: c1
  Charge       = 0
  Multiplicity = 1
  Basis Set: AUG-CC-PVTZ
    Blend: AUG-CC-PVTZ
  Basis Set: (AUG-CC-PVTZ AUX)
    Blend: AUG-CC-PVTZ-JKFIT

    Orbital Energies [Eh]
    ---------------------

    Doubly Occupied:

       1A    -15.568069     2A    -11.277592     3A    -11.237873
       4A    -11.236071     5A    -11.234081     6A    -11.222725
       7A    -11.217805     8A     -1.222865     9A     -1.125981
      10A     -1.015283    11A     -0.982381    12A     -0.833184
      13A     -0.806616    14A     -0.702405    15A     -0.680130
      16A     -0.655275    17A     -0.604903    18A     -0.583251
      19A     -0.578664    20A     -0.535000    21A     -0.508957
      22A     -0.480807    23A     -0.450894    24A     -0.338951
      25A     -0.297198

  @DF-RHF Final Energy:  -285.82336216450182

   => Energetics <=

    Nuclear Repulsion Energy =            270.8905021520001242
    One-Electron Energy =                -922.6338084828757928
    Two-Electron Energy =                 365.9199441663737957
    Total Energy =                       -285.8233621645018161
  Basis Set: (AUG-CC-PVTZ AUX)
    Blend: AUG-CC-PVTZ-RI
    Molecular point group: c1

    Geometry (in Angstrom), charge = 0, multiplicity = 1:

       Center              X                  Y                   Z               Mass
    ------------   -----------------  -----------------  -----------------  -----------------
         N            2.346331753717    -0.011202811405    -0.087348776357    14.003074004430
         C            0.948005253717     0.075908788595     0.044479123643    12.000000000000
         C            0.228575753717     1.195990188595    -0.008709776357    12.000000000000
         C           -1.165485246283     1.192660188595     0.006338223643    12.000000000000
         C           -1.872729246283    -0.011220811405     0.008583223643    12.000000000000
         C           -1.165517246283    -1.215139811405     0.006372223643    12.000000000000
         C            0.228518753717    -1.218478811405    -0.008700776357    12.000000000000
         H            2.769118753717     0.818430188595     0.317389223643     1.007825032230
         H            2.769089753717    -0.841408811405     0.316236223643     1.007825032230
         H            0.772100753717     2.139554188595    -0.015288776357     1.007825032230
         H           -1.700440246283     2.139669188595     0.006905223643     1.007825032230
         H           -2.959291246283    -0.011262811405     0.020738223643     1.007825032230
         H           -1.700563246283    -2.162101811405     0.006849223643     1.007825032230
         H            0.772061753717    -2.162023811405    -0.015015776357     1.007825032230

  Basis Set: AUG-CC-PVTZ
    Blend: AUG-CC-PVTZ
  Basis Set: (AUG-CC-PVTZ AUX)
    Blend: AUG-CC-PVTZ-JKFIT
	 Reference Energy          =    -285.8233621645018161 [Eh]
	 Singles Energy            =      -0.0000000000000000 [Eh]
	 Same-Spin Energy          =      -0.3153478356981903 [Eh]
	 Opposite-Spin Energy      =      -0.9951169737508079 [Eh]
	 Correlation Energy        =      -1.3104648094489981 [Eh]
	 Total Energy              =    -287.1338269739508178 [Eh]

	 ================> DF-SCS-MP2 Energies <==================
	-----------------------------------------------------------
	 SCS Same-Spin Scale       =       0.3333333333333333 [-]
	 SCS Opposite-Spin Scale   =       1.2000000000000000 [-]
	 SCS Same-Spin Energy      =      -0.1051159452327301 [Eh]
	 SCS Opposite-Spin Energy  =      -1.1941403685009695 [Eh]
	 SCS Correlation Energy    =      -1.2992563137336997 [Eh]
	 SCS Total Energy          =    -287.1226184782354949 [Eh]
	-----------------------------------------------------------

  Dipole Moment: [D]
     X:     0.9576      Y:    -0.0292      Z:     1.0763     Total:     1.4409

*** Psi4 exiting successfully. Buy a developer a beer!
