                               Psi4 1.4a3.dev225

  ==> Input File <==

--------------------------------------------------------------------------
#psi4
#
memory 32 gb

molecule  {
0 1
  N       -2.3397230    -0.0000020    -0.0878920
  C       -0.9355840     0.0000000    -0.0015740
  C       -0.2222120    -1.2072400    -0.0095320
  C        1.1718210    -1.2038670     0.0053410
  C        1.8791240     0.0000000     0.0076690
  C        1.1718200     1.2038680     0.0053420
  C       -0.2222130     1.2072400    -0.0095320
  H       -2.7714757    -0.8465161     0.3226897
  H       -2.7631370     0.8301660     0.3147360
  H       -0.7656510    -2.1508580    -0.0161820
  H        1.7067130    -2.1509240     0.0060020
  H        2.9656770     0.0000010     0.0198220
  H        1.7067110     2.1509250     0.0059990
  H       -0.7656540     2.1508570    -0.0161750
units angstrom
no_reorient  #important for SAPT in psi4, default
symmetry c1  #important for SAPT in psi4, default
}

set PROPERTIES_ORIGIN ["COM"]
properties('MP2/aug-cc-pvtz', properties = ['dipole'])
--------------------------------------------------------------------------

    Molecular point group: c1
  Charge       = 0
  Multiplicity = 1
  Basis Set: AUG-CC-PVTZ
    Blend: AUG-CC-PVTZ
  Basis Set: (AUG-CC-PVTZ AUX)
    Blend: AUG-CC-PVTZ-JKFIT

    Orbital Energies [Eh]
    ---------------------

    Doubly Occupied:

       1A    -15.569296     2A    -11.278712     3A    -11.237170
       4A    -11.237123     5A    -11.226104     6A    -11.226025
       7A    -11.221843     8A     -1.220108     9A     -1.124845
      10A     -1.011248    11A     -0.984320    12A     -0.830665
      13A     -0.810308    14A     -0.701936    15A     -0.677850
      16A     -0.653471    17A     -0.597026    18A     -0.590279
      19A     -0.580168    20A     -0.533959    21A     -0.505896
      22A     -0.488983    23A     -0.449581    24A     -0.336628
      25A     -0.297642

  @DF-RHF Final Energy:  -285.83319556603226

   => Energetics <=

    Nuclear Repulsion Energy =            270.8545649720628603
    One-Electron Energy =                -922.5931471148355740
    Two-Electron Energy =                 365.9053865767403977
    Total Energy =                       -285.8331955660322592
  Basis Set: (AUG-CC-PVTZ AUX)
    Blend: AUG-CC-PVTZ-RI
    Molecular point group: c1

    Geometry (in Angstrom), charge = 0, multiplicity = 1:

       Center              X                  Y                   Z               Mass
    ------------   -----------------  -----------------  -----------------  -----------------
         N           -2.346789213369     0.000175234253    -0.081269079017    14.003074004430
         C           -0.942650213369     0.000177234253     0.005048920983    12.000000000000
         C           -0.229278213369    -1.207062765747    -0.002909079017    12.000000000000
         C            1.164754786631    -1.203689765747     0.011963920983    12.000000000000
         C            1.872057786631     0.000177234253     0.014291920983    12.000000000000
         C            1.164753786631     1.204045234253     0.011964920983    12.000000000000
         C           -0.229279213369     1.207417234253    -0.002909079017    12.000000000000
         H           -2.778541913369    -0.846338865747     0.329312620983     1.007825032230
         H           -2.770203213369     0.830343234253     0.321358920983     1.007825032230
         H           -0.772717213369    -2.150680765747    -0.009559079017     1.007825032230
         H            1.699646786631    -2.150746765747     0.012624920983     1.007825032230
         H            2.958610786631     0.000178234253     0.026444920983     1.007825032230
         H            1.699644786631     2.151102234253     0.012621920983     1.007825032230
         H           -0.772720213369     2.151034234253    -0.009552079017     1.007825032230

  Basis Set: AUG-CC-PVTZ
    Blend: AUG-CC-PVTZ
  Basis Set: (AUG-CC-PVTZ AUX)
    Blend: AUG-CC-PVTZ-JKFIT
	 Reference Energy          =    -285.8331955660322592 [Eh]
	 Singles Energy            =      -0.0000000000000000 [Eh]
	 Same-Spin Energy          =      -0.3155730292260554 [Eh]
	 Opposite-Spin Energy      =      -0.9946441034037907 [Eh]
	 Correlation Energy        =      -1.3102171326298462 [Eh]
	 Total Energy              =    -287.1434126986621322 [Eh]

	 ================> DF-SCS-MP2 Energies <==================
	-----------------------------------------------------------
	 SCS Same-Spin Scale       =       0.3333333333333333 [-]
	 SCS Opposite-Spin Scale   =       1.2000000000000000 [-]
	 SCS Same-Spin Energy      =      -0.1051910097420185 [Eh]
	 SCS Opposite-Spin Energy  =      -1.1935729240845487 [Eh]
	 SCS Correlation Energy    =      -1.2987639338265673 [Eh]
	 SCS Total Energy          =    -287.1319594998588514 [Eh]
	-----------------------------------------------------------

  Dipole Moment: [D]
     X:    -0.9693      Y:    -0.0086      Z:     1.0755     Total:     1.4478

*** Psi4 exiting successfully. Buy a developer a beer!
