                               Psi4 1.4a3.dev225

  ==> Input File <==

--------------------------------------------------------------------------
#psi4
#
memory 32 gb

molecule  {
0 1
  N       -2.3397230    -0.0000020    -0.0878920
  C       -0.9355840     0.0000000    -0.0015740
  C       -0.2222120    -1.2072400    -0.0095320
  C        1.1718210    -1.2038670     0.0053410
  C        1.8791240     0.0000000     0.0076690
  C        1.1718200     1.2038680     0.0053420
  C       -0.2222130     1.2072400    -0.0095320
  H       -2.7547923    -0.8138059     0.3068243
  H       -2.7631370     0.8301660     0.3147360
  H       -0.7656510    -2.1508580    -0.0161820
  H        1.7067130    -2.1509240     0.0060020
  H        2.9656770     0.0000010     0.0198220
  H        1.7067110     2.1509250     0.0059990
  H       -0.7656540     2.1508570    -0.0161750
units angstrom
no_reorient  #important for SAPT in psi4, default
symmetry c1  #important for SAPT in psi4, default
}

set PROPERTIES_ORIGIN ["COM"]
properties('MP2/aug-cc-pvtz', properties = ['dipole'])
--------------------------------------------------------------------------

    Molecular point group: c1
  Charge       = 0
  Multiplicity = 1
  Basis Set: AUG-CC-PVTZ
    Blend: AUG-CC-PVTZ
  Basis Set: (AUG-CC-PVTZ AUX)
    Blend: AUG-CC-PVTZ-JKFIT

    Orbital Energies [Eh]
    ---------------------

    Doubly Occupied:

       1A    -15.565209     2A    -11.278698     3A    -11.237217
       4A    -11.237170     5A    -11.226151     6A    -11.226075
       7A    -11.221919     8A     -1.224180     9A     -1.126183
      10A     -1.011325    11A     -0.985883    12A     -0.831147
      13A     -0.811512    14A     -0.703084    15A     -0.683477
      16A     -0.654182    17A     -0.597583    18A     -0.592459
      19A     -0.580754    20A     -0.534205    21A     -0.506010
      22A     -0.489146    23A     -0.450003    24A     -0.336674
      25A     -0.297913

  @DF-RHF Final Energy:  -285.83456105530115

   => Energetics <=

    Nuclear Repulsion Energy =            271.0589038131137727
    One-Electron Energy =                -922.9706118843549802
    Two-Electron Energy =                 366.0771470159401133
    Total Energy =                       -285.8345610553011511
  Basis Set: (AUG-CC-PVTZ AUX)
    Blend: AUG-CC-PVTZ-RI
    Molecular point group: c1

    Geometry (in Angstrom), charge = 0, multiplicity = 1:

       Center              X                  Y                   Z               Mass
    ------------   -----------------  -----------------  -----------------  -----------------
         N           -2.346969896119    -0.000179020210    -0.081097255281    14.003074004430
         C           -0.942830896119    -0.000177020210     0.005220744719    12.000000000000
         C           -0.229458896119    -1.207417020210    -0.002737255281    12.000000000000
         C            1.164574103881    -1.204044020210     0.012135744719    12.000000000000
         C            1.871877103881    -0.000177020210     0.014463744719    12.000000000000
         C            1.164573103881     1.203690979790     0.012136744719    12.000000000000
         C           -0.229459896119     1.207062979790    -0.002737255281    12.000000000000
         H           -2.762039196119    -0.813982920210     0.313619044719     1.007825032230
         H           -2.770383896119     0.829988979790     0.321530744719     1.007825032230
         H           -0.772897896119    -2.151035020210    -0.009387255281     1.007825032230
         H            1.699466103881    -2.151101020210     0.012796744719     1.007825032230
         H            2.958430103881    -0.000176020210     0.026616744719     1.007825032230
         H            1.699464103881     2.150747979790     0.012793744719     1.007825032230
         H           -0.772900896119     2.150679979790    -0.009380255281     1.007825032230

  Basis Set: AUG-CC-PVTZ
    Blend: AUG-CC-PVTZ
  Basis Set: (AUG-CC-PVTZ AUX)
    Blend: AUG-CC-PVTZ-JKFIT
	 Reference Energy          =    -285.8345610553011511 [Eh]
	 Singles Energy            =      -0.0000000000000000 [Eh]
	 Same-Spin Energy          =      -0.3153397536531775 [Eh]
	 Opposite-Spin Energy      =      -0.9939586177346871 [Eh]
	 Correlation Energy        =      -1.3092983713878645 [Eh]
	 Total Energy              =    -287.1438594266890050 [Eh]

	 ================> DF-SCS-MP2 Energies <==================
	-----------------------------------------------------------
	 SCS Same-Spin Scale       =       0.3333333333333333 [-]
	 SCS Opposite-Spin Scale   =       1.2000000000000000 [-]
	 SCS Same-Spin Energy      =      -0.1051132512177258 [Eh]
	 SCS Opposite-Spin Energy  =      -1.1927503412816245 [Eh]
	 SCS Correlation Energy    =      -1.2978635924993502 [Eh]
	 SCS Total Energy          =    -287.1324246478005193 [Eh]
	-----------------------------------------------------------

  Dipole Moment: [D]
     X:    -0.9608      Y:     0.0088      Z:     1.0701     Total:     1.4382

*** Psi4 exiting successfully. Buy a developer a beer!
