                               Psi4 1.3.2 release

  ==> Input File <==

--------------------------------------------------------------------------
#psi4
#
memory 32 gb

molecule  {
0 1
  N        2.3399850     0.0000400    -0.0882940
  C        0.9349082    -0.0435978    -0.0239601
  C        0.2222290     1.2072330    -0.0096550
  C       -1.1718320     1.2039030     0.0053930
  C       -1.8790760     0.0000220     0.0076380
  C       -1.1718640    -1.2038970     0.0054270
  C        0.2221720    -1.2072360    -0.0096460
  H        2.7627720     0.8296730     0.3164440
  H        2.7627430    -0.8301660     0.3152910
  H        0.7657540     2.1507970    -0.0162340
  H       -1.7067870     2.1509120     0.0059600
  H       -2.9656380    -0.0000200     0.0197930
  H       -1.7069100    -2.1508590     0.0059040
  H        0.7657150    -2.1507810    -0.0159610
units angstrom
no_reorient  #important for SAPT in psi4, default
symmetry c1  #important for SAPT in psi4, default
}

set PROPERTIES_ORIGIN ["COM"]
properties('MP2/aug-cc-pvtz', properties = ['dipole'])
--------------------------------------------------------------------------

    Molecular point group: c1
  Charge       = 0
  Multiplicity = 1
  Basis Set: AUG-CC-PVTZ
    Blend: AUG-CC-PVTZ
  Basis Set: (AUG-CC-PVTZ AUX)
    Blend: AUG-CC-PVTZ-JKFIT

    Orbital Energies [Eh]
    ---------------------

    Doubly Occupied:

       1A    -15.566945     2A    -11.278624     3A    -11.237701
       4A    -11.236724     5A    -11.230125     6A    -11.222000
       7A    -11.221665     8A     -1.221556     9A     -1.125639
      10A     -1.012565    11A     -0.984518    12A     -0.831752
      13A     -0.809938    14A     -0.702968    15A     -0.680039
      16A     -0.654634    17A     -0.600916    18A     -0.587890
      19A     -0.580409    20A     -0.534093    21A     -0.507224
      22A     -0.487198    23A     -0.449056    24A     -0.337405
      25A     -0.297579

  @DF-RHF Final Energy:  -285.83187914582919

   => Energetics <=

    Nuclear Repulsion Energy =            270.9661017027627850
    One-Electron Energy =                -922.7976325874620898
    Two-Electron Energy =                 365.9996517388701136
    Total Energy =                       -285.8318791458291912
  Basis Set: (AUG-CC-PVTZ AUX)
    Blend: AUG-CC-PVTZ-RI
    Molecular point group: c1

    Geometry (in Angstrom), charge = 0, multiplicity = 1:

       Center              X                  Y                   Z               Mass
    ------------   -----------------  -----------------  -----------------  -----------------
         N            2.347202218709     0.005657591162    -0.078645287004    14.003074004430
         C            0.942125418709    -0.037980208838    -0.014311387004    12.000000000000
         C            0.229446218709     1.212850591162    -0.000006287004    12.000000000000
         C           -1.164614781291     1.209520591162     0.015041712996    12.000000000000
         C           -1.871858781291     0.005639591162     0.017286712996    12.000000000000
         C           -1.164646781291    -1.198279408838     0.015075712996    12.000000000000
         C            0.229389218709    -1.201618408838     0.000002712996    12.000000000000
         H            2.769989218709     0.835290591162     0.326092712996     1.007825032230
         H            2.769960218709    -0.824548408838     0.324939712996     1.007825032230
         H            0.772971218709     2.156414591162    -0.006585287004     1.007825032230
         H           -1.699569781291     2.156529591162     0.015608712996     1.007825032230
         H           -2.958420781291     0.005597591162     0.029441712996     1.007825032230
         H           -1.699692781291    -2.145241408838     0.015552712996     1.007825032230
         H            0.772932218709    -2.145163408838    -0.006312287004     1.007825032230

  Basis Set: AUG-CC-PVTZ
    Blend: AUG-CC-PVTZ
  Basis Set: (AUG-CC-PVTZ AUX)
    Blend: AUG-CC-PVTZ-JKFIT
	 Reference Energy          =    -285.8318791458291912 [Eh]
	 Singles Energy            =      -0.0000000000000000 [Eh]
	 Same-Spin Energy          =      -0.3153741450709358 [Eh]
	 Opposite-Spin Energy      =      -0.9943317782187897 [Eh]
	 Correlation Energy        =      -1.3097059232897255 [Eh]
	 Total Energy              =    -287.1415850691188894 [Eh]

	 ================> DF-SCS-MP2 Energies <==================
	-----------------------------------------------------------
	 SCS Same-Spin Scale       =       0.3333333333333333 [-]
	 SCS Opposite-Spin Scale   =       1.2000000000000000 [-]
	 SCS Same-Spin Energy      =      -0.1051247150236453 [Eh]
	 SCS Opposite-Spin Energy  =      -1.1931981338625477 [Eh]
	 SCS Correlation Energy    =      -1.2983228488861929 [Eh]
	 SCS Total Energy          =    -287.1302019947153781 [Eh]
	-----------------------------------------------------------

  Dipole Moment: [D]
     X:     0.9533      Y:     0.0148      Z:     1.0764     Total:     1.4379

*** Psi4 exiting successfully. Buy a developer a beer!
