                               Psi4 1.3.2 release

  ==> Input File <==

--------------------------------------------------------------------------
#psi4
#
memory 32 gb

molecule  {
0 1
  N        2.3399850     0.0000400    -0.0882940
  C        0.9363597     0.0218067     0.0099215
  C        0.2222290     1.2072330    -0.0096550
  C       -1.1718320     1.2039030     0.0053930
  C       -1.8790760     0.0000220     0.0076380
  C       -1.1718640    -1.2038970     0.0054270
  C        0.2221720    -1.2072360    -0.0096460
  H        2.7627720     0.8296730     0.3164440
  H        2.7627430    -0.8301660     0.3152910
  H        0.7657540     2.1507970    -0.0162340
  H       -1.7067870     2.1509120     0.0059600
  H       -2.9656380    -0.0000200     0.0197930
  H       -1.7069100    -2.1508590     0.0059040
  H        0.7657150    -2.1507810    -0.0159610
units angstrom
no_reorient  #important for SAPT in psi4, default
symmetry c1  #important for SAPT in psi4, default
}

set PROPERTIES_ORIGIN ["COM"]
properties('MP2/aug-cc-pvtz', properties = ['dipole'])
--------------------------------------------------------------------------

    Molecular point group: c1
  Charge       = 0
  Multiplicity = 1
  Basis Set: AUG-CC-PVTZ
    Blend: AUG-CC-PVTZ
  Basis Set: (AUG-CC-PVTZ AUX)
    Blend: AUG-CC-PVTZ-JKFIT

    Orbital Energies [Eh]
    ---------------------

    Doubly Occupied:

       1A    -15.567488     2A    -11.278547     3A    -11.237395
       4A    -11.236906     5A    -11.228284     6A    -11.224053
       7A    -11.222015     8A     -1.222167     9A     -1.125554
      10A     -1.011560    11A     -0.984861    12A     -0.831045
      13A     -0.810505    14A     -0.702247    15A     -0.680573
      16A     -0.653781    17A     -0.598327    18A     -0.590051
      19A     -0.580483    20A     -0.534194    21A     -0.506114
      22A     -0.488422    23A     -0.450165    24A     -0.336780
      25A     -0.297875

  @DF-RHF Final Energy:  -285.83339009833799

   => Energetics <=

    Nuclear Repulsion Energy =            270.9380440348609227
    One-Electron Energy =                -922.7440796872442661
    Two-Electron Energy =                 365.9726455540453571
    Total Energy =                       -285.8333900983379863
  Basis Set: (AUG-CC-PVTZ AUX)
    Blend: AUG-CC-PVTZ-RI
    Molecular point group: c1

    Geometry (in Angstrom), charge = 0, multiplicity = 1:

       Center              X                  Y                   Z               Mass
    ------------   -----------------  -----------------  -----------------  -----------------
         N            2.347015044815    -0.002776452893    -0.083014388626    14.003074004430
         C            0.943389744815     0.018990247107     0.015201111374    12.000000000000
         C            0.229259044815     1.204416547107    -0.004375388626    12.000000000000
         C           -1.164801955185     1.201086547107     0.010672611374    12.000000000000
         C           -1.872045955185    -0.002794452893     0.012917611374    12.000000000000
         C           -1.164833955185    -1.206713452893     0.010706611374    12.000000000000
         C            0.229202044815    -1.210052452893    -0.004366388626    12.000000000000
         H            2.769802044815     0.826856547107     0.321723611374     1.007825032230
         H            2.769773044815    -0.832982452893     0.320570611374     1.007825032230
         H            0.772784044815     2.147980547107    -0.010954388626     1.007825032230
         H           -1.699756955185     2.148095547107     0.011239611374     1.007825032230
         H           -2.958607955185    -0.002836452893     0.025072611374     1.007825032230
         H           -1.699879955185    -2.153675452893     0.011183611374     1.007825032230
         H            0.772745044815    -2.153597452893    -0.010681388626     1.007825032230

  Basis Set: AUG-CC-PVTZ
    Blend: AUG-CC-PVTZ
  Basis Set: (AUG-CC-PVTZ AUX)
    Blend: AUG-CC-PVTZ-JKFIT
	 Reference Energy          =    -285.8333900983379863 [Eh]
	 Singles Energy            =      -0.0000000000000000 [Eh]
	 Same-Spin Energy          =      -0.3154606888224217 [Eh]
	 Opposite-Spin Energy      =      -0.9944071298170756 [Eh]
	 Correlation Energy        =      -1.3098678186394972 [Eh]
	 Total Energy              =    -287.1432579169774613 [Eh]

	 ================> DF-SCS-MP2 Energies <==================
	-----------------------------------------------------------
	 SCS Same-Spin Scale       =       0.3333333333333333 [-]
	 SCS Opposite-Spin Scale   =       1.2000000000000000 [-]
	 SCS Same-Spin Energy      =      -0.1051535629408072 [Eh]
	 SCS Opposite-Spin Energy  =      -1.1932885557804906 [Eh]
	 SCS Correlation Energy    =      -1.2984421187212978 [Eh]
	 SCS Total Energy          =    -287.1318322170592978 [Eh]
	-----------------------------------------------------------

  Dipole Moment: [D]
     X:     0.9603      Y:    -0.0085      Z:     1.0762     Total:     1.4424

*** Psi4 exiting successfully. Buy a developer a beer!
