                               Psi4 1.3.2 release

  ==> Input File <==

--------------------------------------------------------------------------
#psi4
#
memory 32 gb

molecule  {
0 1
  N        2.3399850     0.0000400    -0.0882940
  C        1.0352569     0.0000056    -0.0075256
  C        0.2222290     1.2072330    -0.0096550
  C       -1.1718320     1.2039030     0.0053930
  C       -1.8790760     0.0000220     0.0076380
  C       -1.1718640    -1.2038970     0.0054270
  C        0.2221720    -1.2072360    -0.0096460
  H        2.7627720     0.8296730     0.3164440
  H        2.7627430    -0.8301660     0.3152910
  H        0.7657540     2.1507970    -0.0162340
  H       -1.7067870     2.1509120     0.0059600
  H       -2.9656380    -0.0000200     0.0197930
  H       -1.7069100    -2.1508590     0.0059040
  H        0.7657150    -2.1507810    -0.0159610
units angstrom
no_reorient  #important for SAPT in psi4, default
symmetry c1  #important for SAPT in psi4, default
}

set PROPERTIES_ORIGIN ["COM"]
properties('MP2/aug-cc-pvtz', properties = ['dipole'])
--------------------------------------------------------------------------

    Molecular point group: c1
  Charge       = 0
  Multiplicity = 1
  Basis Set: AUG-CC-PVTZ
    Blend: AUG-CC-PVTZ
  Basis Set: (AUG-CC-PVTZ AUX)
    Blend: AUG-CC-PVTZ-JKFIT

    Orbital Energies [Eh]
    ---------------------

    Doubly Occupied:

       1A    -15.579925     2A    -11.287841     3A    -11.234583
       4A    -11.234558     5A    -11.225796     6A    -11.225783
       7A    -11.215025     8A     -1.263461     9A     -1.118653
      10A     -1.002519    11A     -0.974468    12A     -0.825190
      13A     -0.814929    14A     -0.711083    15A     -0.697865
      16A     -0.664424    17A     -0.598473    18A     -0.582104
      19A     -0.571253    20A     -0.547239    21A     -0.508894
      22A     -0.469871    23A     -0.456199    24A     -0.332666
      25A     -0.282685

  @DF-RHF Final Energy:  -285.81876735817252

   => Energetics <=

    Nuclear Repulsion Energy =            270.4528770387825034
    One-Electron Energy =                -921.6923145409974722
    Two-Electron Energy =                 365.4206701440424467
    Total Energy =                       -285.8187673581725221
  Basis Set: (AUG-CC-PVTZ AUX)
    Blend: AUG-CC-PVTZ-RI
    Molecular point group: c1

    Geometry (in Angstrom), charge = 0, multiplicity = 1:

       Center              X                  Y                   Z               Mass
    ------------   -----------------  -----------------  -----------------  -----------------
         N            2.334262048589     0.000034843545    -0.080764549394    14.003074004430
         C            1.029533948589     0.000000443545     0.000003850606    12.000000000000
         C            0.216506048589     1.207227843545    -0.002125549394    12.000000000000
         C           -1.177554951411     1.203897843545     0.012922450606    12.000000000000
         C           -1.884798951411     0.000016843545     0.015167450606    12.000000000000
         C           -1.177586951411    -1.203902156455     0.012956450606    12.000000000000
         C            0.216449048589    -1.207241156455    -0.002116549394    12.000000000000
         H            2.757049048589     0.829667843545     0.323973450606     1.007825032230
         H            2.757020048589    -0.830171156455     0.322820450606     1.007825032230
         H            0.760031048589     2.150791843545    -0.008704549394     1.007825032230
         H           -1.712509951411     2.150906843545     0.013489450606     1.007825032230
         H           -2.971360951411    -0.000025156455     0.027322450606     1.007825032230
         H           -1.712632951411    -2.150864156455     0.013433450606     1.007825032230
         H            0.759992048589    -2.150786156455    -0.008431549394     1.007825032230

  Basis Set: AUG-CC-PVTZ
    Blend: AUG-CC-PVTZ
  Basis Set: (AUG-CC-PVTZ AUX)
    Blend: AUG-CC-PVTZ-JKFIT
	 Reference Energy          =    -285.8187673581725221 [Eh]
	 Singles Energy            =      -0.0000000000000000 [Eh]
	 Same-Spin Energy          =      -0.3163921116026512 [Eh]
	 Opposite-Spin Energy      =      -0.9953199824484704 [Eh]
	 Correlation Energy        =      -1.3117120940511215 [Eh]
	 Total Energy              =    -287.1304794522236534 [Eh]

	 ================> DF-SCS-MP2 Energies <==================
	-----------------------------------------------------------
	 SCS Same-Spin Scale       =       0.3333333333333333 [-]
	 SCS Opposite-Spin Scale   =       1.2000000000000000 [-]
	 SCS Same-Spin Energy      =      -0.1054640372008837 [Eh]
	 SCS Opposite-Spin Energy  =      -1.1943839789381645 [Eh]
	 SCS Correlation Energy    =      -1.2998480161390482 [Eh]
	 SCS Total Energy          =    -287.1186153743115597 [Eh]
	-----------------------------------------------------------

  Dipole Moment: [D]
     X:     1.6837      Y:    -0.0007      Z:     1.0501     Total:     1.9843

*** Psi4 exiting successfully. Buy a developer a beer!
