                               Psi4 1.3.2 release

  ==> Input File <==

--------------------------------------------------------------------------
#psi4
#
memory 32 gb

molecule  {
0 1
  N        2.3399850     0.0000400    -0.0882940
  C        0.9354480     0.0000030    -0.0013470
  C        0.2222290     1.2072330    -0.0096550
  C       -1.1718320     1.2039030     0.0053930
  C       -1.8790760     0.0000220     0.0076380
  C       -1.1718640    -1.2038970     0.0054270
  C        0.2221720    -1.2072360    -0.0096460
  H        2.7415786     0.8495938     0.2961971
  H        2.7627430    -0.8301660     0.3152910
  H        0.7657540     2.1507970    -0.0162340
  H       -1.7067870     2.1509120     0.0059600
  H       -2.9656380    -0.0000200     0.0197930
  H       -1.7069100    -2.1508590     0.0059040
  H        0.7657150    -2.1507810    -0.0159610
units angstrom
no_reorient  #important for SAPT in psi4, default
symmetry c1  #important for SAPT in psi4, default
}

set PROPERTIES_ORIGIN ["COM"]
properties('MP2/aug-cc-pvtz', properties = ['dipole'])
--------------------------------------------------------------------------

    Molecular point group: c1
  Charge       = 0
  Multiplicity = 1
  Basis Set: AUG-CC-PVTZ
    Blend: AUG-CC-PVTZ
  Basis Set: (AUG-CC-PVTZ AUX)
    Blend: AUG-CC-PVTZ-JKFIT

    Orbital Energies [Eh]
    ---------------------

    Doubly Occupied:

       1A    -15.567377     2A    -11.278479     3A    -11.237259
       4A    -11.237166     5A    -11.226104     6A    -11.225889
       7A    -11.221755     8A     -1.222126     9A     -1.125381
      10A     -1.011316    11A     -0.984715    12A     -0.831240
      13A     -0.810275    14A     -0.701618    15A     -0.683183
      16A     -0.653131    17A     -0.596686    18A     -0.592187
      19A     -0.580666    20A     -0.534025    21A     -0.505787
      22A     -0.489171    23A     -0.449612    24A     -0.336692
      25A     -0.297507

  @DF-RHF Final Energy:  -285.83404945818182

   => Energetics <=

    Nuclear Repulsion Energy =            270.9838273855146440
    One-Electron Energy =                -922.8370574955857819
    Two-Electron Energy =                 366.0191806518892577
    Total Energy =                       -285.8340494581818234
  Basis Set: (AUG-CC-PVTZ AUX)
    Blend: AUG-CC-PVTZ-RI
    Molecular point group: c1

    Geometry (in Angstrom), charge = 0, multiplicity = 1:

       Center              X                  Y                   Z               Mass
    ------------   -----------------  -----------------  -----------------  -----------------
         N            2.347362136858    -0.000180565269    -0.081342016720    14.003074004430
         C            0.942825136858    -0.000217565269     0.005604983280    12.000000000000
         C            0.229606136858     1.207012434731    -0.002703016720    12.000000000000
         C           -1.164454863142     1.203682434731     0.012344983280    12.000000000000
         C           -1.871698863142    -0.000198565269     0.014589983280    12.000000000000
         C           -1.164486863142    -1.204117565269     0.012378983280    12.000000000000
         C            0.229549136858    -1.207456565269    -0.002694016720    12.000000000000
         H            2.748955736858     0.849373234731     0.303149083280     1.007825032230
         H            2.770120136858    -0.830386565269     0.322242983280     1.007825032230
         H            0.773131136858     2.150576434731    -0.009282016720     1.007825032230
         H           -1.699409863142     2.150691434731     0.012911983280     1.007825032230
         H           -2.958260863142    -0.000240565269     0.026744983280     1.007825032230
         H           -1.699532863142    -2.151079565269     0.012855983280     1.007825032230
         H            0.773092136858    -2.151001565269    -0.009009016720     1.007825032230

  Basis Set: AUG-CC-PVTZ
    Blend: AUG-CC-PVTZ
  Basis Set: (AUG-CC-PVTZ AUX)
    Blend: AUG-CC-PVTZ-JKFIT
	 Reference Energy          =    -285.8340494581818234 [Eh]
	 Singles Energy            =      -0.0000000000000000 [Eh]
	 Same-Spin Energy          =      -0.3154833939500116 [Eh]
	 Opposite-Spin Energy      =      -0.9943259726571664 [Eh]
	 Correlation Energy        =      -1.3098093666071779 [Eh]
	 Total Energy              =    -287.1438588247889925 [Eh]

	 ================> DF-SCS-MP2 Energies <==================
	-----------------------------------------------------------
	 SCS Same-Spin Scale       =       0.3333333333333333 [-]
	 SCS Opposite-Spin Scale   =       1.2000000000000000 [-]
	 SCS Same-Spin Energy      =      -0.1051611313166705 [Eh]
	 SCS Opposite-Spin Energy  =      -1.1931911671885995 [Eh]
	 SCS Correlation Energy    =      -1.2983522985052700 [Eh]
	 SCS Total Energy          =    -287.1324017566871021 [Eh]
	-----------------------------------------------------------

  Dipole Moment: [D]
     X:     0.9616      Y:     0.0112      Z:     1.0534     Total:     1.4263

*** Psi4 exiting successfully. Buy a developer a beer!
