                               Psi4 1.4a3.dev225

  ==> Input File <==

--------------------------------------------------------------------------
#psi4
#
memory 32 gb

molecule  {
0 1
  N       -2.3397230    -0.0000020    -0.0878920
  C       -0.9355840     0.0000000    -0.0015740
  C       -0.2222120    -1.2072400    -0.0095320
  C        1.1718210    -1.2038670     0.0053410
  C        1.8791240     0.0000000     0.0076690
  C        1.1718200     1.2038680     0.0053420
  C       -0.2222130     1.2072400    -0.0095320
  H       -2.7422798    -0.7892733     0.2949254
  H       -2.7631370     0.8301660     0.3147360
  H       -0.7656510    -2.1508580    -0.0161820
  H        1.7067130    -2.1509240     0.0060020
  H        2.9656770     0.0000010     0.0198220
  H        1.7067110     2.1509250     0.0059990
  H       -0.7656540     2.1508570    -0.0161750
units angstrom
no_reorient  #important for SAPT in psi4, default
symmetry c1  #important for SAPT in psi4, default
}

set PROPERTIES_ORIGIN ["COM"]
properties('MP2/aug-cc-pvtz', properties = ['dipole'])
--------------------------------------------------------------------------

    Molecular point group: c1
  Charge       = 0
  Multiplicity = 1
  Basis Set: AUG-CC-PVTZ
    Blend: AUG-CC-PVTZ
  Basis Set: (AUG-CC-PVTZ AUX)
    Blend: AUG-CC-PVTZ-JKFIT

    Orbital Energies [Eh]
    ---------------------

    Doubly Occupied:

       1A    -15.562001     2A    -11.278700     3A    -11.237278
       4A    -11.237197     5A    -11.226257     6A    -11.226078
       7A    -11.221991     8A     -1.227711     9A     -1.127256
      10A     -1.011396    11A     -0.987165    12A     -0.831579
      13A     -0.812513    14A     -0.704484    15A     -0.687528
      16A     -0.654608    17A     -0.598237    18A     -0.593729
      19A     -0.581050    20A     -0.534408    21A     -0.506104
      22A     -0.489269    23A     -0.450341    24A     -0.336717
      25A     -0.298137

  @DF-RHF Final Energy:  -285.83367848366515

   => Energetics <=

    Nuclear Repulsion Energy =            271.2203863688438332
    One-Electron Energy =                -923.2646633157120277
    Two-Electron Energy =                 366.2105984632030413
    Total Energy =                       -285.8336784836651532
  Basis Set: (AUG-CC-PVTZ AUX)
    Blend: AUG-CC-PVTZ-RI
    Molecular point group: c1

    Geometry (in Angstrom), charge = 0, multiplicity = 1:

       Center              X                  Y                   Z               Mass
    ------------   -----------------  -----------------  -----------------  -----------------
         N           -2.347105407641    -0.000444710515    -0.080968389104    14.003074004430
         C           -0.942966407641    -0.000442710515     0.005349610896    12.000000000000
         C           -0.229594407641    -1.207682710515    -0.002608389104    12.000000000000
         C            1.164438592359    -1.204309710515     0.012264610896    12.000000000000
         C            1.871741592359    -0.000442710515     0.014592610896    12.000000000000
         C            1.164437592359     1.203425289485     0.012265610896    12.000000000000
         C           -0.229595407641     1.206797289485    -0.002608389104    12.000000000000
         H           -2.749662207641    -0.789716010515     0.301849010896     1.007825032230
         H           -2.770519407641     0.829723289485     0.321659610896     1.007825032230
         H           -0.773033407641    -2.151300710515    -0.009258389104     1.007825032230
         H            1.699330592359    -2.151366710515     0.012925610896     1.007825032230
         H            2.958294592359    -0.000441710515     0.026745610896     1.007825032230
         H            1.699328592359     2.150482289485     0.012922610896     1.007825032230
         H           -0.773036407641     2.150414289485    -0.009251389104     1.007825032230

  Basis Set: AUG-CC-PVTZ
    Blend: AUG-CC-PVTZ
  Basis Set: (AUG-CC-PVTZ AUX)
    Blend: AUG-CC-PVTZ-JKFIT
	 Reference Energy          =    -285.8336784836651532 [Eh]
	 Singles Energy            =      -0.0000000000000000 [Eh]
	 Same-Spin Energy          =      -0.3151689669956037 [Eh]
	 Opposite-Spin Energy      =      -0.9934776680789789 [Eh]
	 Correlation Energy        =      -1.3086466350745827 [Eh]
	 Total Energy              =    -287.1423251187397341 [Eh]

	 ================> DF-SCS-MP2 Energies <==================
	-----------------------------------------------------------
	 SCS Same-Spin Scale       =       0.3333333333333333 [-]
	 SCS Opposite-Spin Scale   =       1.2000000000000000 [-]
	 SCS Same-Spin Energy      =      -0.1050563223318679 [Eh]
	 SCS Opposite-Spin Energy  =      -1.1921732016947746 [Eh]
	 SCS Correlation Energy    =      -1.2972295240266425 [Eh]
	 SCS Total Energy          =    -287.1309080076918008 [Eh]
	-----------------------------------------------------------

  Dipole Moment: [D]
     X:    -0.9530      Y:     0.0224      Z:     1.0661     Total:     1.4302

*** Psi4 exiting successfully. Buy a developer a beer!
