                               Psi4 1.3.2 release

  ==> Input File <==

--------------------------------------------------------------------------
#psi4
#
memory 32 gb

molecule  {
0 1
  N        2.3399850     0.0000400    -0.0882940
  C        0.9354480     0.0000030    -0.0013470
  C        0.2222290     1.2072330    -0.0096550
  C       -1.1718320     1.2039030     0.0053930
  C       -1.8790760     0.0000220     0.0076380
  C       -1.1718640    -1.2038970     0.0054270
  C        0.2221720    -1.2072360    -0.0096460
  H        2.6794896     0.6662483     0.2367170
  H        2.7627430    -0.8301660     0.3152910
  H        0.7657540     2.1507970    -0.0162340
  H       -1.7067870     2.1509120     0.0059600
  H       -2.9656380    -0.0000200     0.0197930
  H       -1.7069100    -2.1508590     0.0059040
  H        0.7657150    -2.1507810    -0.0159610
units angstrom
no_reorient  #important for SAPT in psi4, default
symmetry c1  #important for SAPT in psi4, default
}

set PROPERTIES_ORIGIN ["COM"]
properties('MP2/aug-cc-pvtz', properties = ['dipole'])
--------------------------------------------------------------------------

    Molecular point group: c1
  Charge       = 0
  Multiplicity = 1
  Basis Set: AUG-CC-PVTZ
    Blend: AUG-CC-PVTZ
  Basis Set: (AUG-CC-PVTZ AUX)
    Blend: AUG-CC-PVTZ-JKFIT

    Orbital Energies [Eh]
    ---------------------

    Doubly Occupied:

       1A    -15.544538     2A    -11.278837     3A    -11.237692
       4A    -11.237451     5A    -11.226977     6A    -11.226400
       7A    -11.222583     8A     -1.253126     9A     -1.133264
      10A     -1.011941    11A     -0.994928    12A     -0.835254
      13A     -0.818414    14A     -0.722779    15A     -0.697518
      16A     -0.656107    17A     -0.603290    18A     -0.596259
      19A     -0.581985    20A     -0.535646    21A     -0.506677
      22A     -0.489951    23A     -0.452366    24A     -0.337046
      25A     -0.299612

  @DF-RHF Final Energy:  -285.78976618154138

   => Energetics <=

    Nuclear Repulsion Energy =            272.1543815590962367
    One-Electron Energy =                -924.8870127438804047
    Two-Electron Energy =                 366.9428650032427868
    Total Energy =                       -285.7897661815413812
  Basis Set: (AUG-CC-PVTZ AUX)
    Blend: AUG-CC-PVTZ-RI
    Molecular point group: c1

    Geometry (in Angstrom), charge = 0, multiplicity = 1:

       Center              X                  Y                   Z               Mass
    ------------   -----------------  -----------------  -----------------  -----------------
         N            2.348034566416     0.001805083292    -0.080697841788    14.003074004430
         C            0.943497566416     0.001768083292     0.006249158212    12.000000000000
         C            0.230278566416     1.208998083292    -0.002058841788    12.000000000000
         C           -1.163782433584     1.205668083292     0.012989158212    12.000000000000
         C           -1.871026433584     0.001787083292     0.015234158212    12.000000000000
         C           -1.163814433584    -1.202131916708     0.013023158212    12.000000000000
         C            0.230221566416    -1.205470916708    -0.002049841788    12.000000000000
         H            2.687539166416     0.668013383292     0.244313158212     1.007825032230
         H            2.770792566416    -0.828400916708     0.322887158212     1.007825032230
         H            0.773803566416     2.152562083292    -0.008637841788     1.007825032230
         H           -1.698737433584     2.152677083292     0.013556158212     1.007825032230
         H           -2.957588433584     0.001745083292     0.027389158212     1.007825032230
         H           -1.698860433584    -2.149093916708     0.013500158212     1.007825032230
         H            0.773764566416    -2.149015916708    -0.008364841788     1.007825032230

  Basis Set: AUG-CC-PVTZ
    Blend: AUG-CC-PVTZ
  Basis Set: (AUG-CC-PVTZ AUX)
    Blend: AUG-CC-PVTZ-JKFIT
	 Reference Energy          =    -285.7897661815413812 [Eh]
	 Singles Energy            =      -0.0000000000000000 [Eh]
	 Same-Spin Energy          =      -0.3144376587851925 [Eh]
	 Opposite-Spin Energy      =      -0.9916251877543432 [Eh]
	 Correlation Energy        =      -1.3060628465395356 [Eh]
	 Total Energy              =    -287.0958290280809138 [Eh]

	 ================> DF-SCS-MP2 Energies <==================
	-----------------------------------------------------------
	 SCS Same-Spin Scale       =       0.3333333333333333 [-]
	 SCS Opposite-Spin Scale   =       1.2000000000000000 [-]
	 SCS Same-Spin Energy      =      -0.1048125529283975 [Eh]
	 SCS Opposite-Spin Energy  =      -1.1899502253052117 [Eh]
	 SCS Correlation Energy    =      -1.2947627782336091 [Eh]
	 SCS Total Energy          =    -287.0845289597750138 [Eh]
	-----------------------------------------------------------

  Dipole Moment: [D]
     X:     0.8918      Y:    -0.0947      Z:     1.0506     Total:     1.3813

*** Psi4 exiting successfully. Buy a developer a beer!
