                               Psi4 1.3.2 release

  ==> Input File <==

--------------------------------------------------------------------------
#psi4
#
memory 32 gb

molecule  {
0 1
  N        2.3399850     0.0000400    -0.0882940
  C        0.9349641    -0.0218007    -0.0126420
  C        0.2222290     1.2072330    -0.0096550
  C       -1.1718320     1.2039030     0.0053930
  C       -1.8790760     0.0000220     0.0076380
  C       -1.1718640    -1.2038970     0.0054270
  C        0.2221720    -1.2072360    -0.0096460
  H        2.7627720     0.8296730     0.3164440
  H        2.7627430    -0.8301660     0.3152910
  H        0.7657540     2.1507970    -0.0162340
  H       -1.7067870     2.1509120     0.0059600
  H       -2.9656380    -0.0000200     0.0197930
  H       -1.7069100    -2.1508590     0.0059040
  H        0.7657150    -2.1507810    -0.0159610
units angstrom
no_reorient  #important for SAPT in psi4, default
symmetry c1  #important for SAPT in psi4, default
}

set PROPERTIES_ORIGIN ["COM"]
properties('MP2/aug-cc-pvtz', properties = ['dipole'])
--------------------------------------------------------------------------

    Molecular point group: c1
  Charge       = 0
  Multiplicity = 1
  Basis Set: AUG-CC-PVTZ
    Blend: AUG-CC-PVTZ
  Basis Set: (AUG-CC-PVTZ AUX)
    Blend: AUG-CC-PVTZ-JKFIT

    Orbital Energies [Eh]
    ---------------------

    Doubly Occupied:

       1A    -15.567126     2A    -11.278704     3A    -11.237457
       4A    -11.236965     5A    -11.228157     6A    -11.223920
       7A    -11.221925     8A     -1.221752     9A     -1.125554
      10A     -1.011662    11A     -0.984989    12A     -0.831166
      13A     -0.810661    14A     -0.702635    15A     -0.680323
      16A     -0.654080    17A     -0.598559    18A     -0.590245
      19A     -0.580507    20A     -0.534046    21A     -0.506335
      22A     -0.488661    23A     -0.449470    24A     -0.336881
      25A     -0.297789

  @DF-RHF Final Energy:  -285.83367882259455

   => Energetics <=

    Nuclear Repulsion Energy =            270.9588327521119027
    One-Electron Energy =                -922.7858831308459457
    Two-Electron Energy =                 365.9933715561394934
    Total Energy =                       -285.8336788225945497
  Basis Set: (AUG-CC-PVTZ AUX)
    Blend: AUG-CC-PVTZ-RI
    Molecular point group: c1

    Geometry (in Angstrom), charge = 0, multiplicity = 1:

       Center              X                  Y                   Z               Mass
    ------------   -----------------  -----------------  -----------------  -----------------
         N            2.347195010290     0.002846810533    -0.080104779149    14.003074004430
         C            0.942174110290    -0.018993889467    -0.004452779149    12.000000000000
         C            0.229439010290     1.210039810533    -0.001465779149    12.000000000000
         C           -1.164621989710     1.206709810533     0.013582220851    12.000000000000
         C           -1.871865989710     0.002828810533     0.015827220851    12.000000000000
         C           -1.164653989710    -1.201090189467     0.013616220851    12.000000000000
         C            0.229382010290    -1.204429189467    -0.001456779149    12.000000000000
         H            2.769982010290     0.832479810533     0.324633220851     1.007825032230
         H            2.769953010290    -0.827359189467     0.323480220851     1.007825032230
         H            0.772964010290     2.153603810533    -0.008044779149     1.007825032230
         H           -1.699576989710     2.153718810533     0.014149220851     1.007825032230
         H           -2.958427989710     0.002786810533     0.027982220851     1.007825032230
         H           -1.699699989710    -2.148052189467     0.014093220851     1.007825032230
         H            0.772925010290    -2.147974189467    -0.007771779149     1.007825032230

  Basis Set: AUG-CC-PVTZ
    Blend: AUG-CC-PVTZ
  Basis Set: (AUG-CC-PVTZ AUX)
    Blend: AUG-CC-PVTZ-JKFIT
	 Reference Energy          =    -285.8336788225945497 [Eh]
	 Singles Energy            =      -0.0000000000000000 [Eh]
	 Same-Spin Energy          =      -0.3154261694650171 [Eh]
	 Opposite-Spin Energy      =      -0.9942814973584436 [Eh]
	 Correlation Energy        =      -1.3097076668234608 [Eh]
	 Total Energy              =    -287.1433864894179919 [Eh]

	 ================> DF-SCS-MP2 Energies <==================
	-----------------------------------------------------------
	 SCS Same-Spin Scale       =       0.3333333333333333 [-]
	 SCS Opposite-Spin Scale   =       1.2000000000000000 [-]
	 SCS Same-Spin Energy      =      -0.1051420564883390 [Eh]
	 SCS Opposite-Spin Energy  =      -1.1931377968301322 [Eh]
	 SCS Correlation Energy    =      -1.2982798533184712 [Eh]
	 SCS Total Energy          =    -287.1319586759130402 [Eh]
	-----------------------------------------------------------

  Dipole Moment: [D]
     X:     0.9568      Y:     0.0071      Z:     1.0764     Total:     1.4402

*** Psi4 exiting successfully. Buy a developer a beer!
