                               Psi4 1.3.2 release

  ==> Input File <==

--------------------------------------------------------------------------
#psi4
#
memory 32 gb

molecule  {
0 1
  N        2.3399850     0.0000400    -0.0882940
  C        0.9354480     0.0000030    -0.0013470
  C        0.2222290     1.2072330    -0.0096550
  C       -1.1718320     1.2039030     0.0053930
  C       -1.8790760     0.0000220     0.0076380
  C       -1.1718640    -1.2038970     0.0054270
  C        0.2221720    -1.2072360    -0.0096460
  H        2.8231613     0.7639490     0.3741304
  H        2.7627430    -0.8301660     0.3152910
  H        0.7657540     2.1507970    -0.0162340
  H       -1.7067870     2.1509120     0.0059600
  H       -2.9656380    -0.0000200     0.0197930
  H       -1.7069100    -2.1508590     0.0059040
  H        0.7657150    -2.1507810    -0.0159610
units angstrom
no_reorient  #important for SAPT in psi4, default
symmetry c1  #important for SAPT in psi4, default
}

set PROPERTIES_ORIGIN ["COM"]
properties('MP2/aug-cc-pvtz', properties = ['dipole'])
--------------------------------------------------------------------------

    Molecular point group: c1
  Charge       = 0
  Multiplicity = 1
  Basis Set: AUG-CC-PVTZ
    Blend: AUG-CC-PVTZ
  Basis Set: (AUG-CC-PVTZ AUX)
    Blend: AUG-CC-PVTZ-JKFIT

    Orbital Energies [Eh]
    ---------------------

    Doubly Occupied:

       1A    -15.566980     2A    -11.279299     3A    -11.237274
       4A    -11.237036     5A    -11.226872     6A    -11.226256
       7A    -11.222521     8A     -1.221666     9A     -1.126038
      10A     -1.011378    11A     -0.986374    12A     -0.830109
      13A     -0.812754    14A     -0.705013    15A     -0.672400
      16A     -0.655792    17A     -0.599195    18A     -0.588343
      19A     -0.579703    20A     -0.534210    21A     -0.506397
      22A     -0.488893    23A     -0.450482    24A     -0.336635
      25A     -0.299097

  @DF-RHF Final Energy:  -285.83296265697282

   => Energetics <=

    Nuclear Repulsion Energy =            270.8564851417868908
    One-Electron Energy =                -922.5774599302030765
    Two-Electron Energy =                 365.8880121314434177
    Total Energy =                       -285.8329626569728248
  Basis Set: (AUG-CC-PVTZ AUX)
    Blend: AUG-CC-PVTZ-RI
    Molecular point group: c1

    Geometry (in Angstrom), charge = 0, multiplicity = 1:

       Center              X                  Y                   Z               Mass
    ------------   -----------------  -----------------  -----------------  -----------------
         N            2.346478588744     0.000746975761    -0.082186041498    14.003074004430
         C            0.941941588744     0.000709975761     0.004760958502    12.000000000000
         C            0.228722588744     1.207939975761    -0.003547041498    12.000000000000
         C           -1.165338411256     1.204609975761     0.011500958502    12.000000000000
         C           -1.872582411256     0.000728975761     0.013745958502    12.000000000000
         C           -1.165370411256    -1.203190024239     0.011534958502    12.000000000000
         C            0.228665588744    -1.206529024239    -0.003538041498    12.000000000000
         H            2.829654888744     0.764655975761     0.380238358502     1.007825032230
         H            2.769236588744    -0.829459024239     0.321398958502     1.007825032230
         H            0.772247588744     2.151503975761    -0.010126041498     1.007825032230
         H           -1.700293411256     2.151618975761     0.012067958502     1.007825032230
         H           -2.959144411256     0.000686975761     0.025900958502     1.007825032230
         H           -1.700416411256    -2.150152024239     0.012011958502     1.007825032230
         H            0.772208588744    -2.150074024239    -0.009853041498     1.007825032230

  Basis Set: AUG-CC-PVTZ
    Blend: AUG-CC-PVTZ
  Basis Set: (AUG-CC-PVTZ AUX)
    Blend: AUG-CC-PVTZ-JKFIT
	 Reference Energy          =    -285.8329626569728248 [Eh]
	 Singles Energy            =      -0.0000000000000000 [Eh]
	 Same-Spin Energy          =      -0.3154507049918108 [Eh]
	 Opposite-Spin Energy      =      -0.9943785107537153 [Eh]
	 Correlation Energy        =      -1.3098292157455260 [Eh]
	 Total Energy              =    -287.1427918727183624 [Eh]

	 ================> DF-SCS-MP2 Energies <==================
	-----------------------------------------------------------
	 SCS Same-Spin Scale       =       0.3333333333333333 [-]
	 SCS Opposite-Spin Scale   =       1.2000000000000000 [-]
	 SCS Same-Spin Energy      =      -0.1051502349972703 [Eh]
	 SCS Opposite-Spin Energy  =      -1.1932542129044583 [Eh]
	 SCS Correlation Energy    =      -1.2984044479017287 [Eh]
	 SCS Total Energy          =    -287.1313671048745277 [Eh]
	-----------------------------------------------------------

  Dipole Moment: [D]
     X:     0.9452      Y:    -0.0445      Z:     1.1424     Total:     1.4833

*** Psi4 exiting successfully. Buy a developer a beer!
