                               Psi4 1.3.2 release

  ==> Input File <==

--------------------------------------------------------------------------
#psi4
#
memory 32 gb

molecule  {
0 1
  N        2.3368290    -0.0980310    -0.0838371
  C        0.9354480     0.0000030    -0.0013470
  C        0.2222290     1.2072330    -0.0096550
  C       -1.1718320     1.2039030     0.0053930
  C       -1.8790760     0.0000220     0.0076380
  C       -1.1718640    -1.2038970     0.0054270
  C        0.2221720    -1.2072360    -0.0096460
  H        2.7627720     0.8296730     0.3164440
  H        2.7627430    -0.8301660     0.3152910
  H        0.7657540     2.1507970    -0.0162340
  H       -1.7067870     2.1509120     0.0059600
  H       -2.9656380    -0.0000200     0.0197930
  H       -1.7069100    -2.1508590     0.0059040
  H        0.7657150    -2.1507810    -0.0159610
units angstrom
no_reorient  #important for SAPT in psi4, default
symmetry c1  #important for SAPT in psi4, default
}

set PROPERTIES_ORIGIN ["COM"]
properties('MP2/aug-cc-pvtz', properties = ['dipole'])
--------------------------------------------------------------------------

    Molecular point group: c1
  Charge       = 0
  Multiplicity = 1
  Basis Set: AUG-CC-PVTZ
    Blend: AUG-CC-PVTZ
  Basis Set: (AUG-CC-PVTZ AUX)
    Blend: AUG-CC-PVTZ-JKFIT

    Orbital Energies [Eh]
    ---------------------

    Doubly Occupied:

       1A    -15.566922     2A    -11.279572     3A    -11.238186
       4A    -11.236451     5A    -11.228417     6A    -11.224427
       7A    -11.222150     8A     -1.223898     9A     -1.126402
      10A     -1.011526    11A     -0.986680    12A     -0.831087
      13A     -0.813582    14A     -0.710642    15A     -0.677892
      16A     -0.651415    17A     -0.603149    18A     -0.584348
      19A     -0.577086    20A     -0.534380    21A     -0.506056
      22A     -0.488254    23A     -0.450061    24A     -0.336864
      25A     -0.298090

  @DF-RHF Final Energy:  -285.82096176368162

   => Energetics <=

    Nuclear Repulsion Energy =            271.0195072231221616
    One-Electron Energy =                -922.8658628536501283
    Two-Electron Energy =                 366.0253938668464002
    Total Energy =                       -285.8209617636816233
  Basis Set: (AUG-CC-PVTZ AUX)
    Blend: AUG-CC-PVTZ-RI
    Molecular point group: c1

    Geometry (in Angstrom), charge = 0, multiplicity = 1:

       Center              X                  Y                   Z               Mass
    ------------   -----------------  -----------------  -----------------  -----------------
         N            2.344451516079    -0.083278382855    -0.077775053827    14.003074004430
         C            0.943070516079     0.014755617145     0.004715046173    12.000000000000
         C            0.229851516079     1.221985617145    -0.003592953827    12.000000000000
         C           -1.164209483921     1.218655617145     0.011455046173    12.000000000000
         C           -1.871453483921     0.014774617145     0.013700046173    12.000000000000
         C           -1.164241483921    -1.189144382855     0.011489046173    12.000000000000
         C            0.229794516079    -1.192483382855    -0.003583953827    12.000000000000
         H            2.770394516079     0.844425617145     0.322506046173     1.007825032230
         H            2.770365516079    -0.815413382855     0.321353046173     1.007825032230
         H            0.773376516079     2.165549617145    -0.010171953827     1.007825032230
         H           -1.699164483921     2.165664617145     0.012022046173     1.007825032230
         H           -2.958015483921     0.014732617145     0.025855046173     1.007825032230
         H           -1.699287483921    -2.136106382855     0.011966046173     1.007825032230
         H            0.773337516079    -2.136028382855    -0.009898953827     1.007825032230

  Basis Set: AUG-CC-PVTZ
    Blend: AUG-CC-PVTZ
  Basis Set: (AUG-CC-PVTZ AUX)
    Blend: AUG-CC-PVTZ-JKFIT
	 Reference Energy          =    -285.8209617636816233 [Eh]
	 Singles Energy            =      -0.0000000000000000 [Eh]
	 Same-Spin Energy          =      -0.3155902506316757 [Eh]
	 Opposite-Spin Energy      =      -0.9948473379912286 [Eh]
	 Correlation Energy        =      -1.3104375886229043 [Eh]
	 Total Energy              =    -287.1313993523045269 [Eh]

	 ================> DF-SCS-MP2 Energies <==================
	-----------------------------------------------------------
	 SCS Same-Spin Scale       =       0.3333333333333333 [-]
	 SCS Opposite-Spin Scale   =       1.2000000000000000 [-]
	 SCS Same-Spin Energy      =      -0.1051967502105585 [Eh]
	 SCS Opposite-Spin Energy  =      -1.1938168055894742 [Eh]
	 SCS Correlation Energy    =      -1.2990135558000329 [Eh]
	 SCS Total Energy          =    -287.1199753194816822 [Eh]
	-----------------------------------------------------------

  Dipole Moment: [D]
     X:     0.9387      Y:     0.0713      Z:     1.0696     Total:     1.4248

*** Psi4 exiting successfully. Buy a developer a beer!
