                               Psi4 1.3.2 release

  ==> Input File <==

--------------------------------------------------------------------------
#psi4
#
memory 32 gb

molecule  {
0 1
  N        2.3399850     0.0000400    -0.0882940
  C        0.9354480     0.0000030    -0.0013470
  C        0.2222290     1.2072330    -0.0096550
  C       -1.1718320     1.2039030     0.0053930
  C       -1.8790760     0.0000220     0.0076380
  C       -1.1718640    -1.2038970     0.0054270
  C        0.2221720    -1.2072360    -0.0096460
  H        2.8044132     0.9113854     0.3563075
  H        2.7627430    -0.8301660     0.3152910
  H        0.7657540     2.1507970    -0.0162340
  H       -1.7067870     2.1509120     0.0059600
  H       -2.9656380    -0.0000200     0.0197930
  H       -1.7069100    -2.1508590     0.0059040
  H        0.7657150    -2.1507810    -0.0159610
units angstrom
no_reorient  #important for SAPT in psi4, default
symmetry c1  #important for SAPT in psi4, default
}

set PROPERTIES_ORIGIN ["COM"]
properties('MP2/aug-cc-pvtz', properties = ['dipole'])
--------------------------------------------------------------------------

    Molecular point group: c1
  Charge       = 0
  Multiplicity = 1
  Basis Set: AUG-CC-PVTZ
    Blend: AUG-CC-PVTZ
  Basis Set: (AUG-CC-PVTZ AUX)
    Blend: AUG-CC-PVTZ-JKFIT

    Orbital Energies [Eh]
    ---------------------

    Doubly Occupied:

       1A    -15.576838     2A    -11.278772     3A    -11.237206
       4A    -11.237035     5A    -11.226314     6A    -11.225890
       7A    -11.221828     8A     -1.213682     9A     -1.122540
      10A     -1.011192    11A     -0.981725    12A     -0.829984
      13A     -0.808318    14A     -0.700761    15A     -0.668024
      16A     -0.651054    17A     -0.596490    18A     -0.585782
      19A     -0.577131    20A     -0.533548    21A     -0.505692
      22A     -0.488695    23A     -0.448878    24A     -0.336604
      25A     -0.297313

  @DF-RHF Final Energy:  -285.82404848925239

   => Energetics <=

    Nuclear Repulsion Energy =            270.4730999422338868
    One-Electron Energy =                -921.8717079461259800
    Two-Electron Energy =                 365.5745595146397591
    Total Energy =                       -285.8240484892523909
  Basis Set: (AUG-CC-PVTZ AUX)
    Blend: AUG-CC-PVTZ-RI
    Molecular point group: c1

    Geometry (in Angstrom), charge = 0, multiplicity = 1:

       Center              X                  Y                   Z               Mass
    ------------   -----------------  -----------------  -----------------  -----------------
         N            2.346681632384    -0.000849773958    -0.081993017859    14.003074004430
         C            0.942144632384    -0.000886773958     0.004953982141    12.000000000000
         C            0.228925632384     1.206343226042    -0.003354017859    12.000000000000
         C           -1.165135367616     1.203013226042     0.011693982141    12.000000000000
         C           -1.872379367616    -0.000867773958     0.013938982141    12.000000000000
         C           -1.165167367616    -1.204786773958     0.011727982141    12.000000000000
         C            0.228868632384    -1.208125773958    -0.003345017859    12.000000000000
         H            2.811109832384     0.910495626042     0.362608482141     1.007825032230
         H            2.769439632384    -0.831055773958     0.321591982141     1.007825032230
         H            0.772450632384     2.149907226042    -0.009933017859     1.007825032230
         H           -1.700090367616     2.150022226042     0.012260982141     1.007825032230
         H           -2.958941367616    -0.000909773958     0.026093982141     1.007825032230
         H           -1.700213367616    -2.151748773958     0.012204982141     1.007825032230
         H            0.772411632384    -2.151670773958    -0.009660017859     1.007825032230

  Basis Set: AUG-CC-PVTZ
    Blend: AUG-CC-PVTZ
  Basis Set: (AUG-CC-PVTZ AUX)
    Blend: AUG-CC-PVTZ-JKFIT
	 Reference Energy          =    -285.8240484892523909 [Eh]
	 Singles Energy            =      -0.0000000000000000 [Eh]
	 Same-Spin Energy          =      -0.3160432934403699 [Eh]
	 Opposite-Spin Energy      =      -0.9961579540694365 [Eh]
	 Correlation Energy        =      -1.3122012475098064 [Eh]
	 Total Energy              =    -287.1362497367621813 [Eh]

	 ================> DF-SCS-MP2 Energies <==================
	-----------------------------------------------------------
	 SCS Same-Spin Scale       =       0.3333333333333333 [-]
	 SCS Opposite-Spin Scale   =       1.2000000000000000 [-]
	 SCS Same-Spin Energy      =      -0.1053477644801233 [Eh]
	 SCS Opposite-Spin Energy  =      -1.1953895448833238 [Eh]
	 SCS Correlation Energy    =      -1.3007373093634471 [Eh]
	 SCS Total Energy          =    -287.1247857986158465 [Eh]
	-----------------------------------------------------------

  Dipole Moment: [D]
     X:     0.9724      Y:     0.0400      Z:     1.0890     Total:     1.4606

*** Psi4 exiting successfully. Buy a developer a beer!
