                               Psi4 1.4a3.dev225

  ==> Input File <==

--------------------------------------------------------------------------
#psi4
#
memory 32 gb

molecule  {
0 1
  N       -2.3397230    -0.0000020    -0.0878920
  C       -0.9555463    -0.0000000    -0.0028012
  C       -0.2222120    -1.2072400    -0.0095320
  C        1.1718210    -1.2038670     0.0053410
  C        1.8791240     0.0000000     0.0076690
  C        1.1718200     1.2038680     0.0053420
  C       -0.2222130     1.2072400    -0.0095320
  H       -2.7631340    -0.8301610     0.3147570
  H       -2.7631370     0.8301660     0.3147360
  H       -0.7656510    -2.1508580    -0.0161820
  H        1.7067130    -2.1509240     0.0060020
  H        2.9656770     0.0000010     0.0198220
  H        1.7067110     2.1509250     0.0059990
  H       -0.7656540     2.1508570    -0.0161750
units angstrom
no_reorient  #important for SAPT in psi4, default
symmetry c1  #important for SAPT in psi4, default
}

set PROPERTIES_ORIGIN ["COM"]
properties('MP2/aug-cc-pvtz', properties = ['dipole'])
--------------------------------------------------------------------------

    Molecular point group: c1
  Charge       = 0
  Multiplicity = 1
  Basis Set: AUG-CC-PVTZ
    Blend: AUG-CC-PVTZ
  Basis Set: (AUG-CC-PVTZ AUX)
    Blend: AUG-CC-PVTZ-JKFIT

    Orbital Energies [Eh]
    ---------------------

    Doubly Occupied:

       1A    -15.569624     2A    -11.280397     3A    -11.236664
       4A    -11.236631     5A    -11.226081     6A    -11.226066
       7A    -11.220682     8A     -1.229014     9A     -1.124485
      10A     -1.009462    11A     -0.983125    12A     -0.829576
      13A     -0.811318    14A     -0.703231    15A     -0.683801
      16A     -0.656658    17A     -0.598057    18A     -0.588760
      19A     -0.579417    20A     -0.535621    21A     -0.506966
      22A     -0.485610    23A     -0.451617    24A     -0.335836
      25A     -0.294859

  @DF-RHF Final Energy:  -285.83341152194720

   => Energetics <=

    Nuclear Repulsion Energy =            270.8393910067160277
    One-Electron Energy =                -922.5384894988875430
    Two-Electron Energy =                 365.8656869702243171
    Total Energy =                       -285.8334115219471983
  Basis Set: (AUG-CC-PVTZ AUX)
    Blend: AUG-CC-PVTZ-RI
    Molecular point group: c1

    Geometry (in Angstrom), charge = 0, multiplicity = 1:

       Center              X                  Y                   Z               Mass
    ------------   -----------------  -----------------  -----------------  -----------------
         N           -2.344305375328    -0.000001892978    -0.081024917199    14.003074004430
         C           -0.960128675328     0.000000107022     0.004065882801    12.000000000000
         C           -0.226794375328    -1.207239892978    -0.002664917199    12.000000000000
         C            1.167238624672    -1.203866892978     0.012208082801    12.000000000000
         C            1.874541624672     0.000000107022     0.014536082801    12.000000000000
         C            1.167237624672     1.203868107022     0.012209082801    12.000000000000
         C           -0.226795375328     1.207240107022    -0.002664917199    12.000000000000
         H           -2.767716375328    -0.830160892978     0.321624082801     1.007825032230
         H           -2.767719375328     0.830166107022     0.321603082801     1.007825032230
         H           -0.770233375328    -2.150857892978    -0.009314917199     1.007825032230
         H            1.702130624672    -2.150923892978     0.012869082801     1.007825032230
         H            2.961094624672     0.000001107022     0.026689082801     1.007825032230
         H            1.702128624672     2.150925107022     0.012866082801     1.007825032230
         H           -0.770236375328     2.150857107022    -0.009307917199     1.007825032230

  Basis Set: AUG-CC-PVTZ
    Blend: AUG-CC-PVTZ
  Basis Set: (AUG-CC-PVTZ AUX)
    Blend: AUG-CC-PVTZ-JKFIT
	 Reference Energy          =    -285.8334115219471983 [Eh]
	 Singles Energy            =      -0.0000000000000000 [Eh]
	 Same-Spin Energy          =      -0.3155955229585933 [Eh]
	 Opposite-Spin Energy      =      -0.9944062320593559 [Eh]
	 Correlation Energy        =      -1.3100017550179492 [Eh]
	 Total Energy              =    -287.1434132769651342 [Eh]

	 ================> DF-SCS-MP2 Energies <==================
	-----------------------------------------------------------
	 SCS Same-Spin Scale       =       0.3333333333333333 [-]
	 SCS Opposite-Spin Scale   =       1.2000000000000000 [-]
	 SCS Same-Spin Energy      =      -0.1051985076528644 [Eh]
	 SCS Opposite-Spin Energy  =      -1.1932874784712271 [Eh]
	 SCS Correlation Energy    =      -1.2984859861240914 [Eh]
	 SCS Total Energy          =    -287.1318975080712903 [Eh]
	-----------------------------------------------------------

  Dipole Moment: [D]
     X:    -1.1027      Y:     0.0000      Z:     1.0683     Total:     1.5353

*** Psi4 exiting successfully. Buy a developer a beer!
