                               Psi4 1.3.2 release

  ==> Input File <==

--------------------------------------------------------------------------
#psi4
#
memory 32 gb

molecule  {
0 1
  N        2.3399850     0.0000400    -0.0882940
  C        0.9354480     0.0000030    -0.0013470
  C        0.2222290     1.2072330    -0.0096550
  C       -1.1718320     1.2039030     0.0053930
  C       -1.8790760     0.0000220     0.0076380
  C       -1.1718640    -1.2038970     0.0054270
  C        0.2221720    -1.2072360    -0.0096460
  H        2.7731771     0.8193320     0.3263840
  H        2.7627430    -0.8301660     0.3152910
  H        0.7657540     2.1507970    -0.0162340
  H       -1.7067870     2.1509120     0.0059600
  H       -2.9656380    -0.0000200     0.0197930
  H       -1.7069100    -2.1508590     0.0059040
  H        0.7657150    -2.1507810    -0.0159610
units angstrom
no_reorient  #important for SAPT in psi4, default
symmetry c1  #important for SAPT in psi4, default
}

set PROPERTIES_ORIGIN ["COM"]
properties('MP2/aug-cc-pvtz', properties = ['dipole'])
--------------------------------------------------------------------------

    Molecular point group: c1
  Charge       = 0
  Multiplicity = 1
  Basis Set: AUG-CC-PVTZ
    Blend: AUG-CC-PVTZ
  Basis Set: (AUG-CC-PVTZ AUX)
    Blend: AUG-CC-PVTZ-JKFIT

    Orbital Energies [Eh]
    ---------------------

    Doubly Occupied:

       1A    -15.567264     2A    -11.278780     3A    -11.237210
       4A    -11.237154     5A    -11.226255     6A    -11.226140
       7A    -11.222023     8A     -1.221884     9A     -1.125603
      10A     -1.011323    11A     -0.985314    12A     -0.830769
      13A     -0.811164    14A     -0.702804    15A     -0.679150
      16A     -0.654130    17A     -0.597572    18A     -0.590953
      19A     -0.580437    20A     -0.534106    21A     -0.506004
      22A     -0.489073    23A     -0.449949    24A     -0.336660
      25A     -0.298085

  @DF-RHF Final Energy:  -285.83414639148208

   => Energetics <=

    Nuclear Repulsion Energy =            270.9329263954830367
    One-Electron Energy =                -922.7345347791695076
    Two-Electron Energy =                 365.9674619922043917
    Total Energy =                       -285.8341463914820793
  Basis Set: (AUG-CC-PVTZ AUX)
    Blend: AUG-CC-PVTZ-RI
    Molecular point group: c1

    Geometry (in Angstrom), charge = 0, multiplicity = 1:

       Center              X                  Y                   Z               Mass
    ------------   -----------------  -----------------  -----------------  -----------------
         N            2.347019922209     0.000147172797    -0.081668943612    14.003074004430
         C            0.942482922209     0.000110172797     0.005278056388    12.000000000000
         C            0.229263922209     1.207340172797    -0.003029943612    12.000000000000
         C           -1.164797077791     1.204010172797     0.012018056388    12.000000000000
         C           -1.872041077791     0.000129172797     0.014263056388    12.000000000000
         C           -1.164829077791    -1.203789827203     0.012052056388    12.000000000000
         C            0.229206922209    -1.207128827203    -0.003020943612    12.000000000000
         H            2.780212022209     0.819439172797     0.333009056388     1.007825032230
         H            2.769777922209    -0.830058827203     0.321916056388     1.007825032230
         H            0.772788922209     2.150904172797    -0.009608943612     1.007825032230
         H           -1.699752077791     2.151019172797     0.012585056388     1.007825032230
         H           -2.958603077791     0.000087172797     0.026418056388     1.007825032230
         H           -1.699875077791    -2.150751827203     0.012529056388     1.007825032230
         H            0.772749922209    -2.150673827203    -0.009335943612     1.007825032230

  Basis Set: AUG-CC-PVTZ
    Blend: AUG-CC-PVTZ
  Basis Set: (AUG-CC-PVTZ AUX)
    Blend: AUG-CC-PVTZ-JKFIT
	 Reference Energy          =    -285.8341463914820793 [Eh]
	 Singles Energy            =      -0.0000000000000000 [Eh]
	 Same-Spin Energy          =      -0.3154464085091612 [Eh]
	 Opposite-Spin Energy      =      -0.9943058216029426 [Eh]
	 Correlation Energy        =      -1.3097522301121036 [Eh]
	 Total Energy              =    -287.1438986215941895 [Eh]

	 ================> DF-SCS-MP2 Energies <==================
	-----------------------------------------------------------
	 SCS Same-Spin Scale       =       0.3333333333333333 [-]
	 SCS Opposite-Spin Scale   =       1.2000000000000000 [-]
	 SCS Same-Spin Energy      =      -0.1051488028363871 [Eh]
	 SCS Opposite-Spin Energy  =      -1.1931669859235310 [Eh]
	 SCS Correlation Energy    =      -1.2983157887599179 [Eh]
	 SCS Total Energy          =    -287.1324621802419870 [Eh]
	-----------------------------------------------------------

  Dipole Moment: [D]
     X:     0.9575      Y:    -0.0071      Z:     1.0876     Total:     1.4490

*** Psi4 exiting successfully. Buy a developer a beer!
