                               Psi4 1.3.2 release

  ==> Input File <==

--------------------------------------------------------------------------
#psi4
#
memory 32 gb

molecule  {
0 1
  N        2.3399850     0.0000400    -0.0882940
  C        0.9354480     0.0000030    -0.0013470
  C        0.2222290     1.2072330    -0.0096550
  C       -1.1718320     1.2039030     0.0053930
  C       -1.8790760     0.0000220     0.0076380
  C       -1.1718640    -1.2038970     0.0054270
  C        0.2221720    -1.2072360    -0.0096460
  H        2.7834502     0.8087414     0.3361978
  H        2.7627430    -0.8301660     0.3152910
  H        0.7657540     2.1507970    -0.0162340
  H       -1.7067870     2.1509120     0.0059600
  H       -2.9656380    -0.0000200     0.0197930
  H       -1.7069100    -2.1508590     0.0059040
  H        0.7657150    -2.1507810    -0.0159610
units angstrom
no_reorient  #important for SAPT in psi4, default
symmetry c1  #important for SAPT in psi4, default
}

set PROPERTIES_ORIGIN ["COM"]
properties('MP2/aug-cc-pvtz', properties = ['dipole'])
--------------------------------------------------------------------------

    Molecular point group: c1
  Charge       = 0
  Multiplicity = 1
  Basis Set: AUG-CC-PVTZ
    Blend: AUG-CC-PVTZ
  Basis Set: (AUG-CC-PVTZ AUX)
    Blend: AUG-CC-PVTZ-JKFIT

    Orbital Energies [Eh]
    ---------------------

    Doubly Occupied:

       1A    -15.567216     2A    -11.278882     3A    -11.237220
       4A    -11.237129     5A    -11.226378     6A    -11.226158
       7A    -11.222118     8A     -1.221822     9A     -1.125684
      10A     -1.011330    11A     -0.985520    12A     -0.830625
      13A     -0.811472    14A     -0.703227    15A     -0.677793
      16A     -0.654463    17A     -0.597896    18A     -0.590466
      19A     -0.580335    20A     -0.534129    21A     -0.506080
      22A     -0.489039    23A     -0.450058    24A     -0.336653
      25A     -0.298283

  @DF-RHF Final Energy:  -285.83404448548879

   => Energetics <=

    Nuclear Repulsion Energy =            270.9167981266494962
    One-Electron Energy =                -922.7017362830230240
    Two-Electron Energy =                 365.9508936708847386
    Total Energy =                       -285.8340444854887892
  Basis Set: (AUG-CC-PVTZ AUX)
    Blend: AUG-CC-PVTZ-RI
    Molecular point group: c1

    Geometry (in Angstrom), charge = 0, multiplicity = 1:

       Center              X                  Y                   Z               Mass
    ------------   -----------------  -----------------  -----------------  -----------------
         N            2.346908663595     0.000261869966    -0.081775227965    14.003074004430
         C            0.942371663595     0.000224869966     0.005171772035    12.000000000000
         C            0.229152663595     1.207454869966    -0.003136227965    12.000000000000
         C           -1.164908336405     1.204124869966     0.011911772035    12.000000000000
         C           -1.872152336405     0.000243869966     0.014156772035    12.000000000000
         C           -1.164940336405    -1.203675130034     0.011945772035    12.000000000000
         C            0.229095663595    -1.207014130034    -0.003127227965    12.000000000000
         H            2.790373863595     0.808963269966     0.342716572035     1.007825032230
         H            2.769666663595    -0.829944130034     0.321809772035     1.007825032230
         H            0.772677663595     2.151018869966    -0.009715227965     1.007825032230
         H           -1.699863336405     2.151133869966     0.012478772035     1.007825032230
         H           -2.958714336405     0.000201869966     0.026311772035     1.007825032230
         H           -1.699986336405    -2.150637130034     0.012422772035     1.007825032230
         H            0.772638663595    -2.150559130034    -0.009442227965     1.007825032230

  Basis Set: AUG-CC-PVTZ
    Blend: AUG-CC-PVTZ
  Basis Set: (AUG-CC-PVTZ AUX)
    Blend: AUG-CC-PVTZ-JKFIT
	 Reference Energy          =    -285.8340444854887892 [Eh]
	 Singles Energy            =      -0.0000000000000000 [Eh]
	 Same-Spin Energy          =      -0.3154406818052060 [Eh]
	 Opposite-Spin Energy      =      -0.9943096859201691 [Eh]
	 Correlation Energy        =      -1.3097503677253750 [Eh]
	 Total Energy              =    -287.1437948532141604 [Eh]

	 ================> DF-SCS-MP2 Energies <==================
	-----------------------------------------------------------
	 SCS Same-Spin Scale       =       0.3333333333333333 [-]
	 SCS Opposite-Spin Scale   =       1.2000000000000000 [-]
	 SCS Same-Spin Energy      =      -0.1051468939350687 [Eh]
	 SCS Opposite-Spin Energy  =      -1.1931716231042029 [Eh]
	 SCS Correlation Energy    =      -1.2983185170392715 [Eh]
	 SCS Total Energy          =    -287.1323630025280522 [Eh]
	-----------------------------------------------------------

  Dipole Moment: [D]
     X:     0.9556      Y:    -0.0139      Z:     1.0987     Total:     1.4562

*** Psi4 exiting successfully. Buy a developer a beer!
