                               Psi4 1.3.2 release

  ==> Input File <==

--------------------------------------------------------------------------
#psi4
#
memory 32 gb

molecule  {
0 1
  N        2.3389966     0.0491053    -0.0903649
  C        0.9354480     0.0000030    -0.0013470
  C        0.2222290     1.2072330    -0.0096550
  C       -1.1718320     1.2039030     0.0053930
  C       -1.8790760     0.0000220     0.0076380
  C       -1.1718640    -1.2038970     0.0054270
  C        0.2221720    -1.2072360    -0.0096460
  H        2.7627720     0.8296730     0.3164440
  H        2.7627430    -0.8301660     0.3152910
  H        0.7657540     2.1507970    -0.0162340
  H       -1.7067870     2.1509120     0.0059600
  H       -2.9656380    -0.0000200     0.0197930
  H       -1.7069100    -2.1508590     0.0059040
  H        0.7657150    -2.1507810    -0.0159610
units angstrom
no_reorient  #important for SAPT in psi4, default
symmetry c1  #important for SAPT in psi4, default
}

set PROPERTIES_ORIGIN ["COM"]
properties('MP2/aug-cc-pvtz', properties = ['dipole'])
--------------------------------------------------------------------------

    Molecular point group: c1
  Charge       = 0
  Multiplicity = 1
  Basis Set: AUG-CC-PVTZ
    Blend: AUG-CC-PVTZ
  Basis Set: (AUG-CC-PVTZ AUX)
    Blend: AUG-CC-PVTZ-JKFIT

    Orbital Energies [Eh]
    ---------------------

    Doubly Occupied:

       1A    -15.567521     2A    -11.278840     3A    -11.237673
       4A    -11.236804     5A    -11.227248     6A    -11.225240
       7A    -11.222049     8A     -1.222310     9A     -1.125710
      10A     -1.011396    11A     -0.985427    12A     -0.830941
      13A     -0.811468    14A     -0.704689    15A     -0.679055
      16A     -0.653107    17A     -0.599746    18A     -0.587981
      19A     -0.579976    20A     -0.534242    21A     -0.505931
      22A     -0.488895    23A     -0.450037    24A     -0.336735
      25A     -0.298074

  @DF-RHF Final Energy:  -285.83080604572808

   => Energetics <=

    Nuclear Repulsion Energy =            270.9582006071740352
    One-Electron Energy =                -922.7758245703771536
    Two-Electron Energy =                 365.9868179174750367
    Total Energy =                       -285.8308060457280817
  Basis Set: (AUG-CC-PVTZ AUX)
    Blend: AUG-CC-PVTZ-RI
    Molecular point group: c1

    Geometry (in Angstrom), charge = 0, multiplicity = 1:

       Center              X                  Y                   Z               Mass
    ------------   -----------------  -----------------  -----------------  -----------------
         N            2.346292941947     0.041717275440    -0.083320569504    14.003074004430
         C            0.942744341947    -0.007385024560     0.005697330496    12.000000000000
         C            0.229525341947     1.199844975440    -0.002610669504    12.000000000000
         C           -1.164535658053     1.196514975440     0.012437330496    12.000000000000
         C           -1.871779658053    -0.007366024560     0.014682330496    12.000000000000
         C           -1.164567658053    -1.211285024560     0.012471330496    12.000000000000
         C            0.229468341947    -1.214624024560    -0.002601669504    12.000000000000
         H            2.770068341947     0.822284975440     0.323488330496     1.007825032230
         H            2.770039341947    -0.837554024560     0.322335330496     1.007825032230
         H            0.773050341947     2.143408975440    -0.009189669504     1.007825032230
         H           -1.699490658053     2.143523975440     0.013004330496     1.007825032230
         H           -2.958341658053    -0.007408024560     0.026837330496     1.007825032230
         H           -1.699613658053    -2.158247024560     0.012948330496     1.007825032230
         H            0.773011341947    -2.158169024560    -0.008916669504     1.007825032230

  Basis Set: AUG-CC-PVTZ
    Blend: AUG-CC-PVTZ
  Basis Set: (AUG-CC-PVTZ AUX)
    Blend: AUG-CC-PVTZ-JKFIT
	 Reference Energy          =    -285.8308060457280817 [Eh]
	 Singles Energy            =      -0.0000000000000000 [Eh]
	 Same-Spin Energy          =      -0.3155050052247236 [Eh]
	 Opposite-Spin Energy      =      -0.9944989454189122 [Eh]
	 Correlation Energy        =      -1.3100039506436358 [Eh]
	 Total Energy              =    -287.1408099963717291 [Eh]

	 ================> DF-SCS-MP2 Energies <==================
	-----------------------------------------------------------
	 SCS Same-Spin Scale       =       0.3333333333333333 [-]
	 SCS Opposite-Spin Scale   =       1.2000000000000000 [-]
	 SCS Same-Spin Energy      =      -0.1051683350749079 [Eh]
	 SCS Opposite-Spin Energy  =      -1.1933987345026946 [Eh]
	 SCS Correlation Energy    =      -1.2985670695776026 [Eh]
	 SCS Total Energy          =    -287.1293731153056683 [Eh]
	-----------------------------------------------------------

  Dipole Moment: [D]
     X:     0.9485      Y:    -0.0366      Z:     1.0803     Total:     1.4381

*** Psi4 exiting successfully. Buy a developer a beer!
