                               Psi4 1.3.2 release

  ==> Input File <==

--------------------------------------------------------------------------
#psi4
#
memory 32 gb

molecule  {
0 1
  N        2.3399850     0.0000400    -0.0882940
  C        0.9354480     0.0000030    -0.0013470
  C        0.2222290     1.2072330    -0.0096550
  C       -1.1718320     1.2039030     0.0053930
  C       -1.8790760     0.0000220     0.0076380
  C       -1.1718640    -1.2038970     0.0054270
  C        0.2221720    -1.2072360    -0.0096460
  H        2.7522381     0.8397613     0.3063807
  H        2.7627430    -0.8301660     0.3152910
  H        0.7657540     2.1507970    -0.0162340
  H       -1.7067870     2.1509120     0.0059600
  H       -2.9656380    -0.0000200     0.0197930
  H       -1.7069100    -2.1508590     0.0059040
  H        0.7657150    -2.1507810    -0.0159610
units angstrom
no_reorient  #important for SAPT in psi4, default
symmetry c1  #important for SAPT in psi4, default
}

set PROPERTIES_ORIGIN ["COM"]
properties('MP2/aug-cc-pvtz', properties = ['dipole'])
--------------------------------------------------------------------------

    Molecular point group: c1
  Charge       = 0
  Multiplicity = 1
  Basis Set: AUG-CC-PVTZ
    Blend: AUG-CC-PVTZ
  Basis Set: (AUG-CC-PVTZ AUX)
    Blend: AUG-CC-PVTZ-JKFIT

    Orbital Energies [Eh]
    ---------------------

    Doubly Occupied:

       1A    -15.567344     2A    -11.278578     3A    -11.237228
       4A    -11.237173     5A    -11.226114     6A    -11.226010
       7A    -11.221842     8A     -1.222036     9A     -1.125452
      10A     -1.011316    11A     -0.984911    12A     -0.831076
      13A     -0.810566    14A     -0.701997    15A     -0.681849
      16A     -0.653464    17A     -0.596957    18A     -0.591825
      19A     -0.580600    20A     -0.534054    21A     -0.505857
      22A     -0.489139    23A     -0.449726    24A     -0.336680
      25A     -0.297697

  @DF-RHF Final Energy:  -285.83414874049782

   => Energetics <=

    Nuclear Repulsion Energy =            270.9664412429595473
    One-Electron Energy =                -922.8021968412723481
    Two-Electron Energy =                 366.0016068578149202
    Total Energy =                       -285.8341487404978238
  Basis Set: (AUG-CC-PVTZ AUX)
    Blend: AUG-CC-PVTZ-RI
    Molecular point group: c1

    Geometry (in Angstrom), charge = 0, multiplicity = 1:

       Center              X                  Y                   Z               Mass
    ------------   -----------------  -----------------  -----------------  -----------------
         N            2.347246693497    -0.000074078393    -0.081452306041    14.003074004430
         C            0.942709693497    -0.000111078393     0.005494693959    12.000000000000
         C            0.229490693497     1.207118921607    -0.002813306041    12.000000000000
         C           -1.164570306503     1.203788921607     0.012234693959    12.000000000000
         C           -1.871814306503    -0.000092078393     0.014479693959    12.000000000000
         C           -1.164602306503    -1.204011078393     0.012268693959    12.000000000000
         C            0.229433693497    -1.207350078393    -0.002804306041    12.000000000000
         H            2.759499793497     0.839647221607     0.313222393959     1.007825032230
         H            2.770004693497    -0.830280078393     0.322132693959     1.007825032230
         H            0.773015693497     2.150682921607    -0.009392306041     1.007825032230
         H           -1.699525306503     2.150797921607     0.012801693959     1.007825032230
         H           -2.958376306503    -0.000134078393     0.026634693959     1.007825032230
         H           -1.699648306503    -2.150973078393     0.012745693959     1.007825032230
         H            0.772976693497    -2.150895078393    -0.009119306041     1.007825032230

  Basis Set: AUG-CC-PVTZ
    Blend: AUG-CC-PVTZ
  Basis Set: (AUG-CC-PVTZ AUX)
    Blend: AUG-CC-PVTZ-JKFIT
	 Reference Energy          =    -285.8341487404978238 [Eh]
	 Singles Energy            =      -0.0000000000000000 [Eh]
	 Same-Spin Energy          =      -0.3154677607849226 [Eh]
	 Opposite-Spin Energy      =      -0.9943139863007228 [Eh]
	 Correlation Energy        =      -1.3097817470856454 [Eh]
	 Total Energy              =    -287.1439304875834750 [Eh]

	 ================> DF-SCS-MP2 Energies <==================
	-----------------------------------------------------------
	 SCS Same-Spin Scale       =       0.3333333333333333 [-]
	 SCS Opposite-Spin Scale   =       1.2000000000000000 [-]
	 SCS Same-Spin Energy      =      -0.1051559202616409 [Eh]
	 SCS Opposite-Spin Energy  =      -1.1931767835608673 [Eh]
	 SCS Correlation Energy    =      -1.2983327038225081 [Eh]
	 SCS Total Energy          =    -287.1324814443203195 [Eh]
	-----------------------------------------------------------

  Dipole Moment: [D]
     X:     0.9605      Y:     0.0054      Z:     1.0649     Total:     1.4341

*** Psi4 exiting successfully. Buy a developer a beer!
