                               Psi4 1.3.2 release

  ==> Input File <==

--------------------------------------------------------------------------
#psi4
#
memory 32 gb

molecule  {
0 1
  N        2.3399850     0.0000400    -0.0882940
  C        0.9360802    -0.0871454    -0.0466515
  C        0.2222290     1.2072330    -0.0096550
  C       -1.1718320     1.2039030     0.0053930
  C       -1.8790760     0.0000220     0.0076380
  C       -1.1718640    -1.2038970     0.0054270
  C        0.2221720    -1.2072360    -0.0096460
  H        2.7627720     0.8296730     0.3164440
  H        2.7627430    -0.8301660     0.3152910
  H        0.7657540     2.1507970    -0.0162340
  H       -1.7067870     2.1509120     0.0059600
  H       -2.9656380    -0.0000200     0.0197930
  H       -1.7069100    -2.1508590     0.0059040
  H        0.7657150    -2.1507810    -0.0159610
units angstrom
no_reorient  #important for SAPT in psi4, default
symmetry c1  #important for SAPT in psi4, default
}

set PROPERTIES_ORIGIN ["COM"]
properties('MP2/aug-cc-pvtz', properties = ['dipole'])
--------------------------------------------------------------------------

    Molecular point group: c1
  Charge       = 0
  Multiplicity = 1
  Basis Set: AUG-CC-PVTZ
    Blend: AUG-CC-PVTZ
  Basis Set: (AUG-CC-PVTZ AUX)
    Blend: AUG-CC-PVTZ-JKFIT

    Orbital Energies [Eh]
    ---------------------

    Doubly Occupied:

       1A    -15.566593     2A    -11.278185     3A    -11.238116
       4A    -11.236252     5A    -11.233747     6A    -11.222367
       7A    -11.217135     8A     -1.221194     9A     -1.125975
      10A     -1.015741    11A     -0.982813    12A     -0.833615
      13A     -0.807270    14A     -0.703890    15A     -0.679186
      16A     -0.656535    17A     -0.605703    18A     -0.583534
      19A     -0.579168    20A     -0.534443    21A     -0.509695
      22A     -0.482020    23A     -0.448064    24A     -0.339305
      25A     -0.296884

  @DF-RHF Final Energy:  -285.82439184413494

   => Energetics <=

    Nuclear Repulsion Energy =            270.9739653468221832
    One-Electron Energy =                -922.8018522686651295
    Two-Electron Energy =                 366.0034950777080098
    Total Energy =                       -285.8243918441349365
  Basis Set: (AUG-CC-PVTZ AUX)
    Blend: AUG-CC-PVTZ-RI
    Molecular point group: c1

    Geometry (in Angstrom), charge = 0, multiplicity = 1:

       Center              X                  Y                   Z               Mass
    ------------   -----------------  -----------------  -----------------  -----------------
         N            2.347051086912     0.011273143254    -0.075719184560    14.003074004430
         C            0.943146286912    -0.075912256746    -0.034076684560    12.000000000000
         C            0.229295086912     1.218466143254     0.002919815440    12.000000000000
         C           -1.164765913088     1.215136143254     0.017967815440    12.000000000000
         C           -1.872009913088     0.011255143254     0.020212815440    12.000000000000
         C           -1.164797913088    -1.192663856746     0.018001815440    12.000000000000
         C            0.229238086912    -1.196002856746     0.002928815440    12.000000000000
         H            2.769838086912     0.840906143254     0.329018815440     1.007825032230
         H            2.769809086912    -0.818932856746     0.327865815440     1.007825032230
         H            0.772820086912     2.162030143254    -0.003659184560     1.007825032230
         H           -1.699720913088     2.162145143254     0.018534815440     1.007825032230
         H           -2.958571913088     0.011213143254     0.032367815440     1.007825032230
         H           -1.699843913088    -2.139625856746     0.018478815440     1.007825032230
         H            0.772781086912    -2.139547856746    -0.003386184560     1.007825032230

  Basis Set: AUG-CC-PVTZ
    Blend: AUG-CC-PVTZ
  Basis Set: (AUG-CC-PVTZ AUX)
    Blend: AUG-CC-PVTZ-JKFIT
	 Reference Energy          =    -285.8243918441349365 [Eh]
	 Singles Energy            =      -0.0000000000000000 [Eh]
	 Same-Spin Energy          =      -0.3152146557976724 [Eh]
	 Opposite-Spin Energy      =      -0.9946525325643631 [Eh]
	 Correlation Energy        =      -1.3098671883620354 [Eh]
	 Total Energy              =    -287.1342590324969706 [Eh]

	 ================> DF-SCS-MP2 Energies <==================
	-----------------------------------------------------------
	 SCS Same-Spin Scale       =       0.3333333333333333 [-]
	 SCS Opposite-Spin Scale   =       1.2000000000000000 [-]
	 SCS Same-Spin Energy      =      -0.1050715519325575 [Eh]
	 SCS Opposite-Spin Energy  =      -1.1935830390772357 [Eh]
	 SCS Correlation Energy    =      -1.2986545910097931 [Eh]
	 SCS Total Energy          =    -287.1230464351447154 [Eh]
	-----------------------------------------------------------

  Dipole Moment: [D]
     X:     0.9427      Y:     0.0288      Z:     1.0762     Total:     1.4309

*** Psi4 exiting successfully. Buy a developer a beer!
