                               Psi4 1.3.2 release

  ==> Input File <==

--------------------------------------------------------------------------
#psi4
#
memory 32 gb

molecule  {
0 1
  N        2.3318931     0.1469968    -0.0941789
  C        0.9354480     0.0000030    -0.0013470
  C        0.2222290     1.2072330    -0.0096550
  C       -1.1718320     1.2039030     0.0053930
  C       -1.8790760     0.0000220     0.0076380
  C       -1.1718640    -1.2038970     0.0054270
  C        0.2221720    -1.2072360    -0.0096460
  H        2.7627720     0.8296730     0.3164440
  H        2.7627430    -0.8301660     0.3152910
  H        0.7657540     2.1507970    -0.0162340
  H       -1.7067870     2.1509120     0.0059600
  H       -2.9656380    -0.0000200     0.0197930
  H       -1.7069100    -2.1508590     0.0059040
  H        0.7657150    -2.1507810    -0.0159610
units angstrom
no_reorient  #important for SAPT in psi4, default
symmetry c1  #important for SAPT in psi4, default
}

set PROPERTIES_ORIGIN ["COM"]
properties('MP2/aug-cc-pvtz', properties = ['dipole'])
--------------------------------------------------------------------------

    Molecular point group: c1
  Charge       = 0
  Multiplicity = 1
  Basis Set: AUG-CC-PVTZ
    Blend: AUG-CC-PVTZ
  Basis Set: (AUG-CC-PVTZ AUX)
    Blend: AUG-CC-PVTZ-JKFIT

    Orbital Energies [Eh]
    ---------------------

    Doubly Occupied:

       1A    -15.568088     2A    -11.280345     3A    -11.238838
       4A    -11.236265     5A    -11.229953     6A    -11.224023
       7A    -11.222730     8A     -1.225565     9A     -1.127248
      10A     -1.011907    11A     -0.988147    12A     -0.831188
      13A     -0.816389    14A     -0.716273    15A     -0.675436
      16A     -0.648888    17A     -0.605753    18A     -0.583379
      19A     -0.568654    20A     -0.535178    21A     -0.506049
      22A     -0.486947    23A     -0.451065    24A     -0.337182
      25A     -0.299009

  @DF-RHF Final Energy:  -285.80488480879831

   => Energetics <=

    Nuclear Repulsion Energy =            271.0599996558408975
    One-Electron Energy =                -922.9007710722418096
    Two-Electron Energy =                 366.0358866076026061
    Total Energy =                       -285.8048848087983060
  Basis Set: (AUG-CC-PVTZ AUX)
    Blend: AUG-CC-PVTZ-RI
    Molecular point group: c1

    Geometry (in Angstrom), charge = 0, multiplicity = 1:

       Center              X                  Y                   Z               Mass
    ------------   -----------------  -----------------  -----------------  -----------------
         N            2.340258355929     0.124878347752    -0.086560649897    14.003074004430
         C            0.943813255929    -0.022115452248     0.006271250103    12.000000000000
         C            0.230594255929     1.185114547752    -0.002036749897    12.000000000000
         C           -1.163466744071     1.181784547752     0.013011250103    12.000000000000
         C           -1.870710744071    -0.022096452248     0.015256250103    12.000000000000
         C           -1.163498744071    -1.226015452248     0.013045250103    12.000000000000
         C            0.230537255929    -1.229354452248    -0.002027749897    12.000000000000
         H            2.771137255929     0.807554547752     0.324062250103     1.007825032230
         H            2.771108255929    -0.852284452248     0.322909250103     1.007825032230
         H            0.774119255929     2.128678547752    -0.008615749897     1.007825032230
         H           -1.698421744071     2.128793547752     0.013578250103     1.007825032230
         H           -2.957272744071    -0.022138452248     0.027411250103     1.007825032230
         H           -1.698544744071    -2.172977452248     0.013522250103     1.007825032230
         H            0.774080255929    -2.172899452248    -0.008342749897     1.007825032230

  Basis Set: AUG-CC-PVTZ
    Blend: AUG-CC-PVTZ
  Basis Set: (AUG-CC-PVTZ AUX)
    Blend: AUG-CC-PVTZ-JKFIT
	 Reference Energy          =    -285.8048848087983060 [Eh]
	 Singles Energy            =      -0.0000000000000000 [Eh]
	 Same-Spin Energy          =      -0.3158336247749515 [Eh]
	 Opposite-Spin Energy      =      -0.9957858068115085 [Eh]
	 Correlation Energy        =      -1.3116194315864600 [Eh]
	 Total Energy              =    -287.1165042403847565 [Eh]

	 ================> DF-SCS-MP2 Energies <==================
	-----------------------------------------------------------
	 SCS Same-Spin Scale       =       0.3333333333333333 [-]
	 SCS Opposite-Spin Scale   =       1.2000000000000000 [-]
	 SCS Same-Spin Energy      =      -0.1052778749249838 [Eh]
	 SCS Opposite-Spin Energy  =      -1.1949429681738102 [Eh]
	 SCS Correlation Energy    =      -1.3002208430987940 [Eh]
	 SCS Total Energy          =    -287.1051056518970768 [Eh]
	-----------------------------------------------------------

  Dipole Moment: [D]
     X:     0.8869      Y:    -0.1050      Z:     1.0900     Total:     1.4091

*** Psi4 exiting successfully. Buy a developer a beer!
