                               Psi4 1.3.2 release

  ==> Input File <==

--------------------------------------------------------------------------
#psi4
#
memory 32 gb

molecule  {
0 1
  N        2.3399850     0.0000400    -0.0882940
  C        0.9473217     0.1305932     0.0657471
  C        0.2222290     1.2072330    -0.0096550
  C       -1.1718320     1.2039030     0.0053930
  C       -1.8790760     0.0000220     0.0076380
  C       -1.1718640    -1.2038970     0.0054270
  C        0.2221720    -1.2072360    -0.0096460
  H        2.7627720     0.8296730     0.3164440
  H        2.7627430    -0.8301660     0.3152910
  H        0.7657540     2.1507970    -0.0162340
  H       -1.7067870     2.1509120     0.0059600
  H       -2.9656380    -0.0000200     0.0197930
  H       -1.7069100    -2.1508590     0.0059040
  H        0.7657150    -2.1507810    -0.0159610
units angstrom
no_reorient  #important for SAPT in psi4, default
symmetry c1  #important for SAPT in psi4, default
}

set PROPERTIES_ORIGIN ["COM"]
properties('MP2/aug-cc-pvtz', properties = ['dipole'])
--------------------------------------------------------------------------

    Molecular point group: c1
  Charge       = 0
  Multiplicity = 1
  Basis Set: AUG-CC-PVTZ
    Blend: AUG-CC-PVTZ
  Basis Set: (AUG-CC-PVTZ AUX)
    Blend: AUG-CC-PVTZ-JKFIT

    Orbital Energies [Eh]
    ---------------------

    Doubly Occupied:

       1A    -15.568549     2A    -11.276651     3A    -11.238065
       4A    -11.237830     5A    -11.234939     6A    -11.223543
       7A    -11.213829     8A     -1.223435     9A     -1.126543
      10A     -1.019399    11A     -0.980059    12A     -0.835306
      13A     -0.802551    14A     -0.703000    15A     -0.679360
      16A     -0.657401    17A     -0.608641    18A     -0.582406
      19A     -0.573824    20A     -0.535907    21A     -0.511317
      22A     -0.472614    23A     -0.451085    24A     -0.341679
      25A     -0.296357

  @DF-RHF Final Energy:  -285.81048727885957

   => Energetics <=

    Nuclear Repulsion Energy =            270.8458160091118998
    One-Electron Energy =                -922.5240279405854835
    Two-Electron Energy =                 365.8677246526140152
    Total Energy =                       -285.8104872788595685
  Basis Set: (AUG-CC-PVTZ AUX)
    Blend: AUG-CC-PVTZ-RI
    Molecular point group: c1

    Geometry (in Angstrom), charge = 0, multiplicity = 1:

       Center              X                  Y                   Z               Mass
    ------------   -----------------  -----------------  -----------------  -----------------
         N            2.345601472493    -0.016804694581    -0.090213213932    14.003074004430
         C            0.952938172493     0.113748505419     0.063827886068    12.000000000000
         C            0.227845472493     1.190388305419    -0.011574213932    12.000000000000
         C           -1.166215527507     1.187058305419     0.003473786068    12.000000000000
         C           -1.873459527507    -0.016822694581     0.005718786068    12.000000000000
         C           -1.166247527507    -1.220741694581     0.003507786068    12.000000000000
         C            0.227788472493    -1.224080694581    -0.011565213932    12.000000000000
         H            2.768388472493     0.812828305419     0.314524786068     1.007825032230
         H            2.768359472493    -0.847010694581     0.313371786068     1.007825032230
         H            0.771370472493     2.133952305419    -0.018153213932     1.007825032230
         H           -1.701170527507     2.134067305419     0.004040786068     1.007825032230
         H           -2.960021527507    -0.016864694581     0.017873786068     1.007825032230
         H           -1.701293527507    -2.167703694581     0.003984786068     1.007825032230
         H            0.771331472493    -2.167625694581    -0.017880213932     1.007825032230

  Basis Set: AUG-CC-PVTZ
    Blend: AUG-CC-PVTZ
  Basis Set: (AUG-CC-PVTZ AUX)
    Blend: AUG-CC-PVTZ-JKFIT
	 Reference Energy          =    -285.8104872788595685 [Eh]
	 Singles Energy            =      -0.0000000000000000 [Eh]
	 Same-Spin Energy          =      -0.3152121864077879 [Eh]
	 Opposite-Spin Energy      =      -0.9958978565183780 [Eh]
	 Correlation Energy        =      -1.3111100429261660 [Eh]
	 Total Energy              =    -287.1215973217857140 [Eh]

	 ================> DF-SCS-MP2 Energies <==================
	-----------------------------------------------------------
	 SCS Same-Spin Scale       =       0.3333333333333333 [-]
	 SCS Opposite-Spin Scale   =       1.2000000000000000 [-]
	 SCS Same-Spin Energy      =      -0.1050707288025960 [Eh]
	 SCS Opposite-Spin Energy  =      -1.1950774278220535 [Eh]
	 SCS Correlation Energy    =      -1.3001481566246496 [Eh]
	 SCS Total Energy          =    -287.1106354354841983 [Eh]
	-----------------------------------------------------------

  Dipole Moment: [D]
     X:     0.9519      Y:    -0.0387      Z:     1.0770     Total:     1.4379

*** Psi4 exiting successfully. Buy a developer a beer!
