                               Psi4 1.3.2 release

  ==> Input File <==

--------------------------------------------------------------------------
#psi4
#
memory 32 gb

molecule  {
0 1
  N        2.3399850     0.0000400    -0.0882940
  C        0.9354480     0.0000030    -0.0013470
  C        0.2222290     1.2072330    -0.0096550
  C       -1.1718320     1.2039030     0.0053930
  C       -1.8790760     0.0000220     0.0076380
  C       -1.1718640    -1.2038970     0.0054270
  C        0.2221720    -1.2072360    -0.0096460
  H        2.8460544     0.9930977     0.3961710
  H        2.7627430    -0.8301660     0.3152910
  H        0.7657540     2.1507970    -0.0162340
  H       -1.7067870     2.1509120     0.0059600
  H       -2.9656380    -0.0000200     0.0197930
  H       -1.7069100    -2.1508590     0.0059040
  H        0.7657150    -2.1507810    -0.0159610
units angstrom
no_reorient  #important for SAPT in psi4, default
symmetry c1  #important for SAPT in psi4, default
}

set PROPERTIES_ORIGIN ["COM"]
properties('MP2/aug-cc-pvtz', properties = ['dipole'])
--------------------------------------------------------------------------

    Molecular point group: c1
  Charge       = 0
  Multiplicity = 1
  Basis Set: AUG-CC-PVTZ
    Blend: AUG-CC-PVTZ
  Basis Set: (AUG-CC-PVTZ AUX)
    Blend: AUG-CC-PVTZ-JKFIT

    Orbital Energies [Eh]
    ---------------------

    Doubly Occupied:

       1A    -15.585042     2A    -11.278985     3A    -11.237335
       4A    -11.236974     5A    -11.226742     6A    -11.225825
       7A    -11.221920     8A     -1.208379     9A     -1.120323
      10A     -1.011208    11A     -0.979306    12A     -0.829448
      13A     -0.806611    14A     -0.700246    15A     -0.661698
      16A     -0.645647    17A     -0.596334    18A     -0.583507
      19A     -0.566962    20A     -0.533121    21A     -0.505536
      22A     -0.488228    23A     -0.448068    24A     -0.336648
      25A     -0.296939

  @DF-RHF Final Energy:  -285.80523027782851

   => Energetics <=

    Nuclear Repulsion Energy =            270.0544879583526949
    One-Electron Energy =                -921.0573715150089811
    Two-Electron Energy =                 365.1976532788278291
    Total Energy =                       -285.8052302778285139
  Basis Set: (AUG-CC-PVTZ AUX)
    Blend: AUG-CC-PVTZ-RI
    Molecular point group: c1

    Geometry (in Angstrom), charge = 0, multiplicity = 1:

       Center              X                  Y                   Z               Mass
    ------------   -----------------  -----------------  -----------------  -----------------
         N            2.346230654373    -0.001734725652    -0.082424743216    14.003074004430
         C            0.941693654373    -0.001771725652     0.004522256784    12.000000000000
         C            0.228474654373     1.205458274348    -0.003785743216    12.000000000000
         C           -1.165586345627     1.202128274348     0.011262256784    12.000000000000
         C           -1.872830345627    -0.001752725652     0.013507256784    12.000000000000
         C           -1.165618345627    -1.205671725652     0.011296256784    12.000000000000
         C            0.228417654373    -1.209010725652    -0.003776743216    12.000000000000
         H            2.852300054373     0.991322974348     0.402040256784     1.007825032230
         H            2.768988654373    -0.831940725652     0.321160256784     1.007825032230
         H            0.771999654373     2.149022274348    -0.010364743216     1.007825032230
         H           -1.700541345627     2.149137274348     0.011829256784     1.007825032230
         H           -2.959392345627    -0.001794725652     0.025662256784     1.007825032230
         H           -1.700664345627    -2.152633725652     0.011773256784     1.007825032230
         H            0.771960654373    -2.152555725652    -0.010091743216     1.007825032230

  Basis Set: AUG-CC-PVTZ
    Blend: AUG-CC-PVTZ
  Basis Set: (AUG-CC-PVTZ AUX)
    Blend: AUG-CC-PVTZ-JKFIT
	 Reference Energy          =    -285.8052302778285139 [Eh]
	 Singles Energy            =      -0.0000000000000000 [Eh]
	 Same-Spin Energy          =      -0.3166170032780746 [Eh]
	 Opposite-Spin Energy      =      -0.9982445974892455 [Eh]
	 Correlation Energy        =      -1.3148616007673202 [Eh]
	 Total Energy              =    -287.1200918785958152 [Eh]

	 ================> DF-SCS-MP2 Energies <==================
	-----------------------------------------------------------
	 SCS Same-Spin Scale       =       0.3333333333333333 [-]
	 SCS Opposite-Spin Scale   =       1.2000000000000000 [-]
	 SCS Same-Spin Energy      =      -0.1055390010926915 [Eh]
	 SCS Opposite-Spin Energy  =      -1.1978935169870946 [Eh]
	 SCS Correlation Energy    =      -1.3034325180797861 [Eh]
	 SCS Total Energy          =    -287.1086627959082875 [Eh]
	-----------------------------------------------------------

  Dipole Moment: [D]
     X:     0.9685      Y:     0.0739      Z:     1.0999     Total:     1.4674

*** Psi4 exiting successfully. Buy a developer a beer!
