                               Psi4 1.3.2 release

  ==> Input File <==

--------------------------------------------------------------------------
#psi4
#
memory 32 gb

molecule  {
0 1
  N        2.3362982     0.0981108    -0.0923273
  C        0.9354480     0.0000030    -0.0013470
  C        0.2222290     1.2072330    -0.0096550
  C       -1.1718320     1.2039030     0.0053930
  C       -1.8790760     0.0000220     0.0076380
  C       -1.1718640    -1.2038970     0.0054270
  C        0.2221720    -1.2072360    -0.0096460
  H        2.7627720     0.8296730     0.3164440
  H        2.7627430    -0.8301660     0.3152910
  H        0.7657540     2.1507970    -0.0162340
  H       -1.7067870     2.1509120     0.0059600
  H       -2.9656380    -0.0000200     0.0197930
  H       -1.7069100    -2.1508590     0.0059040
  H        0.7657150    -2.1507810    -0.0159610
units angstrom
no_reorient  #important for SAPT in psi4, default
symmetry c1  #important for SAPT in psi4, default
}

set PROPERTIES_ORIGIN ["COM"]
properties('MP2/aug-cc-pvtz', properties = ['dipole'])
--------------------------------------------------------------------------

    Molecular point group: c1
  Charge       = 0
  Multiplicity = 1
  Basis Set: AUG-CC-PVTZ
    Blend: AUG-CC-PVTZ
  Basis Set: (AUG-CC-PVTZ AUX)
    Blend: AUG-CC-PVTZ-JKFIT

    Orbital Energies [Eh]
    ---------------------

    Doubly Occupied:

       1A    -15.567765     2A    -11.279400     3A    -11.238224
       4A    -11.236496     5A    -11.228526     6A    -11.224539
       7A    -11.222316     8A     -1.223527     9A     -1.126295
      10A     -1.011594    11A     -0.986455    12A     -0.831030
      13A     -0.813341    14A     -0.710012    15A     -0.676935
      16A     -0.651275    17A     -0.603035    18A     -0.584237
      19A     -0.576490    20A     -0.534609    21A     -0.505974
      22A     -0.488221    23A     -0.450445    24A     -0.336907
      25A     -0.298447

  @DF-RHF Final Energy:  -285.82095576027967

   => Energetics <=

    Nuclear Repulsion Energy =            270.9954898715776608
    One-Electron Energy =                -922.8207044821790532
    Two-Electron Energy =                 366.0042588503217189
    Total Energy =                       -285.8209557602796735
  Basis Set: (AUG-CC-PVTZ AUX)
    Blend: AUG-CC-PVTZ-RI
    Molecular point group: c1

    Geometry (in Angstrom), charge = 0, multiplicity = 1:

       Center              X                  Y                   Z               Mass
    ------------   -----------------  -----------------  -----------------  -----------------
         N            2.344000589316     0.083348570590    -0.084987673270    14.003074004430
         C            0.943150389316    -0.014759229410     0.005992626730    12.000000000000
         C            0.229931389316     1.192470770590    -0.002315373270    12.000000000000
         C           -1.164129610684     1.189140770590     0.012732626730    12.000000000000
         C           -1.871373610684    -0.014740229410     0.014977626730    12.000000000000
         C           -1.164161610684    -1.218659229410     0.012766626730    12.000000000000
         C            0.229874389316    -1.221998229410    -0.002306373270    12.000000000000
         H            2.770474389316     0.814910770590     0.323783626730     1.007825032230
         H            2.770445389316    -0.844928229410     0.322630626730     1.007825032230
         H            0.773456389316     2.136034770590    -0.008894373270     1.007825032230
         H           -1.699084610684     2.136149770590     0.013299626730     1.007825032230
         H           -2.957935610684    -0.014782229410     0.027132626730     1.007825032230
         H           -1.699207610684    -2.165621229410     0.013243626730     1.007825032230
         H            0.773417389316    -2.165543229410    -0.008621373270     1.007825032230

  Basis Set: AUG-CC-PVTZ
    Blend: AUG-CC-PVTZ
  Basis Set: (AUG-CC-PVTZ AUX)
    Blend: AUG-CC-PVTZ-JKFIT
	 Reference Energy          =    -285.8209557602796735 [Eh]
	 Singles Energy            =      -0.0000000000000000 [Eh]
	 Same-Spin Energy          =      -0.3156313623547146 [Eh]
	 Opposite-Spin Energy      =      -0.9949945448914810 [Eh]
	 Correlation Energy        =      -1.3106259072461954 [Eh]
	 Total Energy              =    -287.1315816675258930 [Eh]

	 ================> DF-SCS-MP2 Energies <==================
	-----------------------------------------------------------
	 SCS Same-Spin Scale       =       0.3333333333333333 [-]
	 SCS Opposite-Spin Scale   =       1.2000000000000000 [-]
	 SCS Same-Spin Energy      =      -0.1052104541182382 [Eh]
	 SCS Opposite-Spin Energy  =      -1.1939934538697772 [Eh]
	 SCS Correlation Energy    =      -1.2992039079880153 [Eh]
	 SCS Total Energy          =    -287.1201596682676609 [Eh]
	-----------------------------------------------------------

  Dipole Moment: [D]
     X:     0.9242      Y:    -0.0715      Z:     1.0849     Total:     1.4270

*** Psi4 exiting successfully. Buy a developer a beer!
