                               Psi4 1.3.2 release

  ==> Input File <==

--------------------------------------------------------------------------
#psi4
#
memory 32 gb

molecule  {
0 1
  N        2.3392622    -0.0490254    -0.0861172
  C        0.9354480     0.0000030    -0.0013470
  C        0.2222290     1.2072330    -0.0096550
  C       -1.1718320     1.2039030     0.0053930
  C       -1.8790760     0.0000220     0.0076380
  C       -1.1718640    -1.2038970     0.0054270
  C        0.2221720    -1.2072360    -0.0096460
  H        2.7627720     0.8296730     0.3164440
  H        2.7627430    -0.8301660     0.3152910
  H        0.7657540     2.1507970    -0.0162340
  H       -1.7067870     2.1509120     0.0059600
  H       -2.9656380    -0.0000200     0.0197930
  H       -1.7069100    -2.1508590     0.0059040
  H        0.7657150    -2.1507810    -0.0159610
units angstrom
no_reorient  #important for SAPT in psi4, default
symmetry c1  #important for SAPT in psi4, default
}

set PROPERTIES_ORIGIN ["COM"]
properties('MP2/aug-cc-pvtz', properties = ['dipole'])
--------------------------------------------------------------------------

    Molecular point group: c1
  Charge       = 0
  Multiplicity = 1
  Basis Set: AUG-CC-PVTZ
    Blend: AUG-CC-PVTZ
  Basis Set: (AUG-CC-PVTZ AUX)
    Blend: AUG-CC-PVTZ-JKFIT

    Orbital Energies [Eh]
    ---------------------

    Doubly Occupied:

       1A    -15.567103     2A    -11.278922     3A    -11.237652
       4A    -11.236783     5A    -11.227187     6A    -11.225189
       7A    -11.221965     8A     -1.222486     9A     -1.125759
      10A     -1.011362    11A     -0.985529    12A     -0.830966
      13A     -0.811566    14A     -0.704874    15A     -0.679750
      16A     -0.653150    17A     -0.599789    18A     -0.588236
      19A     -0.580078    20A     -0.534126    21A     -0.505974
      22A     -0.488902    23A     -0.449846    24A     -0.336713
      25A     -0.297895

  @DF-RHF Final Energy:  -285.83092446583328

   => Energetics <=

    Nuclear Repulsion Energy =            270.9699380989261499
    One-Electron Energy =                -922.7981252307255318
    Two-Electron Energy =                 365.9972626659661046
    Total Energy =                       -285.8309244658332773
  Basis Set: (AUG-CC-PVTZ AUX)
    Blend: AUG-CC-PVTZ-RI
    Molecular point group: c1

    Geometry (in Angstrom), charge = 0, multiplicity = 1:

       Center              X                  Y                   Z               Mass
    ------------   -----------------  -----------------  -----------------  -----------------
         N            2.346518575233    -0.041647002753    -0.079712051023    14.003074004430
         C            0.942704375233     0.007381397247     0.005058148977    12.000000000000
         C            0.229485375233     1.214611397247    -0.003249851023    12.000000000000
         C           -1.164575624767     1.211281397247     0.011798148977    12.000000000000
         C           -1.871819624767     0.007400397247     0.014043148977    12.000000000000
         C           -1.164607624767    -1.196518602753     0.011832148977    12.000000000000
         C            0.229428375233    -1.199857602753    -0.003240851023    12.000000000000
         H            2.770028375233     0.837051397247     0.322849148977     1.007825032230
         H            2.769999375233    -0.822787602753     0.321696148977     1.007825032230
         H            0.773010375233     2.158175397247    -0.009828851023     1.007825032230
         H           -1.699530624767     2.158290397247     0.012365148977     1.007825032230
         H           -2.958381624767     0.007358397247     0.026198148977     1.007825032230
         H           -1.699653624767    -2.143480602753     0.012309148977     1.007825032230
         H            0.772971375233    -2.143402602753    -0.009555851023     1.007825032230

  Basis Set: AUG-CC-PVTZ
    Blend: AUG-CC-PVTZ
  Basis Set: (AUG-CC-PVTZ AUX)
    Blend: AUG-CC-PVTZ-JKFIT
	 Reference Energy          =    -285.8309244658332773 [Eh]
	 Singles Energy            =      -0.0000000000000000 [Eh]
	 Same-Spin Energy          =      -0.3154835948207536 [Eh]
	 Opposite-Spin Energy      =      -0.9944236175955046 [Eh]
	 Correlation Energy        =      -1.3099072124162583 [Eh]
	 Total Energy              =    -287.1408316782495262 [Eh]

	 ================> DF-SCS-MP2 Energies <==================
	-----------------------------------------------------------
	 SCS Same-Spin Scale       =       0.3333333333333333 [-]
	 SCS Opposite-Spin Scale   =       1.2000000000000000 [-]
	 SCS Same-Spin Energy      =      -0.1051611982735845 [Eh]
	 SCS Opposite-Spin Energy  =      -1.1933083411146055 [Eh]
	 SCS Correlation Energy    =      -1.2984695393881900 [Eh]
	 SCS Total Energy          =    -287.1293940052214566 [Eh]
	-----------------------------------------------------------

  Dipole Moment: [D]
     X:     0.9558      Y:     0.0355      Z:     1.0727     Total:     1.4372

*** Psi4 exiting successfully. Buy a developer a beer!
