                               Psi4 1.3.2 release

  ==> Input File <==

--------------------------------------------------------------------------
#psi4
#
memory 32 gb

molecule  {
0 1
  N        2.3399850     0.0000400    -0.0882940
  C        0.7358301    -0.0000023     0.0110102
  C        0.2222290     1.2072330    -0.0096550
  C       -1.1718320     1.2039030     0.0053930
  C       -1.8790760     0.0000220     0.0076380
  C       -1.1718640    -1.2038970     0.0054270
  C        0.2221720    -1.2072360    -0.0096460
  H        2.7627720     0.8296730     0.3164440
  H        2.7627430    -0.8301660     0.3152910
  H        0.7657540     2.1507970    -0.0162340
  H       -1.7067870     2.1509120     0.0059600
  H       -2.9656380    -0.0000200     0.0197930
  H       -1.7069100    -2.1508590     0.0059040
  H        0.7657150    -2.1507810    -0.0159610
units angstrom
no_reorient  #important for SAPT in psi4, default
symmetry c1  #important for SAPT in psi4, default
}

set PROPERTIES_ORIGIN ["COM"]
properties('MP2/aug-cc-pvtz', properties = ['dipole'])
--------------------------------------------------------------------------

    Molecular point group: c1
  Charge       = 0
  Multiplicity = 1
  Basis Set: AUG-CC-PVTZ
    Blend: AUG-CC-PVTZ
  Basis Set: (AUG-CC-PVTZ AUX)
    Blend: AUG-CC-PVTZ-JKFIT

    Orbital Energies [Eh]
    ---------------------

    Doubly Occupied:

       1A    -15.545062     2A    -11.268422     3A    -11.243177
       4A    -11.243130     5A    -11.230489     6A    -11.226656
       7A    -11.226603     8A     -1.195160     9A     -1.115842
      10A     -1.033057    11A     -0.999740    12A     -0.845704
      13A     -0.811197    14A     -0.707467    15A     -0.660202
      16A     -0.636551    17A     -0.624036    18A     -0.581783
      19A     -0.576228    20A     -0.537115    21A     -0.514334
      22A     -0.481197    23A     -0.421316    24A     -0.345865
      25A     -0.322193

  @DF-RHF Final Energy:  -285.79150431330334

   => Energetics <=

    Nuclear Repulsion Energy =            272.4438768402998221
    One-Electron Energy =                -925.6857121777273960
    Two-Electron Energy =                 367.4503310241242389
    Total Energy =                       -285.7915043133033350
  Basis Set: (AUG-CC-PVTZ AUX)
    Blend: AUG-CC-PVTZ-RI
    Molecular point group: c1

    Geometry (in Angstrom), charge = 0, multiplicity = 1:

       Center              X                  Y                   Z               Mass
    ------------   -----------------  -----------------  -----------------  -----------------
         N            2.372873746901     0.000035862266    -0.083154778717    14.003074004430
         C            0.768718846901    -0.000006437734     0.016149421283    12.000000000000
         C            0.255117746901     1.207228862266    -0.004515778717    12.000000000000
         C           -1.138943253099     1.203898862266     0.010532221283    12.000000000000
         C           -1.846187253099     0.000017862266     0.012777221283    12.000000000000
         C           -1.138975253099    -1.203901137734     0.010566221283    12.000000000000
         C            0.255060746901    -1.207240137734    -0.004506778717    12.000000000000
         H            2.795660746901     0.829668862266     0.321583221283     1.007825032230
         H            2.795631746901    -0.830170137734     0.320430221283     1.007825032230
         H            0.798642746901     2.150792862266    -0.011094778717     1.007825032230
         H           -1.673898253099     2.150907862266     0.011099221283     1.007825032230
         H           -2.932749253099    -0.000024137734     0.024932221283     1.007825032230
         H           -1.674021253099    -2.150863137734     0.011043221283     1.007825032230
         H            0.798603746901    -2.150785137734    -0.010821778717     1.007825032230

  Basis Set: AUG-CC-PVTZ
    Blend: AUG-CC-PVTZ
  Basis Set: (AUG-CC-PVTZ AUX)
    Blend: AUG-CC-PVTZ-JKFIT
	 Reference Energy          =    -285.7915043133033350 [Eh]
	 Singles Energy            =      -0.0000000000000000 [Eh]
	 Same-Spin Energy          =      -0.3158553213061737 [Eh]
	 Opposite-Spin Energy      =      -0.9963670118504864 [Eh]
	 Correlation Energy        =      -1.3122223331566600 [Eh]
	 Total Energy              =    -287.1037266464600179 [Eh]

	 ================> DF-SCS-MP2 Energies <==================
	-----------------------------------------------------------
	 SCS Same-Spin Scale       =       0.3333333333333333 [-]
	 SCS Opposite-Spin Scale   =       1.2000000000000000 [-]
	 SCS Same-Spin Energy      =      -0.1052851071020579 [Eh]
	 SCS Opposite-Spin Energy  =      -1.1956404142205836 [Eh]
	 SCS Correlation Energy    =      -1.3009255213226416 [Eh]
	 SCS Total Energy          =    -287.0924298346259889 [Eh]
	-----------------------------------------------------------

  Dipole Moment: [D]
     X:    -0.2515      Y:    -0.0007      Z:     1.1062     Total:     1.1344

*** Psi4 exiting successfully. Buy a developer a beer!
