                               Psi4 1.3.2 release

  ==> Input File <==

--------------------------------------------------------------------------
#psi4
#
memory 32 gb

molecule  {
0 1
  S        1.0929260     0.0000020    -0.4651450
  O        1.4426300    -1.2834400    -1.0972280
  O        1.4426290     1.2834490    -1.0972210
  C        1.7922650    -0.0000010     1.1894320
  C       -0.6626530     0.0000010    -0.1634910
  C        3.3143010    -0.0000060     1.1103310
  C       -1.3293790     1.2205490    -0.0344210
  C       -1.3293780    -1.2205490    -0.0344260
  C       -2.6989260     1.2120350     0.2329170
  C       -2.6989250    -1.2120380     0.2329110
  C       -3.3803590    -0.0000020     0.3738520
  H        1.4045370     0.8911630     1.6920120
  H        1.4045310    -0.8911640     1.6920110
  H        3.7325860    -0.0000050     2.1196780
  H        3.6690290    -0.8877700     0.5832550
  H        3.6690340     0.8877530     0.5832510
  H       -0.7855660     2.1508460    -0.1756550
  H       -0.7855630    -2.1508450    -0.1756650
  H       -3.2357400     2.1525280     0.3278780
  H       -3.2357370    -2.1525330     0.3278690
  H       -4.4476770    -0.0000030     0.5806570
units angstrom
no_reorient  #important for SAPT in psi4, default
symmetry c1  #important for SAPT in psi4, default
}

set PROPERTIES_ORIGIN ["COM"]
properties('MP2/aug-cc-pvtz', properties = ['dipole'])
--------------------------------------------------------------------------

    Molecular point group: c1
  Charge       = 0
  Multiplicity = 1
  Basis Set: AUG-CC-PVTZ
    Blend: AUG-CC-PVTZ
  Basis Set: (AUG-CC-PVTZ AUX)
    Blend: AUG-CC-PVTZ-JKFIT

    Orbital Energies [Eh]
    ---------------------

    Doubly Occupied:

       1A    -92.177505     2A    -20.539823     3A    -20.539804
       4A    -11.279975     5A    -11.277625     6A    -11.269158
       7A    -11.269077     8A    -11.266525     9A    -11.260315
      10A    -11.260192    11A    -11.237667    12A     -9.147104
      13A     -6.831657    14A     -6.831214    15A     -6.831049
      16A     -1.431152    17A     -1.322577    18A     -1.181334
      19A     -1.085218    20A     -1.051336    21A     -1.042230
      22A     -0.935361    23A     -0.862027    24A     -0.854343
      25A     -0.795895    26A     -0.735063    27A     -0.686152
      28A     -0.667540    29A     -0.655188    30A     -0.648681
      31A     -0.637191    32A     -0.614457    33A     -0.610250
      34A     -0.572333    35A     -0.549286    36A     -0.542961
      37A     -0.526453    38A     -0.525666    39A     -0.521612
      40A     -0.490123    41A     -0.482854    42A     -0.462437
      43A     -0.432001    44A     -0.369320    45A     -0.361325

  @DF-RHF Final Energy:  -856.15770458314250

   => Energetics <=

    Nuclear Repulsion Energy =            727.9796931852190482
    One-Electron Energy =               -2618.9326807352813375
    Two-Electron Energy =                1034.7952829669197854
    Total Energy =                       -856.1577045831425039
  Basis Set: (AUG-CC-PVTZ AUX)
    Blend: AUG-CC-PVTZ-RI
    Molecular point group: c1

    Geometry (in Angstrom), charge = 0, multiplicity = 1:

       Center              X                  Y                   Z               Mass
    ------------   -----------------  -----------------  -----------------  -----------------
         S            1.101299095456     0.000001731454    -0.421202425199    31.972071174400
         O            1.451003095456    -1.283440268546    -1.053285425199    15.994914619570
         O            1.451002095456     1.283448731454    -1.053278425199    15.994914619570
         C            1.800638095456    -0.000001268546     1.233374574801    12.000000000000
         C           -0.654279904544     0.000000731454    -0.119548425199    12.000000000000
         C            3.322674095456    -0.000006268546     1.154273574801    12.000000000000
         C           -1.321005904544     1.220548731454     0.009521574801    12.000000000000
         C           -1.321004904544    -1.220549268546     0.009516574801    12.000000000000
         C           -2.690552904544     1.212034731454     0.276859574801    12.000000000000
         C           -2.690551904544    -1.212038268546     0.276853574801    12.000000000000
         C           -3.371985904544    -0.000002268546     0.417794574801    12.000000000000
         H            1.412910095456     0.891162731454     1.735954574801     1.007825032230
         H            1.412904095456    -0.891164268546     1.735953574801     1.007825032230
         H            3.740959095456    -0.000005268546     2.163620574801     1.007825032230
         H            3.677402095456    -0.887770268546     0.627197574801     1.007825032230
         H            3.677407095456     0.887752731454     0.627193574801     1.007825032230
         H           -0.777192904544     2.150845731454    -0.131712425199     1.007825032230
         H           -0.777189904544    -2.150845268546    -0.131722425199     1.007825032230
         H           -3.227366904544     2.152527731454     0.371820574801     1.007825032230
         H           -3.227363904544    -2.152533268546     0.371811574801     1.007825032230
         H           -4.439303904544    -0.000003268546     0.624599574801     1.007825032230

  Basis Set: AUG-CC-PVTZ
    Blend: AUG-CC-PVTZ
  Basis Set: (AUG-CC-PVTZ AUX)
    Blend: AUG-CC-PVTZ-JKFIT
	 Reference Energy          =    -856.1577045831425039 [Eh]
	 Singles Energy            =      -0.0000000000000000 [Eh]
	 Same-Spin Energy          =      -0.5489471765733803 [Eh]
	 Opposite-Spin Energy      =      -1.6751789329436153 [Eh]
	 Correlation Energy        =      -2.2241261095169955 [Eh]
	 Total Energy              =    -858.3818306926594914 [Eh]

	 ================> DF-SCS-MP2 Energies <==================
	-----------------------------------------------------------
	 SCS Same-Spin Scale       =       0.3333333333333333 [-]
	 SCS Opposite-Spin Scale   =       1.2000000000000000 [-]
	 SCS Same-Spin Energy      =      -0.1829823921911268 [Eh]
	 SCS Opposite-Spin Energy  =      -2.0102147195323381 [Eh]
	 SCS Correlation Energy    =      -2.1931971117234648 [Eh]
	 SCS Total Energy          =    -858.3509016948660246 [Eh]
	-----------------------------------------------------------

  Dipole Moment: [D]
     X:    -2.6676      Y:    -0.0000      Z:     4.1370     Total:     4.9225

*** Psi4 exiting successfully. Buy a developer a beer!
