                               Psi4 1.3.2 release

  ==> Input File <==

--------------------------------------------------------------------------
#psi4
#
memory 32 gb

molecule  {
0 1
  S        1.0929260     0.0000020    -0.4651450
  O        1.4426300    -1.2834400    -1.0972280
  O        1.4426290     1.2834490    -1.0972210
  C        1.7922650    -0.0000010     1.1894320
  C       -0.6626530     0.0000010    -0.1634910
  C        3.3143010    -0.0000060     1.1103310
  C       -1.3293790     1.2205490    -0.0344210
  C       -1.2768574    -1.2205496     0.2609409
  C       -2.6989260     1.2120350     0.2329170
  C       -2.6989250    -1.2120380     0.2329110
  C       -3.3803590    -0.0000020     0.3738520
  H        1.4045370     0.8911630     1.6920120
  H        1.4045310    -0.8911640     1.6920110
  H        3.7325860    -0.0000050     2.1196780
  H        3.6690290    -0.8877700     0.5832550
  H        3.6690340     0.8877530     0.5832510
  H       -0.7855660     2.1508460    -0.1756550
  H       -0.7855630    -2.1508450    -0.1756650
  H       -3.2357400     2.1525280     0.3278780
  H       -3.2357370    -2.1525330     0.3278690
  H       -4.4476770    -0.0000030     0.5806570
units angstrom
no_reorient  #important for SAPT in psi4, default
symmetry c1  #important for SAPT in psi4, default
}

set PROPERTIES_ORIGIN ["COM"]
properties('MP2/aug-cc-pvtz', properties = ['dipole'])
--------------------------------------------------------------------------

    Molecular point group: c1
  Charge       = 0
  Multiplicity = 1
  Basis Set: AUG-CC-PVTZ
    Blend: AUG-CC-PVTZ
  Basis Set: (AUG-CC-PVTZ AUX)
    Blend: AUG-CC-PVTZ-JKFIT

    Orbital Energies [Eh]
    ---------------------

    Doubly Occupied:

       1A    -92.177410     2A    -20.540116     3A    -20.539492
       4A    -11.287495     5A    -11.277023     6A    -11.275759
       7A    -11.268985     8A    -11.268799     9A    -11.266230
      10A    -11.265053    11A    -11.237202    12A     -9.147085
      13A     -6.831659    14A     -6.831186    15A     -6.830992
      16A     -1.431063    17A     -1.322426    18A     -1.179036
      19A     -1.085166    20A     -1.050493    21A     -1.039107
      22A     -0.934386    23A     -0.860635    24A     -0.851484
      25A     -0.793896    26A     -0.731526    27A     -0.684447
      28A     -0.665895    29A     -0.654003    30A     -0.645004
      31A     -0.634767    32A     -0.610029    33A     -0.606712
      34A     -0.572594    35A     -0.549200    36A     -0.539564
      37A     -0.526845    38A     -0.525592    39A     -0.510027
      40A     -0.489964    41A     -0.481700    42A     -0.462124
      43A     -0.432271    44A     -0.367241    45A     -0.361975

  @DF-RHF Final Energy:  -856.12699540004405

   => Energetics <=

    Nuclear Repulsion Energy =            727.1415380058796245
    One-Electron Energy =               -2617.2497521377013072
    Two-Electron Energy =                1033.9812187317775170
    Total Energy =                       -856.1269954000440521
  Basis Set: (AUG-CC-PVTZ AUX)
    Blend: AUG-CC-PVTZ-RI
    Molecular point group: c1

    Geometry (in Angstrom), charge = 0, multiplicity = 1:

       Center              X                  Y                   Z               Mass
    ------------   -----------------  -----------------  -----------------  -----------------
         S            1.097592634380     0.000001773797    -0.442046930363    31.972071174400
         O            1.447296634380    -1.283440226203    -1.074129930363    15.994914619570
         O            1.447295634380     1.283448773797    -1.074122930363    15.994914619570
         C            1.796931634380    -0.000001226203     1.212530069637    12.000000000000
         C           -0.657986365620     0.000000773797    -0.140392930363    12.000000000000
         C            3.318967634380    -0.000006226203     1.133429069637    12.000000000000
         C           -1.324712365620     1.220548773797    -0.011322930363    12.000000000000
         C           -1.272190765620    -1.220549826203     0.284038969637    12.000000000000
         C           -2.694259365620     1.212034773797     0.256015069637    12.000000000000
         C           -2.694258365620    -1.212038226203     0.256009069637    12.000000000000
         C           -3.375692365620    -0.000002226203     0.396950069637    12.000000000000
         H            1.409203634380     0.891162773797     1.715110069637     1.007825032230
         H            1.409197634380    -0.891164226203     1.715109069637     1.007825032230
         H            3.737252634380    -0.000005226203     2.142776069637     1.007825032230
         H            3.673695634380    -0.887770226203     0.606353069637     1.007825032230
         H            3.673700634380     0.887752773797     0.606349069637     1.007825032230
         H           -0.780899365620     2.150845773797    -0.152556930363     1.007825032230
         H           -0.780896365620    -2.150845226203    -0.152566930363     1.007825032230
         H           -3.231073365620     2.152527773797     0.350976069637     1.007825032230
         H           -3.231070365620    -2.152533226203     0.350967069637     1.007825032230
         H           -4.443010365620    -0.000003226203     0.603755069637     1.007825032230

  Basis Set: AUG-CC-PVTZ
    Blend: AUG-CC-PVTZ
  Basis Set: (AUG-CC-PVTZ AUX)
    Blend: AUG-CC-PVTZ-JKFIT
	 Reference Energy          =    -856.1269954000440521 [Eh]
	 Singles Energy            =      -0.0000000000000000 [Eh]
	 Same-Spin Energy          =      -0.5508055901197237 [Eh]
	 Opposite-Spin Energy      =      -1.6802143390884767 [Eh]
	 Correlation Energy        =      -2.2310199292082005 [Eh]
	 Total Energy              =    -858.3580153292522255 [Eh]

	 ================> DF-SCS-MP2 Energies <==================
	-----------------------------------------------------------
	 SCS Same-Spin Scale       =       0.3333333333333333 [-]
	 SCS Opposite-Spin Scale   =       1.2000000000000000 [-]
	 SCS Same-Spin Energy      =      -0.1836018633732412 [Eh]
	 SCS Opposite-Spin Energy  =      -2.0162572069061722 [Eh]
	 SCS Correlation Energy    =      -2.1998590702794134 [Eh]
	 SCS Total Energy          =    -858.3268544703234966 [Eh]
	-----------------------------------------------------------

  Dipole Moment: [D]
     X:    -2.8318      Y:     0.1700      Z:     4.0208     Total:     4.9209

*** Psi4 exiting successfully. Buy a developer a beer!
