                               Psi4 1.3.2 release

  ==> Input File <==

--------------------------------------------------------------------------
#psi4
#
memory 32 gb

molecule  {
0 1
  S        1.0929260     0.0000020    -0.4651450
  O        1.4426300    -1.2834400    -1.0972280
  O        1.4426290     1.2834490    -1.0972210
  C        1.7922650    -0.0000010     1.1894320
  C       -0.6626530     0.0000010    -0.1634910
  C        3.3143010    -0.0000060     1.1103310
  C       -1.3293790     1.2205490    -0.0344210
  C       -1.2856108    -1.2205495     0.2117131
  C       -2.6989260     1.2120350     0.2329170
  C       -2.6989250    -1.2120380     0.2329110
  C       -3.3803590    -0.0000020     0.3738520
  H        1.4045370     0.8911630     1.6920120
  H        1.4045310    -0.8911640     1.6920110
  H        3.7325860    -0.0000050     2.1196780
  H        3.6690290    -0.8877700     0.5832550
  H        3.6690340     0.8877530     0.5832510
  H       -0.7855660     2.1508460    -0.1756550
  H       -0.7855630    -2.1508450    -0.1756650
  H       -3.2357400     2.1525280     0.3278780
  H       -3.2357370    -2.1525330     0.3278690
  H       -4.4476770    -0.0000030     0.5806570
units angstrom
no_reorient  #important for SAPT in psi4, default
symmetry c1  #important for SAPT in psi4, default
}

set PROPERTIES_ORIGIN ["COM"]
properties('MP2/aug-cc-pvtz', properties = ['dipole'])
--------------------------------------------------------------------------

    Molecular point group: c1
  Charge       = 0
  Multiplicity = 1
  Basis Set: AUG-CC-PVTZ
    Blend: AUG-CC-PVTZ
  Basis Set: (AUG-CC-PVTZ AUX)
    Blend: AUG-CC-PVTZ-JKFIT

    Orbital Energies [Eh]
    ---------------------

    Doubly Occupied:

       1A    -92.177461     2A    -20.540093     3A    -20.539576
       4A    -11.285446     5A    -11.277167     6A    -11.273768
       7A    -11.268869     8A    -11.266882     9A    -11.265706
      10A    -11.263900    11A    -11.237306    12A     -9.147113
      13A     -6.831683    14A     -6.831217    15A     -6.831031
      16A     -1.431102    17A     -1.322483    18A     -1.179793
      19A     -1.085211    20A     -1.050688    21A     -1.040200
      22A     -0.934650    23A     -0.860996    24A     -0.852283
      25A     -0.794495    26A     -0.732331    27A     -0.684890
      28A     -0.666369    29A     -0.654296    30A     -0.645925
      31A     -0.635452    32A     -0.610405    33A     -0.608660
      34A     -0.572674    35A     -0.549282    36A     -0.540352
      37A     -0.527002    38A     -0.525746    39A     -0.513336
      40A     -0.490041    41A     -0.481957    42A     -0.462239
      43A     -0.432205    44A     -0.367734    45A     -0.362054

  @DF-RHF Final Energy:  -856.13630614363683

   => Energetics <=

    Nuclear Repulsion Energy =            727.4232066510687673
    One-Electron Energy =               -2617.8148873148657003
    Two-Electron Energy =                1034.2553745201601032
    Total Energy =                       -856.1363061436368298
  Basis Set: (AUG-CC-PVTZ AUX)
    Blend: AUG-CC-PVTZ-RI
    Molecular point group: c1

    Geometry (in Angstrom), charge = 0, multiplicity = 1:

       Center              X                  Y                   Z               Mass
    ------------   -----------------  -----------------  -----------------  -----------------
         S            1.098210375541     0.000001766740    -0.438572847345    31.972071174400
         O            1.447914375541    -1.283440233260    -1.070655847345    15.994914619570
         O            1.447913375541     1.283448766740    -1.070648847345    15.994914619570
         C            1.797549375541    -0.000001233260     1.216004152655    12.000000000000
         C           -0.657368624459     0.000000766740    -0.136918847345    12.000000000000
         C            3.319585375541    -0.000006233260     1.136903152655    12.000000000000
         C           -1.324094624459     1.220548766740    -0.007848847345    12.000000000000
         C           -1.280326424459    -1.220549733260     0.238285252655    12.000000000000
         C           -2.693641624459     1.212034766740     0.259489152655    12.000000000000
         C           -2.693640624459    -1.212038233260     0.259483152655    12.000000000000
         C           -3.375074624459    -0.000002233260     0.400424152655    12.000000000000
         H            1.409821375541     0.891162766740     1.718584152655     1.007825032230
         H            1.409815375541    -0.891164233260     1.718583152655     1.007825032230
         H            3.737870375541    -0.000005233260     2.146250152655     1.007825032230
         H            3.674313375541    -0.887770233260     0.609827152655     1.007825032230
         H            3.674318375541     0.887752766740     0.609823152655     1.007825032230
         H           -0.780281624459     2.150845766740    -0.149082847345     1.007825032230
         H           -0.780278624459    -2.150845233260    -0.149092847345     1.007825032230
         H           -3.230455624459     2.152527766740     0.354450152655     1.007825032230
         H           -3.230452624459    -2.152533233260     0.354441152655     1.007825032230
         H           -4.442392624459    -0.000003233260     0.607229152655     1.007825032230

  Basis Set: AUG-CC-PVTZ
    Blend: AUG-CC-PVTZ
  Basis Set: (AUG-CC-PVTZ AUX)
    Blend: AUG-CC-PVTZ-JKFIT
	 Reference Energy          =    -856.1363061436368298 [Eh]
	 Singles Energy            =      -0.0000000000000000 [Eh]
	 Same-Spin Energy          =      -0.5502892820386395 [Eh]
	 Opposite-Spin Energy      =      -1.6787671420422861 [Eh]
	 Correlation Energy        =      -2.2290564240809254 [Eh]
	 Total Energy              =    -858.3653625677177388 [Eh]

	 ================> DF-SCS-MP2 Energies <==================
	-----------------------------------------------------------
	 SCS Same-Spin Scale       =       0.3333333333333333 [-]
	 SCS Opposite-Spin Scale   =       1.2000000000000000 [-]
	 SCS Same-Spin Energy      =      -0.1834297606795465 [Eh]
	 SCS Opposite-Spin Energy  =      -2.0145205704507432 [Eh]
	 SCS Correlation Energy    =      -2.1979503311302895 [Eh]
	 SCS Total Energy          =    -858.3342564747671304 [Eh]
	-----------------------------------------------------------

  Dipole Moment: [D]
     X:    -2.7913      Y:     0.1249      Z:     4.0418     Total:     4.9136

*** Psi4 exiting successfully. Buy a developer a beer!
