                               Psi4 1.3.2 release

  ==> Input File <==

--------------------------------------------------------------------------
#psi4
#
memory 32 gb

molecule  {
0 1
  S        1.0929260     0.0000020    -0.4651450
  O        1.4426300    -1.2834400    -1.0972280
  O        1.4426290     1.2834490    -1.0972210
  C        1.7922650    -0.0000010     1.1894320
  C       -0.6626530     0.0000010    -0.1634910
  C        3.3143010    -0.0000060     1.1103310
  C       -1.3293790     1.2205490    -0.0344210
  C       -1.2943643    -1.2205494     0.1624852
  C       -2.6989260     1.2120350     0.2329170
  C       -2.6989250    -1.2120380     0.2329110
  C       -3.3803590    -0.0000020     0.3738520
  H        1.4045370     0.8911630     1.6920120
  H        1.4045310    -0.8911640     1.6920110
  H        3.7325860    -0.0000050     2.1196780
  H        3.6690290    -0.8877700     0.5832550
  H        3.6690340     0.8877530     0.5832510
  H       -0.7855660     2.1508460    -0.1756550
  H       -0.7855630    -2.1508450    -0.1756650
  H       -3.2357400     2.1525280     0.3278780
  H       -3.2357370    -2.1525330     0.3278690
  H       -4.4476770    -0.0000030     0.5806570
units angstrom
no_reorient  #important for SAPT in psi4, default
symmetry c1  #important for SAPT in psi4, default
}

set PROPERTIES_ORIGIN ["COM"]
properties('MP2/aug-cc-pvtz', properties = ['dipole'])
--------------------------------------------------------------------------

    Molecular point group: c1
  Charge       = 0
  Multiplicity = 1
  Basis Set: AUG-CC-PVTZ
    Blend: AUG-CC-PVTZ
  Basis Set: (AUG-CC-PVTZ AUX)
    Blend: AUG-CC-PVTZ-JKFIT

    Orbital Energies [Eh]
    ---------------------

    Doubly Occupied:

       1A    -92.177498     2A    -20.540058     3A    -20.539650
       4A    -11.283683     5A    -11.277288     6A    -11.272081
       7A    -11.268959     8A    -11.266414     9A    -11.264175
      10A    -11.262735    11A    -11.237396    12A     -9.147131
      13A     -6.831697    14A     -6.831237    15A     -6.831058
      16A     -1.431131    17A     -1.322528    18A     -1.180425
      19A     -1.085240    20A     -1.050882    21A     -1.041052
      22A     -0.934866    23A     -0.861326    24A     -0.852971
      25A     -0.795015    26A     -0.733127    27A     -0.685308
      28A     -0.666795    29A     -0.654557    30A     -0.646808
      31A     -0.635980    32A     -0.611274    33A     -0.609758
      34A     -0.572700    35A     -0.549331    36A     -0.541037
      37A     -0.527012    38A     -0.525873    39A     -0.516071
      40A     -0.490098    41A     -0.482182    42A     -0.462326
      43A     -0.432140    44A     -0.368260    45A     -0.362021

  @DF-RHF Final Energy:  -856.14391011330997

   => Energetics <=

    Nuclear Repulsion Energy =            727.6507508878296449
    One-Electron Energy =               -2618.2710164314430585
    Two-Electron Energy =                1034.4763554303033288
    Total Energy =                       -856.1439101133100849
  Basis Set: (AUG-CC-PVTZ AUX)
    Blend: AUG-CC-PVTZ-RI
    Molecular point group: c1

    Geometry (in Angstrom), charge = 0, multiplicity = 1:

       Center              X                  Y                   Z               Mass
    ------------   -----------------  -----------------  -----------------  -----------------
         S            1.098828123758     0.000001759683    -0.435098757270    31.972071174400
         O            1.448532123758    -1.283440240317    -1.067181757270    15.994914619570
         O            1.448531123758     1.283448759683    -1.067174757270    15.994914619570
         C            1.798167123758    -0.000001240317     1.219478242730    12.000000000000
         C           -0.656750876242     0.000000759683    -0.133444757270    12.000000000000
         C            3.320203123758    -0.000006240317     1.140377242730    12.000000000000
         C           -1.323476876242     1.220548759683    -0.004374757270    12.000000000000
         C           -1.288462176242    -1.220549640317     0.192531442730    12.000000000000
         C           -2.693023876242     1.212034759683     0.262963242730    12.000000000000
         C           -2.693022876242    -1.212038240317     0.262957242730    12.000000000000
         C           -3.374456876242    -0.000002240317     0.403898242730    12.000000000000
         H            1.410439123758     0.891162759683     1.722058242730     1.007825032230
         H            1.410433123758    -0.891164240317     1.722057242730     1.007825032230
         H            3.738488123758    -0.000005240317     2.149724242730     1.007825032230
         H            3.674931123758    -0.887770240317     0.613301242730     1.007825032230
         H            3.674936123758     0.887752759683     0.613297242730     1.007825032230
         H           -0.779663876242     2.150845759683    -0.145608757270     1.007825032230
         H           -0.779660876242    -2.150845240317    -0.145618757270     1.007825032230
         H           -3.229837876242     2.152527759683     0.357924242730     1.007825032230
         H           -3.229834876242    -2.152533240317     0.357915242730     1.007825032230
         H           -4.441774876242    -0.000003240317     0.610703242730     1.007825032230

  Basis Set: AUG-CC-PVTZ
    Blend: AUG-CC-PVTZ
  Basis Set: (AUG-CC-PVTZ AUX)
    Blend: AUG-CC-PVTZ-JKFIT
	 Reference Energy          =    -856.1439101133099712 [Eh]
	 Singles Energy            =      -0.0000000000000000 [Eh]
	 Same-Spin Energy          =      -0.5498482150500738 [Eh]
	 Opposite-Spin Energy      =      -1.6775563925796817 [Eh]
	 Correlation Energy        =      -2.2274046076297553 [Eh]
	 Total Energy              =    -858.3713147209397221 [Eh]

	 ================> DF-SCS-MP2 Energies <==================
	-----------------------------------------------------------
	 SCS Same-Spin Scale       =       0.3333333333333333 [-]
	 SCS Opposite-Spin Scale   =       1.2000000000000000 [-]
	 SCS Same-Spin Energy      =      -0.1832827383500246 [Eh]
	 SCS Opposite-Spin Energy  =      -2.0130676710956181 [Eh]
	 SCS Correlation Energy    =      -2.1963504094456425 [Eh]
	 SCS Total Energy          =    -858.3402605227556705 [Eh]
	-----------------------------------------------------------

  Dipole Moment: [D]
     X:    -2.7559      Y:     0.0860      Z:     4.0622     Total:     4.9096

*** Psi4 exiting successfully. Buy a developer a beer!
