                               Psi4 1.3.2 release

  ==> Input File <==

--------------------------------------------------------------------------
#psi4
#
memory 32 gb

molecule  {
0 1
  S        1.0929260     0.0000020    -0.4651450
  O        1.4426300    -1.2834400    -1.0972280
  O        1.4426290     1.2834490    -1.0972210
  C        1.7922650    -0.0000010     1.1894320
  C       -0.6626530     0.0000010    -0.1634910
  C        3.3143010    -0.0000060     1.1103310
  C       -1.3293790     1.2205490    -0.0344210
  C       -1.3206246    -1.2205491     0.0148018
  C       -2.6989260     1.2120350     0.2329170
  C       -2.6989250    -1.2120380     0.2329110
  C       -3.3803590    -0.0000020     0.3738520
  H        1.4045370     0.8911630     1.6920120
  H        1.4045310    -0.8911640     1.6920110
  H        3.7325860    -0.0000050     2.1196780
  H        3.6690290    -0.8877700     0.5832550
  H        3.6690340     0.8877530     0.5832510
  H       -0.7855660     2.1508460    -0.1756550
  H       -0.7855630    -2.1508450    -0.1756650
  H       -3.2357400     2.1525280     0.3278780
  H       -3.2357370    -2.1525330     0.3278690
  H       -4.4476770    -0.0000030     0.5806570
units angstrom
no_reorient  #important for SAPT in psi4, default
symmetry c1  #important for SAPT in psi4, default
}

set PROPERTIES_ORIGIN ["COM"]
properties('MP2/aug-cc-pvtz', properties = ['dipole'])
--------------------------------------------------------------------------

    Molecular point group: c1
  Charge       = 0
  Multiplicity = 1
  Basis Set: AUG-CC-PVTZ
    Blend: AUG-CC-PVTZ
  Basis Set: (AUG-CC-PVTZ AUX)
    Blend: AUG-CC-PVTZ-JKFIT

    Orbital Energies [Eh]
    ---------------------

    Doubly Occupied:

       1A    -92.177526     2A    -20.539890     3A    -20.539794
       4A    -11.280367     5A    -11.277555     6A    -11.269252
       7A    -11.269120     8A    -11.266531     9A    -11.260633
      10A    -11.260491    11A    -11.237608    12A     -9.147127
      13A     -6.831682    14A     -6.831236    15A     -6.831069
      16A     -1.431163    17A     -1.322586    18A     -1.181375
      19A     -1.085240    20A     -1.051298    21A     -1.042255
      22A     -0.935285    23A     -0.861979    24A     -0.854221
      25A     -0.795886    26A     -0.734868    27A     -0.686112
      28A     -0.667537    29A     -0.655092    30A     -0.648532
      31A     -0.637014    32A     -0.614173    33A     -0.610253
      34A     -0.572491    35A     -0.549326    36A     -0.542601
      37A     -0.526454    38A     -0.525949    39A     -0.521075
      40A     -0.490149    41A     -0.482716    42A     -0.462444
      43A     -0.432011    44A     -0.369290    45A     -0.361566

  @DF-RHF Final Energy:  -856.15670061985440

   => Energetics <=

    Nuclear Repulsion Energy =            727.9874729692561459
    One-Electron Energy =               -2618.9467060983852207
    Two-Electron Energy =                1034.8025325092746698
    Total Energy =                       -856.1567006198545187
  Basis Set: (AUG-CC-PVTZ AUX)
    Blend: AUG-CC-PVTZ-RI
    Molecular point group: c1

    Geometry (in Angstrom), charge = 0, multiplicity = 1:

       Center              X                  Y                   Z               Mass
    ------------   -----------------  -----------------  -----------------  -----------------
         S            1.100681354296     0.000001738511    -0.424676508217    31.972071174400
         O            1.450385354296    -1.283440261489    -1.056759508217    15.994914619570
         O            1.450384354296     1.283448738511    -1.056752508217    15.994914619570
         C            1.800020354296    -0.000001261489     1.229900491783    12.000000000000
         C           -0.654897645704     0.000000738511    -0.123022508217    12.000000000000
         C            3.322056354296    -0.000006261489     1.150799491783    12.000000000000
         C           -1.321623645704     1.220548738511     0.006047491783    12.000000000000
         C           -1.312869245704    -1.220549361489     0.055270291783    12.000000000000
         C           -2.691170645704     1.212034738511     0.273385491783    12.000000000000
         C           -2.691169645704    -1.212038261489     0.273379491783    12.000000000000
         C           -3.372603645704    -0.000002261489     0.414320491783    12.000000000000
         H            1.412292354296     0.891162738511     1.732480491783     1.007825032230
         H            1.412286354296    -0.891164261489     1.732479491783     1.007825032230
         H            3.740341354296    -0.000005261489     2.160146491783     1.007825032230
         H            3.676784354296    -0.887770261489     0.623723491783     1.007825032230
         H            3.676789354296     0.887752738511     0.623719491783     1.007825032230
         H           -0.777810645704     2.150845738511    -0.135186508217     1.007825032230
         H           -0.777807645704    -2.150845261489    -0.135196508217     1.007825032230
         H           -3.227984645704     2.152527738511     0.368346491783     1.007825032230
         H           -3.227981645704    -2.152533261489     0.368337491783     1.007825032230
         H           -4.439921645704    -0.000003261489     0.621125491783     1.007825032230

  Basis Set: AUG-CC-PVTZ
    Blend: AUG-CC-PVTZ
  Basis Set: (AUG-CC-PVTZ AUX)
    Blend: AUG-CC-PVTZ-JKFIT
	 Reference Energy          =    -856.1567006198544050 [Eh]
	 Singles Energy            =      -0.0000000000000000 [Eh]
	 Same-Spin Energy          =      -0.5490352894072927 [Eh]
	 Opposite-Spin Energy      =      -1.6754011238105950 [Eh]
	 Correlation Energy        =      -2.2244364132178878 [Eh]
	 Total Energy              =    -858.3811370330722639 [Eh]

	 ================> DF-SCS-MP2 Energies <==================
	-----------------------------------------------------------
	 SCS Same-Spin Scale       =       0.3333333333333333 [-]
	 SCS Opposite-Spin Scale   =       1.2000000000000000 [-]
	 SCS Same-Spin Energy      =      -0.1830117631357642 [Eh]
	 SCS Opposite-Spin Energy  =      -2.0104813485727138 [Eh]
	 SCS Correlation Energy    =      -2.1934931117084782 [Eh]
	 SCS Total Energy          =    -858.3501937315628538 [Eh]
	-----------------------------------------------------------

  Dipole Moment: [D]
     X:    -2.6817      Y:     0.0106      Z:     4.1189     Total:     4.9149

*** Psi4 exiting successfully. Buy a developer a beer!
