                               Psi4 1.3.2 release

  ==> Input File <==

--------------------------------------------------------------------------
#psi4
#
memory 32 gb

molecule  {
0 1
  S        1.0929260     0.0000020    -0.4651450
  O        1.4426300    -1.2834400    -1.0972280
  O        1.4426290     1.2834490    -1.0972210
  C        1.7922650    -0.0000010     1.1894320
  C       -0.6626530     0.0000010    -0.1634910
  C        3.3143010    -0.0000060     1.1103310
  C       -1.3293790     1.2205490    -0.0344210
  C       -1.3118711    -1.2205492     0.0640296
  C       -2.6989260     1.2120350     0.2329170
  C       -2.6989250    -1.2120380     0.2329110
  C       -3.3803590    -0.0000020     0.3738520
  H        1.4045370     0.8911630     1.6920120
  H        1.4045310    -0.8911640     1.6920110
  H        3.7325860    -0.0000050     2.1196780
  H        3.6690290    -0.8877700     0.5832550
  H        3.6690340     0.8877530     0.5832510
  H       -0.7855660     2.1508460    -0.1756550
  H       -0.7855630    -2.1508450    -0.1756650
  H       -3.2357400     2.1525280     0.3278780
  H       -3.2357370    -2.1525330     0.3278690
  H       -4.4476770    -0.0000030     0.5806570
units angstrom
no_reorient  #important for SAPT in psi4, default
symmetry c1  #important for SAPT in psi4, default
}

set PROPERTIES_ORIGIN ["COM"]
properties('MP2/aug-cc-pvtz', properties = ['dipole'])
--------------------------------------------------------------------------

    Molecular point group: c1
  Charge       = 0
  Multiplicity = 1
  Basis Set: AUG-CC-PVTZ
    Blend: AUG-CC-PVTZ
  Basis Set: (AUG-CC-PVTZ AUX)
    Blend: AUG-CC-PVTZ-JKFIT

    Orbital Energies [Eh]
    ---------------------

    Doubly Occupied:

       1A    -92.177532     2A    -20.539955     3A    -20.539760
       4A    -11.281122     5A    -11.277478     6A    -11.269787
       7A    -11.269102     8A    -11.266495     9A    -11.261384
      10A    -11.261026    11A    -11.237545    12A     -9.147138
      13A     -6.831697    14A     -6.831247    15A     -6.831077
      16A     -1.431162    17A     -1.322579    18A     -1.181230
      19A     -1.085252    20A     -1.051201    21A     -1.042071
      22A     -0.935179    23A     -0.861834    24A     -0.853949
      25A     -0.795728    26A     -0.734451    27A     -0.685945
      28A     -0.667402    29A     -0.654957    30A     -0.648153
      31A     -0.636747    32A     -0.613517    33A     -0.610206
      34A     -0.572606    35A     -0.549349    36A     -0.542156
      37A     -0.526649    38A     -0.526031    39A     -0.519935
      40A     -0.490153    41A     -0.482558    42A     -0.462427
      43A     -0.432039    44A     -0.369086    45A     -0.361763

  @DF-RHF Final Energy:  -856.15408170504224

   => Energetics <=

    Nuclear Repulsion Energy =            727.9345543435227910
    One-Electron Energy =               -2618.8399452802732412
    Two-Electron Energy =                1034.7513092317080918
    Total Energy =                       -856.1540817050422447
  Basis Set: (AUG-CC-PVTZ AUX)
    Blend: AUG-CC-PVTZ-RI
    Molecular point group: c1

    Geometry (in Angstrom), charge = 0, multiplicity = 1:

       Center              X                  Y                   Z               Mass
    ------------   -----------------  -----------------  -----------------  -----------------
         S            1.100063606078     0.000001745568    -0.428150591235    31.972071174400
         O            1.449767606078    -1.283440254432    -1.060233591235    15.994914619570
         O            1.449766606078     1.283448745568    -1.060226591235    15.994914619570
         C            1.799402606078    -0.000001254432     1.226426408765    12.000000000000
         C           -0.655515393922     0.000000745568    -0.126496591235    12.000000000000
         C            3.321438606078    -0.000006254432     1.147325408765    12.000000000000
         C           -1.322241393922     1.220548745568     0.002573408765    12.000000000000
         C           -1.304733493922    -1.220549454432     0.101024008765    12.000000000000
         C           -2.691788393922     1.212034745568     0.269911408765    12.000000000000
         C           -2.691787393922    -1.212038254432     0.269905408765    12.000000000000
         C           -3.373221393922    -0.000002254432     0.410846408765    12.000000000000
         H            1.411674606078     0.891162745568     1.729006408765     1.007825032230
         H            1.411668606078    -0.891164254432     1.729005408765     1.007825032230
         H            3.739723606078    -0.000005254432     2.156672408765     1.007825032230
         H            3.676166606078    -0.887770254432     0.620249408765     1.007825032230
         H            3.676171606078     0.887752745568     0.620245408765     1.007825032230
         H           -0.778428393922     2.150845745568    -0.138660591235     1.007825032230
         H           -0.778425393922    -2.150845254432    -0.138670591235     1.007825032230
         H           -3.228602393922     2.152527745568     0.364872408765     1.007825032230
         H           -3.228599393922    -2.152533254432     0.364863408765     1.007825032230
         H           -4.440539393922    -0.000003254432     0.617651408765     1.007825032230

  Basis Set: AUG-CC-PVTZ
    Blend: AUG-CC-PVTZ
  Basis Set: (AUG-CC-PVTZ AUX)
    Blend: AUG-CC-PVTZ-JKFIT
	 Reference Energy          =    -856.1540817050422447 [Eh]
	 Singles Energy            =      -0.0000000000000000 [Eh]
	 Same-Spin Energy          =      -0.5492170756325538 [Eh]
	 Opposite-Spin Energy      =      -1.6758722790468932 [Eh]
	 Correlation Energy        =      -2.2250893546794472 [Eh]
	 Total Energy              =    -858.3791710597216706 [Eh]

	 ================> DF-SCS-MP2 Energies <==================
	-----------------------------------------------------------
	 SCS Same-Spin Scale       =       0.3333333333333333 [-]
	 SCS Opposite-Spin Scale   =       1.2000000000000000 [-]
	 SCS Same-Spin Energy      =      -0.1830723585441846 [Eh]
	 SCS Opposite-Spin Energy  =      -2.0110467348562717 [Eh]
	 SCS Correlation Energy    =      -2.1941190934004564 [Eh]
	 SCS Total Energy          =    -858.3482007984426900 [Eh]
	-----------------------------------------------------------

  Dipole Moment: [D]
     X:    -2.7011      Y:     0.0286      Z:     4.1006     Total:     4.9103

*** Psi4 exiting successfully. Buy a developer a beer!
