                               Psi4 1.3.2 release

  ==> Input File <==

--------------------------------------------------------------------------
#psi4
#
memory 32 gb

molecule  {
0 1
  S        1.0929260     0.0000020    -0.4651450
  O        1.4426300    -1.2834400    -1.0972280
  O        1.4426290     1.2834490    -1.0972210
  C        1.7922650    -0.0000010     1.1894320
  C       -0.6626530     0.0000010    -0.1634910
  C        3.3143010    -0.0000060     1.1103310
  C       -1.3293790     1.2205490    -0.0344210
  C       -1.3031177    -1.2205493     0.1132574
  C       -2.6989260     1.2120350     0.2329170
  C       -2.6989250    -1.2120380     0.2329110
  C       -3.3803590    -0.0000020     0.3738520
  H        1.4045370     0.8911630     1.6920120
  H        1.4045310    -0.8911640     1.6920110
  H        3.7325860    -0.0000050     2.1196780
  H        3.6690290    -0.8877700     0.5832550
  H        3.6690340     0.8877530     0.5832510
  H       -0.7855660     2.1508460    -0.1756550
  H       -0.7855630    -2.1508450    -0.1756650
  H       -3.2357400     2.1525280     0.3278780
  H       -3.2357370    -2.1525330     0.3278690
  H       -4.4476770    -0.0000030     0.5806570
units angstrom
no_reorient  #important for SAPT in psi4, default
symmetry c1  #important for SAPT in psi4, default
}

set PROPERTIES_ORIGIN ["COM"]
properties('MP2/aug-cc-pvtz', properties = ['dipole'])
--------------------------------------------------------------------------

    Molecular point group: c1
  Charge       = 0
  Multiplicity = 1
  Basis Set: AUG-CC-PVTZ
    Blend: AUG-CC-PVTZ
  Basis Set: (AUG-CC-PVTZ AUX)
    Blend: AUG-CC-PVTZ-JKFIT

    Orbital Energies [Eh]
    ---------------------

    Doubly Occupied:

       1A    -92.177522     2A    -20.540012     3A    -20.539711
       4A    -11.282234     5A    -11.277391     6A    -11.270742
       7A    -11.269042     8A    -11.266438     9A    -11.262587
      10A    -11.261770    11A    -11.237475    12A     -9.147140
      13A     -6.831702    14A     -6.831247    15A     -6.831074
      16A     -1.431151    17A     -1.322560    18A     -1.180910
      19A     -1.085253    20A     -1.051058    21A     -1.041672
      22A     -0.935041    23A     -0.861611    24A     -0.853530
      25A     -0.795432    26A     -0.733853    27A     -0.685669
      28A     -0.667148    29A     -0.654779    30A     -0.647568
      31A     -0.636404    32A     -0.612508    33A     -0.610083
      34A     -0.572677    35A     -0.549353    36A     -0.541635
      37A     -0.526883    38A     -0.525973    39A     -0.518264
      40A     -0.490135    41A     -0.482381    42A     -0.462388
      43A     -0.432083    44A     -0.368730    45A     -0.361917

  @DF-RHF Final Energy:  -856.14982671476139

   => Energetics <=

    Nuclear Repulsion Energy =            727.8218370640493049
    One-Electron Energy =               -2618.6138607689222226
    Two-Electron Energy =                1034.6421969901116427
    Total Energy =                       -856.1498267147612751
  Basis Set: (AUG-CC-PVTZ AUX)
    Blend: AUG-CC-PVTZ-RI
    Molecular point group: c1

    Geometry (in Angstrom), charge = 0, multiplicity = 1:

       Center              X                  Y                   Z               Mass
    ------------   -----------------  -----------------  -----------------  -----------------
         S            1.099445864918     0.000001752625    -0.431624674252    31.972071174400
         O            1.449149864918    -1.283440247375    -1.063707674252    15.994914619570
         O            1.449148864918     1.283448752625    -1.063700674252    15.994914619570
         C            1.798784864918    -0.000001247375     1.222952325748    12.000000000000
         C           -0.656133135082     0.000000752625    -0.129970674252    12.000000000000
         C            3.320820864918    -0.000006247375     1.143851325748    12.000000000000
         C           -1.322859135082     1.220548752625    -0.000900674252    12.000000000000
         C           -1.296597835082    -1.220549547375     0.146777725748    12.000000000000
         C           -2.692406135082     1.212034752625     0.266437325748    12.000000000000
         C           -2.692405135082    -1.212038247375     0.266431325748    12.000000000000
         C           -3.373839135082    -0.000002247375     0.407372325748    12.000000000000
         H            1.411056864918     0.891162752625     1.725532325748     1.007825032230
         H            1.411050864918    -0.891164247375     1.725531325748     1.007825032230
         H            3.739105864918    -0.000005247375     2.153198325748     1.007825032230
         H            3.675548864918    -0.887770247375     0.616775325748     1.007825032230
         H            3.675553864918     0.887752752625     0.616771325748     1.007825032230
         H           -0.779046135082     2.150845752625    -0.142134674252     1.007825032230
         H           -0.779043135082    -2.150845247375    -0.142144674252     1.007825032230
         H           -3.229220135082     2.152527752625     0.361398325748     1.007825032230
         H           -3.229217135082    -2.152533247375     0.361389325748     1.007825032230
         H           -4.441157135082    -0.000003247375     0.614177325748     1.007825032230

  Basis Set: AUG-CC-PVTZ
    Blend: AUG-CC-PVTZ
  Basis Set: (AUG-CC-PVTZ AUX)
    Blend: AUG-CC-PVTZ-JKFIT
	 Reference Energy          =    -856.1498267147613888 [Eh]
	 Singles Energy            =      -0.0000000000000000 [Eh]
	 Same-Spin Energy          =      -0.5494891856989508 [Eh]
	 Opposite-Spin Energy      =      -1.6765898814081011 [Eh]
	 Correlation Energy        =      -2.2260790671070518 [Eh]
	 Total Energy              =    -858.3759057818684823 [Eh]

	 ================> DF-SCS-MP2 Energies <==================
	-----------------------------------------------------------
	 SCS Same-Spin Scale       =       0.3333333333333333 [-]
	 SCS Opposite-Spin Scale   =       1.2000000000000000 [-]
	 SCS Same-Spin Energy      =      -0.1831630618996503 [Eh]
	 SCS Opposite-Spin Energy  =      -2.0119078576897214 [Eh]
	 SCS Correlation Energy    =      -2.1950709195893716 [Eh]
	 SCS Total Energy          =    -858.3448976343507866 [Eh]
	-----------------------------------------------------------

  Dipole Moment: [D]
     X:    -2.7258      Y:     0.0538      Z:     4.0817     Total:     4.9085

*** Psi4 exiting successfully. Buy a developer a beer!
