                               Psi4 1.3.2 release

  ==> Input File <==

--------------------------------------------------------------------------
#psi4
#
memory 32 gb

molecule  {
0 1
  O        1.0848120    -0.4327500    -0.0000380
  O       -1.0848130    -0.4327500    -0.0000360
  O       -0.0000002     1.5813258    -0.1999790
  C        2.3404510     0.2903800     0.0000000
  C       -2.3404490     0.2903790     0.0000040
  C        3.4330320    -0.7534130     0.0000320
  C       -3.4330330    -0.7534120     0.0000290
  C        0.0000010     0.3626890    -0.0000340
  H        2.3799910     0.9319240    -0.8843590
  H        2.3799380     0.9319250     0.8843600
  H       -2.3799400     0.9319200     0.8843670
  H       -2.3799890     0.9319290    -0.8843510
  H        4.4117640    -0.2654940     0.0000570
  H        3.3582860    -1.3857500     0.8869440
  H        3.3583340    -1.3857540    -0.8868810
  H       -4.4117630    -0.2654900     0.0000540
  H       -3.3583340    -1.3857510    -0.8868860
  H       -3.3582920    -1.3857530     0.8869380
units angstrom
no_reorient  #important for SAPT in psi4, default
symmetry c1  #important for SAPT in psi4, default
}

set PROPERTIES_ORIGIN ["COM"]
properties('MP2/aug-cc-pvtz', properties = ['dipole'])
--------------------------------------------------------------------------

    Molecular point group: c1
  Charge       = 0
  Multiplicity = 1
  Basis Set: AUG-CC-PVTZ
    Blend: AUG-CC-PVTZ
  Basis Set: (AUG-CC-PVTZ AUX)
    Blend: AUG-CC-PVTZ-JKFIT

    Orbital Energies [Eh]
    ---------------------

    Doubly Occupied:

       1A    -20.608858     2A    -20.608834     3A    -20.544470
       4A    -11.432527     5A    -11.292317     6A    -11.292316
       7A    -11.225869     8A    -11.225868     9A     -1.495051
      10A     -1.395531    11A     -1.348550    12A     -1.057252
      13A     -1.026602    14A     -0.893745    15A     -0.845580
      16A     -0.792518    17A     -0.743513    18A     -0.706532
      19A     -0.688817    20A     -0.662856    21A     -0.599073
      22A     -0.598158    23A     -0.588388    24A     -0.555614
      25A     -0.542430    26A     -0.537706    27A     -0.519154
      28A     -0.515890    29A     -0.506104    30A     -0.468141
      31A     -0.464853    32A     -0.464359

  @DF-RHF Final Energy:  -419.93160356931293

   => Energetics <=

    Nuclear Repulsion Energy =            391.4433157402651773
    One-Electron Energy =               -1350.2548878761074320
    Two-Electron Energy =                 538.8799685665292145
    Total Energy =                       -419.9316035693129834
  Basis Set: (AUG-CC-PVTZ AUX)
    Blend: AUG-CC-PVTZ-RI
    Molecular point group: c1

    Geometry (in Angstrom), charge = 0, multiplicity = 1:

       Center              X                  Y                   Z               Mass
    ------------   -----------------  -----------------  -----------------  -----------------
         O            1.084812001974    -0.452437750115     0.027059514976    15.994914619570
         O           -1.084812998026    -0.452437750115     0.027061514976    15.994914619570
         O           -0.000000198026     1.561638049885    -0.172881485024    15.994914619570
         C            2.340451001974     0.270692249885     0.027097514976    12.000000000000
         C           -2.340448998026     0.270691249885     0.027101514976    12.000000000000
         C            3.433032001974    -0.773100750115     0.027129514976    12.000000000000
         C           -3.433032998026    -0.773099750115     0.027126514976    12.000000000000
         C            0.000001001974     0.343001249885     0.027063514976    12.000000000000
         H            2.379991001974     0.912236249885    -0.857261485024     1.007825032230
         H            2.379938001974     0.912237249885     0.911457514976     1.007825032230
         H           -2.379939998026     0.912232249885     0.911464514976     1.007825032230
         H           -2.379988998026     0.912241249885    -0.857253485024     1.007825032230
         H            4.411764001974    -0.285181750115     0.027154514976     1.007825032230
         H            3.358286001974    -1.405437750115     0.914041514976     1.007825032230
         H            3.358334001974    -1.405441750115    -0.859783485024     1.007825032230
         H           -4.411762998026    -0.285177750115     0.027151514976     1.007825032230
         H           -3.358333998026    -1.405438750115    -0.859788485024     1.007825032230
         H           -3.358291998026    -1.405440750115     0.914035514976     1.007825032230

  Basis Set: AUG-CC-PVTZ
    Blend: AUG-CC-PVTZ
  Basis Set: (AUG-CC-PVTZ AUX)
    Blend: AUG-CC-PVTZ-JKFIT
	 Reference Energy          =    -419.9316035693129265 [Eh]
	 Singles Energy            =      -0.0000000000000000 [Eh]
	 Same-Spin Energy          =      -0.4062752652579709 [Eh]
	 Opposite-Spin Energy      =      -1.3138099580343030 [Eh]
	 Correlation Energy        =      -1.7200852232922739 [Eh]
	 Total Energy              =    -421.6516887926052277 [Eh]

	 ================> DF-SCS-MP2 Energies <==================
	-----------------------------------------------------------
	 SCS Same-Spin Scale       =       0.3333333333333333 [-]
	 SCS Opposite-Spin Scale   =       1.2000000000000000 [-]
	 SCS Same-Spin Energy      =      -0.1354250884193236 [Eh]
	 SCS Opposite-Spin Energy  =      -1.5765719496411637 [Eh]
	 SCS Correlation Energy    =      -1.7119970380604872 [Eh]
	 SCS Total Energy          =    -421.6436006073734006 [Eh]
	-----------------------------------------------------------

  Dipole Moment: [D]
     X:     0.0000      Y:    -0.5658      Z:     0.3198     Total:     0.6499

*** Psi4 exiting successfully. Buy a developer a beer!
