                               Psi4 1.3.2 release

  ==> Input File <==

--------------------------------------------------------------------------
#psi4
#
memory 32 gb

molecule  {
0 1
  O        1.0848120    -0.4327500    -0.0000380
  O       -1.0848130    -0.4327500    -0.0000360
  O       -0.0000000     1.5813214    -0.0499790
  C        2.3404510     0.2903800     0.0000000
  C       -2.3404490     0.2903790     0.0000040
  C        3.4330320    -0.7534130     0.0000320
  C       -3.4330330    -0.7534120     0.0000290
  C        0.0000010     0.3626890    -0.0000340
  H        2.3799910     0.9319240    -0.8843590
  H        2.3799380     0.9319250     0.8843600
  H       -2.3799400     0.9319200     0.8843670
  H       -2.3799890     0.9319290    -0.8843510
  H        4.4117640    -0.2654940     0.0000570
  H        3.3582860    -1.3857500     0.8869440
  H        3.3583340    -1.3857540    -0.8868810
  H       -4.4117630    -0.2654900     0.0000540
  H       -3.3583340    -1.3857510    -0.8868860
  H       -3.3582920    -1.3857530     0.8869380
units angstrom
no_reorient  #important for SAPT in psi4, default
symmetry c1  #important for SAPT in psi4, default
}

set PROPERTIES_ORIGIN ["COM"]
properties('MP2/aug-cc-pvtz', properties = ['dipole'])
--------------------------------------------------------------------------

    Molecular point group: c1
  Charge       = 0
  Multiplicity = 1
  Basis Set: AUG-CC-PVTZ
    Blend: AUG-CC-PVTZ
  Basis Set: (AUG-CC-PVTZ AUX)
    Blend: AUG-CC-PVTZ-JKFIT

    Orbital Energies [Eh]
    ---------------------

    Doubly Occupied:

       1A    -20.607195     2A    -20.607171     3A    -20.544941
       4A    -11.429567     5A    -11.291980     6A    -11.291979
       7A    -11.225601     8A    -11.225600     9A     -1.496489
      10A     -1.394498    11A     -1.356642    12A     -1.056729
      13A     -1.026234    14A     -0.893100    15A     -0.845189
      16A     -0.791425    17A     -0.744387    18A     -0.707115
      19A     -0.690884    20A     -0.662340    21A     -0.598823
      22A     -0.597892    23A     -0.590785    24A     -0.555398
      25A     -0.541807    26A     -0.537391    27A     -0.519102
      28A     -0.515654    29A     -0.507065    30A     -0.469472
      31A     -0.467665    32A     -0.464111

  @DF-RHF Final Energy:  -419.93662875512103

   => Energetics <=

    Nuclear Repulsion Energy =            391.8853423839378820
    One-Electron Energy =               -1351.1354818990914737
    Two-Electron Energy =                 539.3135107600325000
    Total Energy =                       -419.9366287551210917
  Basis Set: (AUG-CC-PVTZ AUX)
    Blend: AUG-CC-PVTZ-RI
    Molecular point group: c1

    Geometry (in Angstrom), charge = 0, multiplicity = 1:

       Center              X                  Y                   Z               Mass
    ------------   -----------------  -----------------  -----------------  -----------------
         O            1.084811974878    -0.452437154013     0.006737845095    15.994914619570
         O           -1.084813025122    -0.452437154013     0.006739845095    15.994914619570
         O           -0.000000025122     1.561634245987    -0.043203154905    15.994914619570
         C            2.340450974878     0.270692845987     0.006775845095    12.000000000000
         C           -2.340449025122     0.270691845987     0.006779845095    12.000000000000
         C            3.433031974878    -0.773100154013     0.006807845095    12.000000000000
         C           -3.433033025122    -0.773099154013     0.006804845095    12.000000000000
         C            0.000000974878     0.343001845987     0.006741845095    12.000000000000
         H            2.379990974878     0.912236845987    -0.877583154905     1.007825032230
         H            2.379937974878     0.912237845987     0.891135845095     1.007825032230
         H           -2.379940025122     0.912232845987     0.891142845095     1.007825032230
         H           -2.379989025122     0.912241845987    -0.877575154905     1.007825032230
         H            4.411763974878    -0.285181154013     0.006832845095     1.007825032230
         H            3.358285974878    -1.405437154013     0.893719845095     1.007825032230
         H            3.358333974878    -1.405441154013    -0.880105154905     1.007825032230
         H           -4.411763025122    -0.285177154013     0.006829845095     1.007825032230
         H           -3.358334025122    -1.405438154013    -0.880110154905     1.007825032230
         H           -3.358292025122    -1.405440154013     0.893713845095     1.007825032230

  Basis Set: AUG-CC-PVTZ
    Blend: AUG-CC-PVTZ
  Basis Set: (AUG-CC-PVTZ AUX)
    Blend: AUG-CC-PVTZ-JKFIT
	 Reference Energy          =    -419.9366287551210348 [Eh]
	 Singles Energy            =      -0.0000000000000000 [Eh]
	 Same-Spin Energy          =      -0.4057990205393592 [Eh]
	 Opposite-Spin Energy      =      -1.3126726044352328 [Eh]
	 Correlation Energy        =      -1.7184716249745922 [Eh]
	 Total Energy              =    -421.6551003800956323 [Eh]

	 ================> DF-SCS-MP2 Energies <==================
	-----------------------------------------------------------
	 SCS Same-Spin Scale       =       0.3333333333333333 [-]
	 SCS Opposite-Spin Scale   =       1.2000000000000000 [-]
	 SCS Same-Spin Energy      =      -0.1352663401797864 [Eh]
	 SCS Opposite-Spin Energy  =      -1.5752071253222792 [Eh]
	 SCS Correlation Energy    =      -1.7104734655020657 [Eh]
	 SCS Total Energy          =    -421.6471022206230828 [Eh]
	-----------------------------------------------------------

  Dipole Moment: [D]
     X:     0.0000      Y:    -0.5191      Z:     0.0796     Total:     0.5251

*** Psi4 exiting successfully. Buy a developer a beer!
