                               Psi4 1.3.2 release

  ==> Input File <==

--------------------------------------------------------------------------
#psi4
#
memory 32 gb

molecule  {
0 1
  O        1.0848120    -0.4327500    -0.0000380
  O       -1.0848130    -0.4327500    -0.0000360
  O       -0.0000002     1.5813272    -0.2499790
  C        2.3404510     0.2903800     0.0000000
  C       -2.3404490     0.2903790     0.0000040
  C        3.4330320    -0.7534130     0.0000320
  C       -3.4330330    -0.7534120     0.0000290
  C        0.0000010     0.3626890    -0.0000340
  H        2.3799910     0.9319240    -0.8843590
  H        2.3799380     0.9319250     0.8843600
  H       -2.3799400     0.9319200     0.8843670
  H       -2.3799890     0.9319290    -0.8843510
  H        4.4117640    -0.2654940     0.0000570
  H        3.3582860    -1.3857500     0.8869440
  H        3.3583340    -1.3857540    -0.8868810
  H       -4.4117630    -0.2654900     0.0000540
  H       -3.3583340    -1.3857510    -0.8868860
  H       -3.3582920    -1.3857530     0.8869380
units angstrom
no_reorient  #important for SAPT in psi4, default
symmetry c1  #important for SAPT in psi4, default
}

set PROPERTIES_ORIGIN ["COM"]
properties('MP2/aug-cc-pvtz', properties = ['dipole'])
--------------------------------------------------------------------------

    Molecular point group: c1
  Charge       = 0
  Multiplicity = 1
  Basis Set: AUG-CC-PVTZ
    Blend: AUG-CC-PVTZ
  Basis Set: (AUG-CC-PVTZ AUX)
    Blend: AUG-CC-PVTZ-JKFIT

    Orbital Energies [Eh]
    ---------------------

    Doubly Occupied:

       1A    -20.609832     2A    -20.609807     3A    -20.544193
       4A    -11.434234     5A    -11.292516     6A    -11.292515
       7A    -11.226027     8A    -11.226026     9A     -1.494357
      10A     -1.396137    11A     -1.343703    12A     -1.057560
      13A     -1.026819    14A     -0.894124    15A     -0.845811
      16A     -0.793162    17A     -0.743049    18A     -0.706234
      19A     -0.687668    20A     -0.663159    21A     -0.599232
      22A     -0.598207    23A     -0.587068    24A     -0.555727
      25A     -0.542780    26A     -0.537907    27A     -0.519210
      28A     -0.516012    29A     -0.505595    30A     -0.467550
      31A     -0.464272    32A     -0.463131

  @DF-RHF Final Energy:  -419.92841534811657

   => Energetics <=

    Nuclear Repulsion Energy =            391.1833635937695703
    One-Electron Energy =               -1349.7363047694102534
    Two-Electron Energy =                 538.6245258275240531
    Total Energy =                       -419.9284153481165731
  Basis Set: (AUG-CC-PVTZ AUX)
    Blend: AUG-CC-PVTZ-RI
    Molecular point group: c1

    Geometry (in Angstrom), charge = 0, multiplicity = 1:

       Center              X                  Y                   Z               Mass
    ------------   -----------------  -----------------  -----------------  -----------------
         O            1.084812001974    -0.452437939784     0.033833404936    15.994914619570
         O           -1.084812998026    -0.452437939784     0.033835404936    15.994914619570
         O           -0.000000198026     1.561639260216    -0.216107595064    15.994914619570
         C            2.340451001974     0.270692060216     0.033871404936    12.000000000000
         C           -2.340448998026     0.270691060216     0.033875404936    12.000000000000
         C            3.433032001974    -0.773100939784     0.033903404936    12.000000000000
         C           -3.433032998026    -0.773099939784     0.033900404936    12.000000000000
         C            0.000001001974     0.343001060216     0.033837404936    12.000000000000
         H            2.379991001974     0.912236060216    -0.850487595064     1.007825032230
         H            2.379938001974     0.912237060216     0.918231404936     1.007825032230
         H           -2.379939998026     0.912232060216     0.918238404936     1.007825032230
         H           -2.379988998026     0.912241060216    -0.850479595064     1.007825032230
         H            4.411764001974    -0.285181939784     0.033928404936     1.007825032230
         H            3.358286001974    -1.405437939784     0.920815404936     1.007825032230
         H            3.358334001974    -1.405441939784    -0.853009595064     1.007825032230
         H           -4.411762998026    -0.285177939784     0.033925404936     1.007825032230
         H           -3.358333998026    -1.405438939784    -0.853014595064     1.007825032230
         H           -3.358291998026    -1.405440939784     0.920809404936     1.007825032230

  Basis Set: AUG-CC-PVTZ
    Blend: AUG-CC-PVTZ
  Basis Set: (AUG-CC-PVTZ AUX)
    Blend: AUG-CC-PVTZ-JKFIT
	 Reference Energy          =    -419.9284153481165731 [Eh]
	 Singles Energy            =      -0.0000000000000000 [Eh]
	 Same-Spin Energy          =      -0.4065549225025408 [Eh]
	 Opposite-Spin Energy      =      -1.3144877851570083 [Eh]
	 Correlation Energy        =      -1.7210427076595489 [Eh]
	 Total Energy              =    -421.6494580557761083 [Eh]

	 ================> DF-SCS-MP2 Energies <==================
	-----------------------------------------------------------
	 SCS Same-Spin Scale       =       0.3333333333333333 [-]
	 SCS Opposite-Spin Scale   =       1.2000000000000000 [-]
	 SCS Same-Spin Energy      =      -0.1355183075008469 [Eh]
	 SCS Opposite-Spin Energy  =      -1.5773853421884099 [Eh]
	 SCS Correlation Energy    =      -1.7129036496892569 [Eh]
	 SCS Total Energy          =    -421.6413189978058540 [Eh]
	-----------------------------------------------------------

  Dipole Moment: [D]
     X:     0.0000      Y:    -0.5930      Z:     0.4010     Total:     0.7158

*** Psi4 exiting successfully. Buy a developer a beer!
