                               Psi4 1.3.2 release

  ==> Input File <==

--------------------------------------------------------------------------
#psi4
#
memory 32 gb

molecule  {
0 1
  O        1.0848120    -0.4327500    -0.0000380
  O       -1.0848130    -0.4327500    -0.0000360
  O        0.0000000     1.5813200     0.0000210
  C        2.3404510     0.2903800     0.0000000
  C       -2.3404490     0.2903790     0.0000040
  C        3.4330320    -0.7534130     0.0000320
  C       -3.4330330    -0.7534120     0.0000290
  C        0.0000010     0.3626890    -0.0000340
  H        2.3799910     0.9319240    -0.8843590
  H        2.3799380     0.9319250     0.8843600
  H       -2.3799400     0.9319200     0.8843670
  H       -2.3799890     0.9319290    -0.8843510
  H        4.4117640    -0.2654940     0.0000570
  H        3.3582860    -1.3857500     0.8869440
  H        3.3583340    -1.3857540    -0.8868810
  H       -4.4117630    -0.2654900     0.0000540
  H       -3.3583340    -1.3857510    -0.8868860
  H       -3.3582920    -1.3857530     0.8869380
units angstrom
no_reorient  #important for SAPT in psi4, default
symmetry c1  #important for SAPT in psi4, default
}

set PROPERTIES_ORIGIN ["COM"]
properties('MP2/aug-cc-pvtz', properties = ['dipole'])
--------------------------------------------------------------------------

    Molecular point group: c1
  Charge       = 0
  Multiplicity = 1
  Basis Set: AUG-CC-PVTZ
    Blend: AUG-CC-PVTZ
  Basis Set: (AUG-CC-PVTZ AUX)
    Blend: AUG-CC-PVTZ-JKFIT

    Orbital Energies [Eh]
    ---------------------

    Doubly Occupied:

       1A    -20.607083     2A    -20.607058     3A    -20.544972
       4A    -11.429365     5A    -11.291958     6A    -11.291956
       7A    -11.225583     8A    -11.225582     9A     -1.496599
      10A     -1.394428    11A     -1.357180    12A     -1.056693
      13A     -1.026210    14A     -0.893056    15A     -0.845162
      16A     -0.791351    17A     -0.744450    18A     -0.707159
      19A     -0.691028    20A     -0.662305    21A     -0.598807
      22A     -0.597861    23A     -0.590958    24A     -0.555382
      25A     -0.541764    26A     -0.537371    27A     -0.519101
      28A     -0.515637    29A     -0.507134    30A     -0.469569
      31A     -0.467849    32A     -0.464085

  @DF-RHF Final Energy:  -419.93694911851173

   => Energetics <=

    Nuclear Repulsion Energy =            391.9152065181872331
    One-Electron Energy =               -1351.1949198870909186
    Two-Electron Energy =                 539.3427642503919515
    Total Energy =                       -419.9369491185117340
  Basis Set: (AUG-CC-PVTZ AUX)
    Blend: AUG-CC-PVTZ-RI
    Molecular point group: c1

    Geometry (in Angstrom), charge = 0, multiplicity = 1:

       Center              X                  Y                   Z               Mass
    ------------   -----------------  -----------------  -----------------  -----------------
         O            1.084811974878    -0.452436964344    -0.000036044866    15.994914619570
         O           -1.084813025122    -0.452436964344    -0.000034044866    15.994914619570
         O           -0.000000025122     1.561633035656     0.000022955134    15.994914619570
         C            2.340450974878     0.270693035656     0.000001955134    12.000000000000
         C           -2.340449025122     0.270692035656     0.000005955134    12.000000000000
         C            3.433031974878    -0.773099964344     0.000033955134    12.000000000000
         C           -3.433033025122    -0.773098964344     0.000030955134    12.000000000000
         C            0.000000974878     0.343002035656    -0.000032044866    12.000000000000
         H            2.379990974878     0.912237035656    -0.884357044866     1.007825032230
         H            2.379937974878     0.912238035656     0.884361955134     1.007825032230
         H           -2.379940025122     0.912233035656     0.884368955134     1.007825032230
         H           -2.379989025122     0.912242035656    -0.884349044866     1.007825032230
         H            4.411763974878    -0.285180964344     0.000058955134     1.007825032230
         H            3.358285974878    -1.405436964344     0.886945955134     1.007825032230
         H            3.358333974878    -1.405440964344    -0.886879044866     1.007825032230
         H           -4.411763025122    -0.285176964344     0.000055955134     1.007825032230
         H           -3.358334025122    -1.405437964344    -0.886884044866     1.007825032230
         H           -3.358292025122    -1.405439964344     0.886939955134     1.007825032230

  Basis Set: AUG-CC-PVTZ
    Blend: AUG-CC-PVTZ
  Basis Set: (AUG-CC-PVTZ AUX)
    Blend: AUG-CC-PVTZ-JKFIT
	 Reference Energy          =    -419.9369491185117340 [Eh]
	 Singles Energy            =      -0.0000000000000000 [Eh]
	 Same-Spin Energy          =      -0.4057668742354933 [Eh]
	 Opposite-Spin Energy      =      -1.3125966173858310 [Eh]
	 Correlation Energy        =      -1.7183634916213242 [Eh]
	 Total Energy              =    -421.6553126101330804 [Eh]

	 ================> DF-SCS-MP2 Energies <==================
	-----------------------------------------------------------
	 SCS Same-Spin Scale       =       0.3333333333333333 [-]
	 SCS Opposite-Spin Scale   =       1.2000000000000000 [-]
	 SCS Same-Spin Energy      =      -0.1352556247451644 [Eh]
	 SCS Opposite-Spin Energy  =      -1.5751159408629971 [Eh]
	 SCS Correlation Energy    =      -1.7103715656081615 [Eh]
	 SCS Total Energy          =    -421.6473206841199044 [Eh]
	-----------------------------------------------------------

  Dipole Moment: [D]
     X:     0.0000      Y:    -0.5159      Z:     0.0000     Total:     0.5159

*** Psi4 exiting successfully. Buy a developer a beer!
