                               Psi4 1.3.2 release

  ==> Input File <==

--------------------------------------------------------------------------
#psi4
#
memory 32 gb

molecule  {
0 1
  O        1.0848120    -0.4327500    -0.0000380
  O       -1.0848130    -0.4327500    -0.0000360
  O       -0.0000001     1.5813243    -0.1499790
  C        2.3404510     0.2903800     0.0000000
  C       -2.3404490     0.2903790     0.0000040
  C        3.4330320    -0.7534130     0.0000320
  C       -3.4330330    -0.7534120     0.0000290
  C        0.0000010     0.3626890    -0.0000340
  H        2.3799910     0.9319240    -0.8843590
  H        2.3799380     0.9319250     0.8843600
  H       -2.3799400     0.9319200     0.8843670
  H       -2.3799890     0.9319290    -0.8843510
  H        4.4117640    -0.2654940     0.0000570
  H        3.3582860    -1.3857500     0.8869440
  H        3.3583340    -1.3857540    -0.8868810
  H       -4.4117630    -0.2654900     0.0000540
  H       -3.3583340    -1.3857510    -0.8868860
  H       -3.3582920    -1.3857530     0.8869380
units angstrom
no_reorient  #important for SAPT in psi4, default
symmetry c1  #important for SAPT in psi4, default
}

set PROPERTIES_ORIGIN ["COM"]
properties('MP2/aug-cc-pvtz', properties = ['dipole'])
--------------------------------------------------------------------------

    Molecular point group: c1
  Charge       = 0
  Multiplicity = 1
  Basis Set: AUG-CC-PVTZ
    Blend: AUG-CC-PVTZ
  Basis Set: (AUG-CC-PVTZ AUX)
    Blend: AUG-CC-PVTZ-JKFIT

    Orbital Energies [Eh]
    ---------------------

    Doubly Occupied:

       1A    -20.608089     2A    -20.608064     3A    -20.544688
       4A    -11.431164     5A    -11.292161     6A    -11.292159
       7A    -11.225744     8A    -11.225744     9A     -1.495675
      10A     -1.395052    11A     -1.352327    12A     -1.057009
      13A     -1.026431    14A     -0.893447    15A     -0.845398
      16A     -0.792010    17A     -0.743905    18A     -0.706790
      19A     -0.689758    20A     -0.662617    21A     -0.598954
      22A     -0.598072    23A     -0.589467    24A     -0.555517
      25A     -0.542146    26A     -0.537555    27A     -0.519123
      28A     -0.515784    29A     -0.506534    30A     -0.468727
      31A     -0.466176    32A     -0.464286

  @DF-RHF Final Energy:  -419.93399688731239

   => Energetics <=

    Nuclear Repulsion Energy =            391.6482060018706193
    One-Electron Energy =               -1350.6632595595003750
    Two-Electron Energy =                 539.0810566703172526
    Total Energy =                       -419.9339968873124462
  Basis Set: (AUG-CC-PVTZ AUX)
    Blend: AUG-CC-PVTZ-RI
    Molecular point group: c1

    Geometry (in Angstrom), charge = 0, multiplicity = 1:

       Center              X                  Y                   Z               Mass
    ------------   -----------------  -----------------  -----------------  -----------------
         O            1.084811988426    -0.452437546899     0.020285625015    15.994914619570
         O           -1.084813011574    -0.452437546899     0.020287625015    15.994914619570
         O           -0.000000111574     1.561636753101    -0.129655374985    15.994914619570
         C            2.340450988426     0.270692453101     0.020323625015    12.000000000000
         C           -2.340449011574     0.270691453101     0.020327625015    12.000000000000
         C            3.433031988426    -0.773100546899     0.020355625015    12.000000000000
         C           -3.433033011574    -0.773099546899     0.020352625015    12.000000000000
         C            0.000000988426     0.343001453101     0.020289625015    12.000000000000
         H            2.379990988426     0.912236453101    -0.864035374985     1.007825032230
         H            2.379937988426     0.912237453101     0.904683625015     1.007825032230
         H           -2.379940011574     0.912232453101     0.904690625015     1.007825032230
         H           -2.379989011574     0.912241453101    -0.864027374985     1.007825032230
         H            4.411763988426    -0.285181546899     0.020380625015     1.007825032230
         H            3.358285988426    -1.405437546899     0.907267625015     1.007825032230
         H            3.358333988426    -1.405441546899    -0.866557374985     1.007825032230
         H           -4.411763011574    -0.285177546899     0.020377625015     1.007825032230
         H           -3.358334011574    -1.405438546899    -0.866562374985     1.007825032230
         H           -3.358292011574    -1.405440546899     0.907261625015     1.007825032230

  Basis Set: AUG-CC-PVTZ
    Blend: AUG-CC-PVTZ
  Basis Set: (AUG-CC-PVTZ AUX)
    Blend: AUG-CC-PVTZ-JKFIT
	 Reference Energy          =    -419.9339968873123894 [Eh]
	 Singles Energy            =      -0.0000000000000000 [Eh]
	 Same-Spin Energy          =      -0.4060545317756001 [Eh]
	 Opposite-Spin Energy      =      -1.3132801149934497 [Eh]
	 Correlation Energy        =      -1.7193346467690498 [Eh]
	 Total Energy              =    -421.6533315340814170 [Eh]

	 ================> DF-SCS-MP2 Energies <==================
	-----------------------------------------------------------
	 SCS Same-Spin Scale       =       0.3333333333333333 [-]
	 SCS Opposite-Spin Scale   =       1.2000000000000000 [-]
	 SCS Same-Spin Energy      =      -0.1353515105918667 [Eh]
	 SCS Opposite-Spin Energy  =      -1.5759361379921395 [Eh]
	 SCS Correlation Energy    =      -1.7112876485840063 [Eh]
	 SCS Total Energy          =    -421.6452845358963941 [Eh]
	-----------------------------------------------------------

  Dipole Moment: [D]
     X:     0.0000      Y:    -0.5442      Z:     0.2393     Total:     0.5945

*** Psi4 exiting successfully. Buy a developer a beer!
