                               Psi4 1.3.2 release

  ==> Input File <==

--------------------------------------------------------------------------
#psi4
#
memory 32 gb

molecule  {
0 1
  O        1.0848120    -0.4327500    -0.0000380
  O       -1.0848130    -0.4327500    -0.0000360
  O       -0.0000001     1.5813229    -0.0999790
  C        2.3404510     0.2903800     0.0000000
  C       -2.3404490     0.2903790     0.0000040
  C        3.4330320    -0.7534130     0.0000320
  C       -3.4330330    -0.7534120     0.0000290
  C        0.0000010     0.3626890    -0.0000340
  H        2.3799910     0.9319240    -0.8843590
  H        2.3799380     0.9319250     0.8843600
  H       -2.3799400     0.9319200     0.8843670
  H       -2.3799890     0.9319290    -0.8843510
  H        4.4117640    -0.2654940     0.0000570
  H        3.3582860    -1.3857500     0.8869440
  H        3.3583340    -1.3857540    -0.8868810
  H       -4.4117630    -0.2654900     0.0000540
  H       -3.3583340    -1.3857510    -0.8868860
  H       -3.3582920    -1.3857530     0.8869380
units angstrom
no_reorient  #important for SAPT in psi4, default
symmetry c1  #important for SAPT in psi4, default
}

set PROPERTIES_ORIGIN ["COM"]
properties('MP2/aug-cc-pvtz', properties = ['dipole'])
--------------------------------------------------------------------------

    Molecular point group: c1
  Charge       = 0
  Multiplicity = 1
  Basis Set: AUG-CC-PVTZ
    Blend: AUG-CC-PVTZ
  Basis Set: (AUG-CC-PVTZ AUX)
    Blend: AUG-CC-PVTZ-JKFIT

    Orbital Energies [Eh]
    ---------------------

    Doubly Occupied:

       1A    -20.607532     2A    -20.607508     3A    -20.544846
       4A    -11.430171     5A    -11.292048     6A    -11.292047
       7A    -11.225655     8A    -11.225654     9A     -1.496170
      10A     -1.394707    11A     -1.355024    12A     -1.056834
      13A     -1.026308    14A     -0.893231    15A     -0.845267
      16A     -0.791645    17A     -0.744201    18A     -0.706989
      19A     -0.690455    20A     -0.662444    21A     -0.598871
      22A     -0.597972    23A     -0.590277    24A     -0.555444
      25A     -0.541936    26A     -0.537451    27A     -0.519108
      28A     -0.515704    29A     -0.506861    30A     -0.469187
      31A     -0.467110    32A     -0.464186

  @DF-RHF Final Energy:  -419.93565546770492

   => Energetics <=

    Nuclear Repulsion Energy =            391.7960375354610960
    One-Electron Energy =               -1350.9576980994697806
    Two-Electron Energy =                 539.2260050963037656
    Total Energy =                       -419.9356554677049189
  Basis Set: (AUG-CC-PVTZ AUX)
    Blend: AUG-CC-PVTZ-RI
    Molecular point group: c1

    Geometry (in Angstrom), charge = 0, multiplicity = 1:

       Center              X                  Y                   Z               Mass
    ------------   -----------------  -----------------  -----------------  -----------------
         O            1.084811988426    -0.452437357230     0.013511735055    15.994914619570
         O           -1.084813011574    -0.452437357230     0.013513735055    15.994914619570
         O           -0.000000111574     1.561635542770    -0.086429264945    15.994914619570
         C            2.340450988426     0.270692642770     0.013549735055    12.000000000000
         C           -2.340449011574     0.270691642770     0.013553735055    12.000000000000
         C            3.433031988426    -0.773100357230     0.013581735055    12.000000000000
         C           -3.433033011574    -0.773099357230     0.013578735055    12.000000000000
         C            0.000000988426     0.343001642770     0.013515735055    12.000000000000
         H            2.379990988426     0.912236642770    -0.870809264945     1.007825032230
         H            2.379937988426     0.912237642770     0.897909735055     1.007825032230
         H           -2.379940011574     0.912232642770     0.897916735055     1.007825032230
         H           -2.379989011574     0.912241642770    -0.870801264945     1.007825032230
         H            4.411763988426    -0.285181357230     0.013606735055     1.007825032230
         H            3.358285988426    -1.405437357230     0.900493735055     1.007825032230
         H            3.358333988426    -1.405441357230    -0.873331264945     1.007825032230
         H           -4.411763011574    -0.285177357230     0.013603735055     1.007825032230
         H           -3.358334011574    -1.405438357230    -0.873336264945     1.007825032230
         H           -3.358292011574    -1.405440357230     0.900487735055     1.007825032230

  Basis Set: AUG-CC-PVTZ
    Blend: AUG-CC-PVTZ
  Basis Set: (AUG-CC-PVTZ AUX)
    Blend: AUG-CC-PVTZ-JKFIT
	 Reference Energy          =    -419.9356554677049189 [Eh]
	 Singles Energy            =      -0.0000000000000000 [Eh]
	 Same-Spin Energy          =      -0.4058952277614875 [Eh]
	 Opposite-Spin Energy      =      -1.3129006071863274 [Eh]
	 Correlation Energy        =      -1.7187958349478150 [Eh]
	 Total Energy              =    -421.6544513026527170 [Eh]

	 ================> DF-SCS-MP2 Energies <==================
	-----------------------------------------------------------
	 SCS Same-Spin Scale       =       0.3333333333333333 [-]
	 SCS Opposite-Spin Scale   =       1.2000000000000000 [-]
	 SCS Same-Spin Energy      =      -0.1352984092538291 [Eh]
	 SCS Opposite-Spin Energy  =      -1.5754807286235928 [Eh]
	 SCS Correlation Energy    =      -1.7107791378774220 [Eh]
	 SCS Total Energy          =    -421.6464346055823285 [Eh]
	-----------------------------------------------------------

  Dipole Moment: [D]
     X:     0.0000      Y:    -0.5285      Z:     0.1593     Total:     0.5520

*** Psi4 exiting successfully. Buy a developer a beer!
