                               Psi4 1.3.2 release

  ==> Input File <==

--------------------------------------------------------------------------
#psi4
#
memory 32 gb

molecule  {
0 1
  O        1.0848120    -0.4327500    -0.0000380
  O       -1.0848130    -0.4327500    -0.0000360
  O       -0.0000003     1.5813286    -0.2999790
  C        2.3404510     0.2903800     0.0000000
  C       -2.3404490     0.2903790     0.0000040
  C        3.4330320    -0.7534130     0.0000320
  C       -3.4330330    -0.7534120     0.0000290
  C        0.0000010     0.3626890    -0.0000340
  H        2.3799910     0.9319240    -0.8843590
  H        2.3799380     0.9319250     0.8843600
  H       -2.3799400     0.9319200     0.8843670
  H       -2.3799890     0.9319290    -0.8843510
  H        4.4117640    -0.2654940     0.0000570
  H        3.3582860    -1.3857500     0.8869440
  H        3.3583340    -1.3857540    -0.8868810
  H       -4.4117630    -0.2654900     0.0000540
  H       -3.3583340    -1.3857510    -0.8868860
  H       -3.3582920    -1.3857530     0.8869380
units angstrom
no_reorient  #important for SAPT in psi4, default
symmetry c1  #important for SAPT in psi4, default
}

set PROPERTIES_ORIGIN ["COM"]
properties('MP2/aug-cc-pvtz', properties = ['dipole'])
--------------------------------------------------------------------------

    Molecular point group: c1
  Charge       = 0
  Multiplicity = 1
  Basis Set: AUG-CC-PVTZ
    Blend: AUG-CC-PVTZ
  Basis Set: (AUG-CC-PVTZ AUX)
    Blend: AUG-CC-PVTZ-JKFIT

    Orbital Energies [Eh]
    ---------------------

    Doubly Occupied:

       1A    -20.610996     2A    -20.610972     3A    -20.543861
       4A    -11.436250     5A    -11.292756     6A    -11.292755
       7A    -11.226218     8A    -11.226217     9A     -1.493653
      10A     -1.396865    11A     -1.337810    12A     -1.057930
      13A     -1.027082    14A     -0.894577    15A     -0.846090
      16A     -0.793940    17A     -0.742538    18A     -0.705917
      19A     -0.686353    20A     -0.663521    21A     -0.599435
      22A     -0.598202    23A     -0.585525    24A     -0.555848
      25A     -0.543189    26A     -0.538162    27A     -0.519301
      28A     -0.516141    29A     -0.505034    30A     -0.467190
      31A     -0.463782    32A     -0.461005

  @DF-RHF Final Energy:  -419.92436885630235

   => Energetics <=

    Nuclear Repulsion Energy =            390.8707831968247888
    One-Electron Energy =               -1349.1120722493180892
    Two-Electron Energy =                 538.3169201961909494
    Total Energy =                       -419.9243688563024079
  Basis Set: (AUG-CC-PVTZ AUX)
    Blend: AUG-CC-PVTZ-RI
    Molecular point group: c1

    Geometry (in Angstrom), charge = 0, multiplicity = 1:

       Center              X                  Y                   Z               Mass
    ------------   -----------------  -----------------  -----------------  -----------------
         O            1.084812015521    -0.452438129453     0.040607294897    15.994914619570
         O           -1.084812984479    -0.452438129453     0.040609294897    15.994914619570
         O           -0.000000284479     1.561640470547    -0.259333705103    15.994914619570
         C            2.340451015521     0.270691870547     0.040645294897    12.000000000000
         C           -2.340448984479     0.270690870547     0.040649294897    12.000000000000
         C            3.433032015521    -0.773101129453     0.040677294897    12.000000000000
         C           -3.433032984479    -0.773100129453     0.040674294897    12.000000000000
         C            0.000001015521     0.343000870547     0.040611294897    12.000000000000
         H            2.379991015521     0.912235870547    -0.843713705103     1.007825032230
         H            2.379938015521     0.912236870547     0.925005294897     1.007825032230
         H           -2.379939984479     0.912231870547     0.925012294897     1.007825032230
         H           -2.379988984479     0.912240870547    -0.843705705103     1.007825032230
         H            4.411764015521    -0.285182129453     0.040702294897     1.007825032230
         H            3.358286015521    -1.405438129453     0.927589294897     1.007825032230
         H            3.358334015521    -1.405442129453    -0.846235705103     1.007825032230
         H           -4.411762984479    -0.285178129453     0.040699294897     1.007825032230
         H           -3.358333984479    -1.405439129453    -0.846240705103     1.007825032230
         H           -3.358291984479    -1.405441129453     0.927583294897     1.007825032230

  Basis Set: AUG-CC-PVTZ
    Blend: AUG-CC-PVTZ
  Basis Set: (AUG-CC-PVTZ AUX)
    Blend: AUG-CC-PVTZ-JKFIT
	 Reference Energy          =    -419.9243688563023511 [Eh]
	 Singles Energy            =      -0.0000000000000000 [Eh]
	 Same-Spin Energy          =      -0.4068900082762045 [Eh]
	 Opposite-Spin Energy      =      -1.3153095300971549 [Eh]
	 Correlation Energy        =      -1.7221995383733595 [Eh]
	 Total Energy              =    -421.6465683946756826 [Eh]

	 ================> DF-SCS-MP2 Energies <==================
	-----------------------------------------------------------
	 SCS Same-Spin Scale       =       0.3333333333333333 [-]
	 SCS Opposite-Spin Scale   =       1.2000000000000000 [-]
	 SCS Same-Spin Energy      =      -0.1356300027587348 [Eh]
	 SCS Opposite-Spin Energy  =      -1.5783714361165859 [Eh]
	 SCS Correlation Energy    =      -1.7140014388753206 [Eh]
	 SCS Total Energy          =    -421.6383702951776513 [Eh]
	-----------------------------------------------------------

  Dipole Moment: [D]
     X:     0.0000      Y:    -0.6254      Z:     0.4827     Total:     0.7901

*** Psi4 exiting successfully. Buy a developer a beer!
