                               Psi4 1.3.2 release

  ==> Input File <==

--------------------------------------------------------------------------
#psi4
#
memory 32 gb

molecule  {
0 1
  O        0.6058420     1.9734460    -0.2200840
  N       -1.4635990     1.0552220     0.1204360
  C        0.3766720    -0.4191730    -0.2885420
  C        1.8561007    -0.4437613    -0.5347423
  C       -0.0912220     0.9510960    -0.1351610
  C       -0.5056070    -1.4668030    -0.1721790
  C        2.6774180    -0.3153160     0.7169370
  C       -1.8875120    -1.2656950     0.0948440
  C       -2.3418770     0.0139190     0.2382100
  H        2.0261970    -1.6222750    -0.8897120
  H        2.1501830     0.0866220    -1.3340180
  H       -0.1325060    -2.4831380    -0.2931490
  H        3.7430730    -0.4588370     0.5145620
  H        2.3896250    -0.9874320     1.5306780
  H        2.5223080     0.7158110     1.0392930
  H       -1.7867130     2.0140380     0.2231480
  H       -2.5740470    -2.0997260     0.1840740
  H       -3.3752970     0.2746480     0.4421650
units angstrom
no_reorient  #important for SAPT in psi4, default
symmetry c1  #important for SAPT in psi4, default
}

set PROPERTIES_ORIGIN ["COM"]
properties('MP2/aug-cc-pvtz', properties = ['dipole'])
--------------------------------------------------------------------------

    Molecular point group: c1
  Charge       = 0
  Multiplicity = 1
  Basis Set: AUG-CC-PVTZ
    Blend: AUG-CC-PVTZ
  Basis Set: (AUG-CC-PVTZ AUX)
    Blend: AUG-CC-PVTZ-JKFIT

    Orbital Energies [Eh]
    ---------------------

    Doubly Occupied:

       1A    -20.510570     2A    -15.625802     3A    -11.351085
       4A    -11.310989     5A    -11.269427     6A    -11.246211
       7A    -11.244073     8A    -11.229275     9A    -11.205902
      10A     -1.371267    11A     -1.271755    12A     -1.118501
      13A     -1.058407    14A     -0.998292    15A     -0.893288
      16A     -0.864927    17A     -0.820174    18A     -0.738330
      19A     -0.701954    20A     -0.672969    21A     -0.636489
      22A     -0.614251    23A     -0.605608    24A     -0.580249
      25A     -0.570410    26A     -0.547291    27A     -0.532227
      28A     -0.497006    29A     -0.483575    30A     -0.447453
      31A     -0.419708    32A     -0.412845    33A     -0.308408

  @DF-RHF Final Energy:  -399.75343281989200

   => Energetics <=

    Nuclear Repulsion Energy =            433.3528229111798282
    One-Electron Energy =               -1401.8950811389763658
    Two-Electron Energy =                 568.7888254079045964
    Total Energy =                       -399.7534328198919411
  Basis Set: (AUG-CC-PVTZ AUX)
    Blend: AUG-CC-PVTZ-RI
    Molecular point group: c1

    Geometry (in Angstrom), charge = 0, multiplicity = 1:

       Center              X                  Y                   Z               Mass
    ------------   -----------------  -----------------  -----------------  -----------------
         O            0.644805404536     1.921469389417    -0.208925809745    15.994914619570
         N           -1.424635595464     1.003245389417     0.131594190255    14.003074004430
         C            0.415635404536    -0.471149610583    -0.277383809745    12.000000000000
         C            1.895064104536    -0.495737910583    -0.523584109745    12.000000000000
         C           -0.052258595464     0.899119389417    -0.124002809745    12.000000000000
         C           -0.466643595464    -1.518779610583    -0.161020809745    12.000000000000
         C            2.716381404536    -0.367292610583     0.728095190255    12.000000000000
         C           -1.848548595464    -1.317671610583     0.106002190255    12.000000000000
         C           -2.302913595464    -0.038057610583     0.249368190255    12.000000000000
         H            2.065160404536    -1.674251610583    -0.878553809745     1.007825032230
         H            2.189146404536     0.034645389417    -1.322859809745     1.007825032230
         H           -0.093542595464    -2.535114610583    -0.281990809745     1.007825032230
         H            3.782036404536    -0.510813610583     0.525720190255     1.007825032230
         H            2.428588404536    -1.039408610583     1.541836190255     1.007825032230
         H            2.561271404536     0.663834389417     1.050451190255     1.007825032230
         H           -1.747749595464     1.962061389417     0.234306190255     1.007825032230
         H           -2.535083595464    -2.151702610583     0.195232190255     1.007825032230
         H           -3.336333595464     0.222671389417     0.453323190255     1.007825032230

  Basis Set: AUG-CC-PVTZ
    Blend: AUG-CC-PVTZ
  Basis Set: (AUG-CC-PVTZ AUX)
    Blend: AUG-CC-PVTZ-JKFIT
	 Reference Energy          =    -399.7534328198919980 [Eh]
	 Singles Energy            =      -0.0000000000000000 [Eh]
	 Same-Spin Energy          =      -0.4246943000007412 [Eh]
	 Opposite-Spin Energy      =      -1.3415400963683894 [Eh]
	 Correlation Energy        =      -1.7662343963691307 [Eh]
	 Total Energy              =    -401.5196672162611549 [Eh]

	 ================> DF-SCS-MP2 Energies <==================
	-----------------------------------------------------------
	 SCS Same-Spin Scale       =       0.3333333333333333 [-]
	 SCS Opposite-Spin Scale   =       1.2000000000000000 [-]
	 SCS Same-Spin Energy      =      -0.1415647666669137 [Eh]
	 SCS Opposite-Spin Energy  =      -1.6098481156420672 [Eh]
	 SCS Correlation Energy    =      -1.7514128823089810 [Eh]
	 SCS Total Energy          =    -401.5048457022009529 [Eh]
	-----------------------------------------------------------

  Dipole Moment: [D]
     X:    -3.0115      Y:    -2.1137      Z:     0.5367     Total:     3.7182

*** Psi4 exiting successfully. Buy a developer a beer!
