                               Psi4 1.3.2 release

  ==> Input File <==

--------------------------------------------------------------------------
#psi4
#
memory 32 gb

molecule  {
0 1
  O        0.6058420     1.9734460    -0.2200840
  N       -1.4635990     1.0552220     0.1204360
  C        0.3766720    -0.4191730    -0.2885420
  C        1.8373595    -0.6521668    -0.5376087
  C       -0.0912220     0.9510960    -0.1351610
  C       -0.5056070    -1.4668030    -0.1721790
  C        2.6774180    -0.3153160     0.7169370
  C       -1.8875120    -1.2656950     0.0948440
  C       -2.3418770     0.0139190     0.2382100
  H        2.0261970    -1.6222750    -0.8897120
  H        2.1501830     0.0866220    -1.3340180
  H       -0.1325060    -2.4831380    -0.2931490
  H        3.7430730    -0.4588370     0.5145620
  H        2.3896250    -0.9874320     1.5306780
  H        2.5223080     0.7158110     1.0392930
  H       -1.7867130     2.0140380     0.2231480
  H       -2.5740470    -2.0997260     0.1840740
  H       -3.3752970     0.2746480     0.4421650
units angstrom
no_reorient  #important for SAPT in psi4, default
symmetry c1  #important for SAPT in psi4, default
}

set PROPERTIES_ORIGIN ["COM"]
properties('MP2/aug-cc-pvtz', properties = ['dipole'])
--------------------------------------------------------------------------

    Molecular point group: c1
  Charge       = 0
  Multiplicity = 1
  Basis Set: AUG-CC-PVTZ
    Blend: AUG-CC-PVTZ
  Basis Set: (AUG-CC-PVTZ AUX)
    Blend: AUG-CC-PVTZ-JKFIT

    Orbital Energies [Eh]
    ---------------------

    Doubly Occupied:

       1A    -20.510002     2A    -15.626362     3A    -11.353893
       4A    -11.309024     5A    -11.264948     6A    -11.245333
       7A    -11.242233     8A    -11.223933     9A    -11.206465
      10A     -1.370295    11A     -1.271306    12A     -1.117795
      13A     -1.054340    14A     -0.992084    15A     -0.887721
      16A     -0.869687    17A     -0.818797    18A     -0.738089
      19A     -0.703096    20A     -0.671989    21A     -0.624280
      22A     -0.611404    23A     -0.602019    24A     -0.594557
      25A     -0.563662    26A     -0.546973    27A     -0.511219
      28A     -0.502840    29A     -0.483245    30A     -0.472572
      31A     -0.423189    32A     -0.409655    33A     -0.305763

  @DF-RHF Final Energy:  -399.77643414298268

   => Energetics <=

    Nuclear Repulsion Energy =            432.3812363884300112
    One-Electron Energy =               -1400.0578075924199766
    Two-Electron Energy =                 567.9001370610072854
    Total Energy =                       -399.7764341429826800
  Basis Set: (AUG-CC-PVTZ AUX)
    Blend: AUG-CC-PVTZ-RI
    Molecular point group: c1

    Geometry (in Angstrom), charge = 0, multiplicity = 1:

       Center              X                  Y                   Z               Mass
    ------------   -----------------  -----------------  -----------------  -----------------
         O            0.646632797876     1.941790330595    -0.208646316422    15.994914619570
         N           -1.422808202124     1.023566330595     0.131873683578    14.003074004430
         C            0.417462797876    -0.450828669405    -0.277104316422    12.000000000000
         C            1.878150297876    -0.683822469405    -0.526171016422    12.000000000000
         C           -0.050431202124     0.919440330595    -0.123723316422    12.000000000000
         C           -0.464816202124    -1.498458669405    -0.160741316422    12.000000000000
         C            2.718208797876    -0.346971669405     0.728374683578    12.000000000000
         C           -1.846721202124    -1.297350669405     0.106281683578    12.000000000000
         C           -2.301086202124    -0.017736669405     0.249647683578    12.000000000000
         H            2.066987797876    -1.653930669405    -0.878274316422     1.007825032230
         H            2.190973797876     0.054966330595    -1.322580316422     1.007825032230
         H           -0.091715202124    -2.514793669405    -0.281711316422     1.007825032230
         H            3.783863797876    -0.490492669405     0.525999683578     1.007825032230
         H            2.430415797876    -1.019087669405     1.542115683578     1.007825032230
         H            2.563098797876     0.684155330595     1.050730683578     1.007825032230
         H           -1.745922202124     1.982382330595     0.234585683578     1.007825032230
         H           -2.533256202124    -2.131381669405     0.195511683578     1.007825032230
         H           -3.334506202124     0.242992330595     0.453602683578     1.007825032230

  Basis Set: AUG-CC-PVTZ
    Blend: AUG-CC-PVTZ
  Basis Set: (AUG-CC-PVTZ AUX)
    Blend: AUG-CC-PVTZ-JKFIT
	 Reference Energy          =    -399.7764341429826800 [Eh]
	 Singles Energy            =      -0.0000000000000000 [Eh]
	 Same-Spin Energy          =      -0.4240617361862267 [Eh]
	 Opposite-Spin Energy      =      -1.3400523515257672 [Eh]
	 Correlation Energy        =      -1.7641140877119939 [Eh]
	 Total Energy              =    -401.5405482306946965 [Eh]

	 ================> DF-SCS-MP2 Energies <==================
	-----------------------------------------------------------
	 SCS Same-Spin Scale       =       0.3333333333333333 [-]
	 SCS Opposite-Spin Scale   =       1.2000000000000000 [-]
	 SCS Same-Spin Energy      =      -0.1413539120620755 [Eh]
	 SCS Opposite-Spin Energy  =      -1.6080628218309205 [Eh]
	 SCS Correlation Energy    =      -1.7494167338929960 [Eh]
	 SCS Total Energy          =    -401.5258508768756656 [Eh]
	-----------------------------------------------------------

  Dipole Moment: [D]
     X:    -2.9172      Y:    -2.2691      Z:     0.4754     Total:     3.7262

*** Psi4 exiting successfully. Buy a developer a beer!
