                               Psi4 1.3.2 release

  ==> Input File <==

--------------------------------------------------------------------------
#psi4
#
memory 32 gb

molecule  {
0 1
  O        0.6058420     1.9734460    -0.2200840
  N       -1.4635990     1.0552220     0.1204360
  C        0.3766720    -0.4191730    -0.2885420
  C        1.8447340    -0.6003330    -0.5373460
  C       -0.0912220     0.9510960    -0.1351610
  C       -0.5056070    -1.4668030    -0.1721790
  C        2.6774180    -0.3153160     0.7169370
  C       -1.8875120    -1.2656950     0.0948440
  C       -2.2134096     0.1662324     0.2209830
  H        2.0261970    -1.6222750    -0.8897120
  H        2.1501830     0.0866220    -1.3340180
  H       -0.1325060    -2.4831380    -0.2931490
  H        3.7430730    -0.4588370     0.5145620
  H        2.3896250    -0.9874320     1.5306780
  H        2.5223080     0.7158110     1.0392930
  H       -1.7867130     2.0140380     0.2231480
  H       -2.5740470    -2.0997260     0.1840740
  H       -3.3752970     0.2746480     0.4421650
units angstrom
no_reorient  #important for SAPT in psi4, default
symmetry c1  #important for SAPT in psi4, default
}

set PROPERTIES_ORIGIN ["COM"]
properties('MP2/aug-cc-pvtz', properties = ['dipole'])
--------------------------------------------------------------------------

    Molecular point group: c1
  Charge       = 0
  Multiplicity = 1
  Basis Set: AUG-CC-PVTZ
    Blend: AUG-CC-PVTZ
  Basis Set: (AUG-CC-PVTZ AUX)
    Blend: AUG-CC-PVTZ-JKFIT

    Orbital Energies [Eh]
    ---------------------

    Doubly Occupied:

       1A    -20.511870     2A    -15.651133     3A    -11.354420
       4A    -11.324389     5A    -11.262092     6A    -11.238670
       7A    -11.228854     8A    -11.218120     9A    -11.200565
      10A     -1.409291    11A     -1.332733    12A     -1.115183
      13A     -1.037394    14A     -0.994048    15A     -0.900096
      16A     -0.881333    17A     -0.826331    18A     -0.766163
      19A     -0.708176    20A     -0.657992    21A     -0.650961
      22A     -0.625756    23A     -0.600746    24A     -0.583080
      25A     -0.561456    26A     -0.528408    27A     -0.511295
      28A     -0.496831    29A     -0.483842    30A     -0.472323
      31A     -0.421463    32A     -0.414164    33A     -0.281658

  @DF-RHF Final Energy:  -399.71631432565141

   => Energetics <=

    Nuclear Repulsion Energy =            435.6490347189121621
    One-Electron Energy =               -1406.2290283984600592
    Two-Electron Energy =                 570.8636793538964866
    Total Energy =                       -399.7163143256514104
  Basis Set: (AUG-CC-PVTZ AUX)
    Blend: AUG-CC-PVTZ-RI
    Molecular point group: c1

    Geometry (in Angstrom), charge = 0, multiplicity = 1:

       Center              X                  Y                   Z               Mass
    ------------   -----------------  -----------------  -----------------  -----------------
         O            0.633387296873     1.921884602374    -0.206992182810    15.994914619570
         N           -1.436053703127     1.003660602374     0.133527817190    14.003074004430
         C            0.404217296873    -0.470734397626    -0.275450182810    12.000000000000
         C            1.872279296873    -0.651894397626    -0.524254182810    12.000000000000
         C           -0.063676703127     0.899534602374    -0.122069182810    12.000000000000
         C           -0.478061703127    -1.518364397626    -0.159087182810    12.000000000000
         C            2.704963296873    -0.366877397626     0.730028817190    12.000000000000
         C           -1.859966703127    -1.317256397626     0.107935817190    12.000000000000
         C           -2.185864303127     0.114671002374     0.234074817190    12.000000000000
         H            2.053742296873    -1.673836397626    -0.876620182810     1.007825032230
         H            2.177728296873     0.035060602374    -1.320926182810     1.007825032230
         H           -0.104960703127    -2.534699397626    -0.280057182810     1.007825032230
         H            3.770618296873    -0.510398397626     0.527653817190     1.007825032230
         H            2.417170296873    -1.038993397626     1.543769817190     1.007825032230
         H            2.549853296873     0.664249602374     1.052384817190     1.007825032230
         H           -1.759167703127     1.962476602374     0.236239817190     1.007825032230
         H           -2.546501703127    -2.151287397626     0.197165817190     1.007825032230
         H           -3.347751703127     0.223086602374     0.455256817190     1.007825032230

  Basis Set: AUG-CC-PVTZ
    Blend: AUG-CC-PVTZ
  Basis Set: (AUG-CC-PVTZ AUX)
    Blend: AUG-CC-PVTZ-JKFIT
	 Reference Energy          =    -399.7163143256514104 [Eh]
	 Singles Energy            =      -0.0000000000000000 [Eh]
	 Same-Spin Energy          =      -0.4265831606134065 [Eh]
	 Opposite-Spin Energy      =      -1.3404881682947982 [Eh]
	 Correlation Energy        =      -1.7670713289082047 [Eh]
	 Total Energy              =    -401.4833856545596404 [Eh]

	 ================> DF-SCS-MP2 Energies <==================
	-----------------------------------------------------------
	 SCS Same-Spin Scale       =       0.3333333333333333 [-]
	 SCS Opposite-Spin Scale   =       1.2000000000000000 [-]
	 SCS Same-Spin Energy      =      -0.1421943868711355 [Eh]
	 SCS Opposite-Spin Energy  =      -1.6085858019537578 [Eh]
	 SCS Correlation Energy    =      -1.7507801888248933 [Eh]
	 SCS Total Energy          =    -401.4670945144762868 [Eh]
	-----------------------------------------------------------

  Dipole Moment: [D]
     X:    -3.2283      Y:    -1.6754      Z:     0.5338     Total:     3.6761

*** Psi4 exiting successfully. Buy a developer a beer!
