                               Psi4 1.4a3.dev225

  ==> Input File <==

--------------------------------------------------------------------------
#psi4
#
memory 32 gb

molecule  {
0 1
  O        0.6058420     1.9734460    -0.2200840
  N       -1.4635990     1.0552220     0.1204360
  C        0.3766720    -0.4191730    -0.2885420
  C        1.8447340    -0.6003330    -0.5373460
  C       -0.0912220     0.9510960    -0.1351610
  C       -0.5056070    -1.4668030    -0.1721790
  C        2.6774180    -0.3153160     0.7169370
  C       -1.8875120    -1.2656950     0.0948440
  C       -2.3418770     0.0139190     0.2382100
  H        2.0261970    -1.6222750    -0.8897120
  H        2.1501830     0.0866220    -1.3340180
  H       -0.1325060    -2.4831380    -0.2931490
  H        3.7430730    -0.4588370     0.5145620
  H        2.3896250    -0.9874320     1.5306780
  H        2.5223080     0.7158110     1.0392930
  H       -1.7930673     2.0328938     0.2251679
  H       -2.5740470    -2.0997260     0.1840740
  H       -3.3752970     0.2746480     0.4421650
units angstrom
no_reorient  #important for SAPT in psi4, default
symmetry c1  #important for SAPT in psi4, default
}

set PROPERTIES_ORIGIN ["COM"]
properties('MP2/aug-cc-pvtz', properties = ['dipole'])
--------------------------------------------------------------------------

    Molecular point group: c1
  Charge       = 0
  Multiplicity = 1
  Basis Set: AUG-CC-PVTZ
    Blend: AUG-CC-PVTZ
  Basis Set: (AUG-CC-PVTZ AUX)
    Blend: AUG-CC-PVTZ-JKFIT

    Orbital Energies [Eh]
    ---------------------

    Doubly Occupied:

       1A    -20.509694     2A    -15.627735     3A    -11.352814
       4A    -11.309331     5A    -11.265808     6A    -11.244898
       7A    -11.242460     8A    -11.224028     9A    -11.205515
      10A     -1.369691    11A     -1.269734    12A     -1.116936
      13A     -1.054716    14A     -0.993460    15A     -0.887949
      16A     -0.866727    17A     -0.817357    18A     -0.734675
      19A     -0.702467    20A     -0.670555    21A     -0.625246
      22A     -0.611927    23A     -0.602774    24A     -0.590495
      25A     -0.564782    26A     -0.545641    27A     -0.514328
      28A     -0.495480    29A     -0.486074    30A     -0.474013
      31A     -0.422286    32A     -0.411033    33A     -0.306286

  @DF-RHF Final Energy:  -399.77835389738749

   => Energetics <=

    Nuclear Repulsion Energy =            432.4916697808334902
    One-Electron Energy =               -1400.3062180286999592
    Two-Electron Energy =                 568.0361943504790361
    Total Energy =                       -399.7783538973874329
  Basis Set: (AUG-CC-PVTZ AUX)
    Blend: AUG-CC-PVTZ-RI
    Molecular point group: c1

    Geometry (in Angstrom), charge = 0, multiplicity = 1:

       Center              X                  Y                   Z               Mass
    ------------   -----------------  -----------------  -----------------  -----------------
         O            0.645965770694     1.936581772795    -0.208688472696    15.994914619570
         N           -1.423475229306     1.018357772795     0.131831527304    14.003074004430
         C            0.416795770694    -0.456037227205    -0.277146472696    12.000000000000
         C            1.884857770694    -0.637197227205    -0.525950472696    12.000000000000
         C           -0.051098229306     0.914231772795    -0.123765472696    12.000000000000
         C           -0.465483229306    -1.503667227205    -0.160783472696    12.000000000000
         C            2.717541770694    -0.352180227205     0.728332527304    12.000000000000
         C           -1.847388229306    -1.302559227205     0.106239527304    12.000000000000
         C           -2.301753229306    -0.022945227205     0.249605527304    12.000000000000
         H            2.066320770694    -1.659139227205    -0.878316472696     1.007825032230
         H            2.190306770694     0.049757772795    -1.322622472696     1.007825032230
         H           -0.092382229306    -2.520002227205    -0.281753472696     1.007825032230
         H            3.783196770694    -0.495701227205     0.525957527304     1.007825032230
         H            2.429748770694    -1.024296227205     1.542073527304     1.007825032230
         H            2.562431770694     0.678946772795     1.050688527304     1.007825032230
         H           -1.752943529306     1.996029572795     0.236563427304     1.007825032230
         H           -2.533923229306    -2.136590227205     0.195469527304     1.007825032230
         H           -3.335173229306     0.237783772795     0.453560527304     1.007825032230

  Basis Set: AUG-CC-PVTZ
    Blend: AUG-CC-PVTZ
  Basis Set: (AUG-CC-PVTZ AUX)
    Blend: AUG-CC-PVTZ-JKFIT
	 Reference Energy          =    -399.7783538973874897 [Eh]
	 Singles Energy            =      -0.0000000000000000 [Eh]
	 Same-Spin Energy          =      -0.4242234320555646 [Eh]
	 Opposite-Spin Energy      =      -1.3403143375108877 [Eh]
	 Correlation Energy        =      -1.7645377695664524 [Eh]
	 Total Energy              =    -401.5428916669539490 [Eh]

	 ================> DF-SCS-MP2 Energies <==================
	-----------------------------------------------------------
	 SCS Same-Spin Scale       =       0.3333333333333333 [-]
	 SCS Opposite-Spin Scale   =       1.2000000000000000 [-]
	 SCS Same-Spin Energy      =      -0.1414078106851882 [Eh]
	 SCS Opposite-Spin Energy  =      -1.6083772050130651 [Eh]
	 SCS Correlation Energy    =      -1.7497850156982533 [Eh]
	 SCS Total Energy          =    -401.5281389130857406 [Eh]
	-----------------------------------------------------------

  Dipole Moment: [D]
     X:    -2.9436      Y:    -2.2206      Z:     0.4801     Total:     3.7184

*** Psi4 exiting successfully. Buy a developer a beer!
