                               Psi4 1.3.2 release

  ==> Input File <==

--------------------------------------------------------------------------
#psi4
#
memory 32 gb

molecule  {
0 1
  O        0.6058420     1.9734460    -0.2200840
  N       -1.4635990     1.0552220     0.1204360
  C        0.3766720    -0.4191730    -0.2885420
  C        1.8412698    -0.6262814    -0.5375153
  C       -0.0912220     0.9510960    -0.1351610
  C       -0.5056070    -1.4668030    -0.1721790
  C        2.6774180    -0.3153160     0.7169370
  C       -1.8875120    -1.2656950     0.0948440
  C       -2.3418770     0.0139190     0.2382100
  H        2.0261970    -1.6222750    -0.8897120
  H        2.1501830     0.0866220    -1.3340180
  H       -0.1325060    -2.4831380    -0.2931490
  H        3.7430730    -0.4588370     0.5145620
  H        2.3896250    -0.9874320     1.5306780
  H        2.5223080     0.7158110     1.0392930
  H       -1.7867130     2.0140380     0.2231480
  H       -2.5740470    -2.0997260     0.1840740
  H       -3.3752970     0.2746480     0.4421650
units angstrom
no_reorient  #important for SAPT in psi4, default
symmetry c1  #important for SAPT in psi4, default
}

set PROPERTIES_ORIGIN ["COM"]
properties('MP2/aug-cc-pvtz', properties = ['dipole'])
--------------------------------------------------------------------------

    Molecular point group: c1
  Charge       = 0
  Multiplicity = 1
  Basis Set: AUG-CC-PVTZ
    Blend: AUG-CC-PVTZ
  Basis Set: (AUG-CC-PVTZ AUX)
    Blend: AUG-CC-PVTZ-JKFIT

    Orbital Energies [Eh]
    ---------------------

    Doubly Occupied:

       1A    -20.509941     2A    -15.626198     3A    -11.353399
       4A    -11.309210     5A    -11.265426     6A    -11.245105
       7A    -11.242410     8A    -11.223922     9A    -11.205967
      10A     -1.370268    11A     -1.271263    12A     -1.117705
      13A     -1.054707    14A     -0.992814    15A     -0.888244
      16A     -0.868809    17A     -0.818190    18A     -0.737494
      19A     -0.703058    20A     -0.671940    21A     -0.624743
      22A     -0.611772    23A     -0.602477    24A     -0.592666
      25A     -0.564255    26A     -0.546578    27A     -0.511989
      28A     -0.499968    29A     -0.484596    30A     -0.473872
      31A     -0.422804    32A     -0.410533    33A     -0.306109

  @DF-RHF Final Energy:  -399.77877523340061

   => Energetics <=

    Nuclear Repulsion Energy =            432.4962176515739998
    One-Electron Energy =               -1400.2931203575797099
    Two-Electron Energy =                 568.0181274726051015
    Total Energy =                       -399.7787752334006655
  Basis Set: (AUG-CC-PVTZ AUX)
    Blend: AUG-CC-PVTZ-RI
    Molecular point group: c1

    Geometry (in Angstrom), charge = 0, multiplicity = 1:

       Center              X                  Y                   Z               Mass
    ------------   -----------------  -----------------  -----------------  -----------------
         O            0.646251517266     1.939266329594    -0.208655423551    15.994914619570
         N           -1.423189482734     1.021042329594     0.131864576449    14.003074004430
         C            0.417081517266    -0.453352670406    -0.277113423551    12.000000000000
         C            1.881679317266    -0.660461070406    -0.526086723551    12.000000000000
         C           -0.050812482734     0.916916329594    -0.123732423551    12.000000000000
         C           -0.465197482734    -1.500982670406    -0.160750423551    12.000000000000
         C            2.717827517266    -0.349495670406     0.728365576449    12.000000000000
         C           -1.847102482734    -1.299874670406     0.106272576449    12.000000000000
         C           -2.301467482734    -0.020260670406     0.249638576449    12.000000000000
         H            2.066606517266    -1.656454670406    -0.878283423551     1.007825032230
         H            2.190592517266     0.052442329594    -1.322589423551     1.007825032230
         H           -0.092096482734    -2.517317670406    -0.281720423551     1.007825032230
         H            3.783482517266    -0.493016670406     0.525990576449     1.007825032230
         H            2.430034517266    -1.021611670406     1.542106576449     1.007825032230
         H            2.562717517266     0.681631329594     1.050721576449     1.007825032230
         H           -1.746303482734     1.979858329594     0.234576576449     1.007825032230
         H           -2.533637482734    -2.133905670406     0.195502576449     1.007825032230
         H           -3.334887482734     0.240468329594     0.453593576449     1.007825032230

  Basis Set: AUG-CC-PVTZ
    Blend: AUG-CC-PVTZ
  Basis Set: (AUG-CC-PVTZ AUX)
    Blend: AUG-CC-PVTZ-JKFIT
	 Reference Energy          =    -399.7787752334006086 [Eh]
	 Singles Energy            =      -0.0000000000000000 [Eh]
	 Same-Spin Energy          =      -0.4240368795576074 [Eh]
	 Opposite-Spin Energy      =      -1.3399456111744763 [Eh]
	 Correlation Energy        =      -1.7639824907320838 [Eh]
	 Total Energy              =    -401.5427577241326844 [Eh]

	 ================> DF-SCS-MP2 Energies <==================
	-----------------------------------------------------------
	 SCS Same-Spin Scale       =       0.3333333333333333 [-]
	 SCS Opposite-Spin Scale   =       1.2000000000000000 [-]
	 SCS Same-Spin Energy      =      -0.1413456265192025 [Eh]
	 SCS Opposite-Spin Energy  =      -1.6079347334093714 [Eh]
	 SCS Correlation Energy    =      -1.7492803599285738 [Eh]
	 SCS Total Energy          =    -401.5280555933291566 [Eh]
	-----------------------------------------------------------

  Dipole Moment: [D]
     X:    -2.9247      Y:    -2.2569      Z:     0.4753     Total:     3.7246

*** Psi4 exiting successfully. Buy a developer a beer!
