                               Psi4 1.3.2 release

  ==> Input File <==

--------------------------------------------------------------------------
#psi4
#
memory 32 gb

molecule  {
0 1
  O        0.6058420     1.9734460    -0.2200840
  N       -1.4635990     1.0552220     0.1204360
  C        0.3766720    -0.4191730    -0.2885420
  C        1.8503198    -0.5482785    -0.5367802
  C       -0.0912220     0.9510960    -0.1351610
  C       -0.5056070    -1.4668030    -0.1721790
  C        2.6774180    -0.3153160     0.7169370
  C       -1.8875120    -1.2656950     0.0948440
  C       -2.3418770     0.0139190     0.2382100
  H        2.0261970    -1.6222750    -0.8897120
  H        2.1501830     0.0866220    -1.3340180
  H       -0.1325060    -2.4831380    -0.2931490
  H        3.7430730    -0.4588370     0.5145620
  H        2.3896250    -0.9874320     1.5306780
  H        2.5223080     0.7158110     1.0392930
  H       -1.7867130     2.0140380     0.2231480
  H       -2.5740470    -2.0997260     0.1840740
  H       -3.3752970     0.2746480     0.4421650
units angstrom
no_reorient  #important for SAPT in psi4, default
symmetry c1  #important for SAPT in psi4, default
}

set PROPERTIES_ORIGIN ["COM"]
properties('MP2/aug-cc-pvtz', properties = ['dipole'])
--------------------------------------------------------------------------

    Molecular point group: c1
  Charge       = 0
  Multiplicity = 1
  Basis Set: AUG-CC-PVTZ
    Blend: AUG-CC-PVTZ
  Basis Set: (AUG-CC-PVTZ AUX)
    Blend: AUG-CC-PVTZ-JKFIT

    Orbital Energies [Eh]
    ---------------------

    Doubly Occupied:

       1A    -20.509968     2A    -15.625861     3A    -11.352151
       4A    -11.309869     5A    -11.267009     6A    -11.245011
       7A    -11.243032     8A    -11.225021     9A    -11.205189
      10A     -1.370424    11A     -1.271296    12A     -1.117746
      13A     -1.056069    14A     -0.995130    15A     -0.890108
      16A     -0.866687    17A     -0.817795    18A     -0.736819
      19A     -0.702653    20A     -0.672113    21A     -0.628574
      22A     -0.612911    23A     -0.603961    24A     -0.586635
      25A     -0.566477    26A     -0.545839    27A     -0.520631
      28A     -0.491450    29A     -0.486368    30A     -0.470339
      31A     -0.421642    32A     -0.412507    33A     -0.307106

  @DF-RHF Final Energy:  -399.77622489524407

   => Energetics <=

    Nuclear Repulsion Energy =            432.8549723953091188
    One-Electron Energy =               -1400.9936130970661452
    Two-Electron Energy =                 568.3624158065128995
    Total Energy =                       -399.7762248952441269
  Basis Set: (AUG-CC-PVTZ AUX)
    Blend: AUG-CC-PVTZ-RI
    Molecular point group: c1

    Geometry (in Angstrom), charge = 0, multiplicity = 1:

       Center              X                  Y                   Z               Mass
    ------------   -----------------  -----------------  -----------------  -----------------
         O            0.645369081257     1.931660521001    -0.208727100757    15.994914619570
         N           -1.424071918743     1.013436521001     0.131792899243    14.003074004430
         C            0.416199081257    -0.460958478999    -0.277185100757    12.000000000000
         C            1.889846881257    -0.590063978999    -0.525423300757    12.000000000000
         C           -0.051694918743     0.909310521001    -0.123804100757    12.000000000000
         C           -0.466079918743    -1.508588478999    -0.160822100757    12.000000000000
         C            2.716945081257    -0.357101478999     0.728293899243    12.000000000000
         C           -1.847984918743    -1.307480478999     0.106200899243    12.000000000000
         C           -2.302349918743    -0.027866478999     0.249566899243    12.000000000000
         H            2.065724081257    -1.664060478999    -0.878355100757     1.007825032230
         H            2.189710081257     0.044836521001    -1.322661100757     1.007825032230
         H           -0.092978918743    -2.524923478999    -0.281792100757     1.007825032230
         H            3.782600081257    -0.500622478999     0.525918899243     1.007825032230
         H            2.429152081257    -1.029217478999     1.542034899243     1.007825032230
         H            2.561835081257     0.674025521001     1.050649899243     1.007825032230
         H           -1.747185918743     1.972252521001     0.234504899243     1.007825032230
         H           -2.534519918743    -2.141511478999     0.195430899243     1.007825032230
         H           -3.335769918743     0.232862521001     0.453521899243     1.007825032230

  Basis Set: AUG-CC-PVTZ
    Blend: AUG-CC-PVTZ
  Basis Set: (AUG-CC-PVTZ AUX)
    Blend: AUG-CC-PVTZ-JKFIT
	 Reference Energy          =    -399.7762248952440700 [Eh]
	 Singles Energy            =      -0.0000000000000000 [Eh]
	 Same-Spin Energy          =      -0.4241441079441980 [Eh]
	 Opposite-Spin Energy      =      -1.3401454516445634 [Eh]
	 Correlation Energy        =      -1.7642895595887615 [Eh]
	 Total Energy              =    -401.5405144548328167 [Eh]

	 ================> DF-SCS-MP2 Energies <==================
	-----------------------------------------------------------
	 SCS Same-Spin Scale       =       0.3333333333333333 [-]
	 SCS Opposite-Spin Scale   =       1.2000000000000000 [-]
	 SCS Same-Spin Energy      =      -0.1413813693147327 [Eh]
	 SCS Opposite-Spin Energy  =      -1.6081745419734761 [Eh]
	 SCS Correlation Energy    =      -1.7495559112882089 [Eh]
	 SCS Total Energy          =    -401.5257808065322820 [Eh]
	-----------------------------------------------------------

  Dipole Moment: [D]
     X:    -2.9546      Y:    -2.2080      Z:     0.4886     Total:     3.7207

*** Psi4 exiting successfully. Buy a developer a beer!
