                               Psi4 1.3.2 release

  ==> Input File <==

--------------------------------------------------------------------------
#psi4
#
memory 32 gb

molecule  {
0 1
  O        0.6058420     1.9734460    -0.2200840
  N       -1.4635990     1.0552220     0.1204360
  C        0.3766720    -0.4191730    -0.2885420
  C        1.8447340    -0.6003330    -0.5373460
  C       -0.0912220     0.9510960    -0.1351610
  C       -0.5056070    -1.4668030    -0.1721790
  C        2.6774180    -0.3153160     0.7169370
  C       -1.8875120    -1.2656950     0.0948440
  C       -2.4434292     0.1120416     0.2614982
  H        2.0261970    -1.6222750    -0.8897120
  H        2.1501830     0.0866220    -1.3340180
  H       -0.1325060    -2.4831380    -0.2931490
  H        3.7430730    -0.4588370     0.5145620
  H        2.3896250    -0.9874320     1.5306780
  H        2.5223080     0.7158110     1.0392930
  H       -1.7867130     2.0140380     0.2231480
  H       -2.5740470    -2.0997260     0.1840740
  H       -3.3752970     0.2746480     0.4421650
units angstrom
no_reorient  #important for SAPT in psi4, default
symmetry c1  #important for SAPT in psi4, default
}

set PROPERTIES_ORIGIN ["COM"]
properties('MP2/aug-cc-pvtz', properties = ['dipole'])
--------------------------------------------------------------------------

    Molecular point group: c1
  Charge       = 0
  Multiplicity = 1
  Basis Set: AUG-CC-PVTZ
    Blend: AUG-CC-PVTZ
  Basis Set: (AUG-CC-PVTZ AUX)
    Blend: AUG-CC-PVTZ-JKFIT

    Orbital Energies [Eh]
    ---------------------

    Doubly Occupied:

       1A    -20.508740     2A    -15.634894     3A    -11.355203
       4A    -11.320382     5A    -11.266477     6A    -11.256918
       7A    -11.245174     8A    -11.224026     9A    -11.205522
      10A     -1.370325    11A     -1.271953    12A     -1.114674
      13A     -1.041749    14A     -0.997202    15A     -0.897400
      16A     -0.865420    17A     -0.816862    18A     -0.757151
      19A     -0.714314    20A     -0.665991    21A     -0.632526
      22A     -0.609231    23A     -0.605671    24A     -0.584428
      25A     -0.570738    26A     -0.531030    27A     -0.514745
      28A     -0.494492    29A     -0.485142    30A     -0.471175
      31A     -0.424345    32A     -0.410441    33A     -0.292469

  @DF-RHF Final Energy:  -399.74218149995102

   => Energetics <=

    Nuclear Repulsion Energy =            430.4794993730855026
    One-Electron Energy =               -1396.1297407399581516
    Two-Electron Energy =                 565.9080598669216897
    Total Energy =                       -399.7421814999510161
  Basis Set: (AUG-CC-PVTZ AUX)
    Blend: AUG-CC-PVTZ-RI
    Molecular point group: c1

    Geometry (in Angstrom), charge = 0, multiplicity = 1:

       Center              X                  Y                   Z               Mass
    ------------   -----------------  -----------------  -----------------  -----------------
         O            0.655815758508     1.927168570691    -0.210942687936    15.994914619570
         N           -1.413625241492     1.008944570691     0.129577312064    14.003074004430
         C            0.426645758508    -0.465450429309    -0.279400687936    12.000000000000
         C            1.894707758508    -0.646610429309    -0.528204687936    12.000000000000
         C           -0.041248241492     0.904818570691    -0.126019687936    12.000000000000
         C           -0.455633241492    -1.513080429309    -0.163037687936    12.000000000000
         C            2.727391758508    -0.361593429309     0.726078312064    12.000000000000
         C           -1.837538241492    -1.311972429309     0.103985312064    12.000000000000
         C           -2.393455441492     0.065764170691     0.270639512064    12.000000000000
         H            2.076170758508    -1.668552429309    -0.880570687936     1.007825032230
         H            2.200156758508     0.040344570691    -1.324876687936     1.007825032230
         H           -0.082532241492    -2.529415429309    -0.284007687936     1.007825032230
         H            3.793046758508    -0.505114429309     0.523703312064     1.007825032230
         H            2.439598758508    -1.033709429309     1.539819312064     1.007825032230
         H            2.572281758508     0.669533570691     1.048434312064     1.007825032230
         H           -1.736739241492     1.967760570691     0.232289312064     1.007825032230
         H           -2.524073241492    -2.146003429309     0.193215312064     1.007825032230
         H           -3.325323241492     0.228370570691     0.451306312064     1.007825032230

  Basis Set: AUG-CC-PVTZ
    Blend: AUG-CC-PVTZ
  Basis Set: (AUG-CC-PVTZ AUX)
    Blend: AUG-CC-PVTZ-JKFIT
	 Reference Energy          =    -399.7421814999510161 [Eh]
	 Singles Energy            =      -0.0000000000000000 [Eh]
	 Same-Spin Energy          =      -0.4268585257685356 [Eh]
	 Opposite-Spin Energy      =      -1.3449802985321642 [Eh]
	 Correlation Energy        =      -1.7718388243006997 [Eh]
	 Total Energy              =    -401.5140203242517032 [Eh]

	 ================> DF-SCS-MP2 Energies <==================
	-----------------------------------------------------------
	 SCS Same-Spin Scale       =       0.3333333333333333 [-]
	 SCS Opposite-Spin Scale   =       1.2000000000000000 [-]
	 SCS Same-Spin Energy      =      -0.1422861752561785 [Eh]
	 SCS Opposite-Spin Energy  =      -1.6139763582385969 [Eh]
	 SCS Correlation Energy    =      -1.7562625334947755 [Eh]
	 SCS Total Energy          =    -401.4984440334457645 [Eh]
	-----------------------------------------------------------

  Dipole Moment: [D]
     X:    -2.9470      Y:    -2.2066      Z:     0.4891     Total:     3.7139

*** Psi4 exiting successfully. Buy a developer a beer!
