                               Psi4 1.3.2 release

  ==> Input File <==

--------------------------------------------------------------------------
#psi4
#
memory 32 gb

molecule  {
0 1
  O        0.6058420     1.9734460    -0.2200840
  N       -1.4635990     1.0552220     0.1204360
  C        0.3766720    -0.4191730    -0.2885420
  C        1.8447340    -0.6003330    -0.5373460
  C       -0.1024282     0.8540521    -0.1371207
  C       -0.5056070    -1.4668030    -0.1721790
  C        2.6774180    -0.3153160     0.7169370
  C       -1.8875120    -1.2656950     0.0948440
  C       -2.3418770     0.0139190     0.2382100
  H        2.0261970    -1.6222750    -0.8897120
  H        2.1501830     0.0866220    -1.3340180
  H       -0.1325060    -2.4831380    -0.2931490
  H        3.7430730    -0.4588370     0.5145620
  H        2.3896250    -0.9874320     1.5306780
  H        2.5223080     0.7158110     1.0392930
  H       -1.7867130     2.0140380     0.2231480
  H       -2.5740470    -2.0997260     0.1840740
  H       -3.3752970     0.2746480     0.4421650
units angstrom
no_reorient  #important for SAPT in psi4, default
symmetry c1  #important for SAPT in psi4, default
}

set PROPERTIES_ORIGIN ["COM"]
properties('MP2/aug-cc-pvtz', properties = ['dipole'])
--------------------------------------------------------------------------

    Molecular point group: c1
  Charge       = 0
  Multiplicity = 1
  Basis Set: AUG-CC-PVTZ
    Blend: AUG-CC-PVTZ
  Basis Set: (AUG-CC-PVTZ AUX)
    Blend: AUG-CC-PVTZ-JKFIT

    Orbital Energies [Eh]
    ---------------------

    Doubly Occupied:

       1A    -20.488434     2A    -15.636064     3A    -11.347097
       4A    -11.317906     5A    -11.278411     6A    -11.249911
       7A    -11.241817     8A    -11.225590     9A    -11.204367
      10A     -1.337144    11A     -1.248250    12A     -1.130875
      13A     -1.059576    14A     -1.000145    15A     -0.900924
      16A     -0.875123    17A     -0.820046    18A     -0.749030
      19A     -0.708736    20A     -0.676868    21A     -0.629581
      22A     -0.605953    23A     -0.597008    24A     -0.586978
      25A     -0.563214    26A     -0.537324    27A     -0.515094
      28A     -0.491277    29A     -0.482639    30A     -0.453792
      31A     -0.416766    32A     -0.407991    33A     -0.311595

  @DF-RHF Final Energy:  -399.75901120822988

   => Energetics <=

    Nuclear Repulsion Energy =            433.0334139952099690
    One-Electron Energy =               -1401.3938015536614330
    Two-Electron Energy =                 568.6013763502215852
    Total Energy =                       -399.7590112082299356
  Basis Set: (AUG-CC-PVTZ AUX)
    Blend: AUG-CC-PVTZ-RI
    Molecular point group: c1

    Geometry (in Angstrom), charge = 0, multiplicity = 1:

       Center              X                  Y                   Z               Mass
    ------------   -----------------  -----------------  -----------------  -----------------
         O            0.647006414457     1.946198620121    -0.208480847482    15.994914619570
         N           -1.422434585543     1.027974620121     0.132039152518    14.003074004430
         C            0.417836414457    -0.446420379879    -0.276938847482    12.000000000000
         C            1.885898414457    -0.627580379879    -0.525742847482    12.000000000000
         C           -0.061263785543     0.826804720121    -0.125517547482    12.000000000000
         C           -0.464442585543    -1.494050379879    -0.160575847482    12.000000000000
         C            2.718582414457    -0.342563379879     0.728540152518    12.000000000000
         C           -1.846347585543    -1.292942379879     0.106447152518    12.000000000000
         C           -2.300712585543    -0.013328379879     0.249813152518    12.000000000000
         H            2.067361414457    -1.649522379879    -0.878108847482     1.007825032230
         H            2.191347414457     0.059374620121    -1.322414847482     1.007825032230
         H           -0.091341585543    -2.510385379879    -0.281545847482     1.007825032230
         H            3.784237414457    -0.486084379879     0.526165152518     1.007825032230
         H            2.430789414457    -1.014679379879     1.542281152518     1.007825032230
         H            2.563472414457     0.688563620121     1.050896152518     1.007825032230
         H           -1.745548585543     1.986790620121     0.234751152518     1.007825032230
         H           -2.532882585543    -2.126973379879     0.195677152518     1.007825032230
         H           -3.334132585543     0.247400620121     0.453768152518     1.007825032230

  Basis Set: AUG-CC-PVTZ
    Blend: AUG-CC-PVTZ
  Basis Set: (AUG-CC-PVTZ AUX)
    Blend: AUG-CC-PVTZ-JKFIT
	 Reference Energy          =    -399.7590112082298788 [Eh]
	 Singles Energy            =      -0.0000000000000000 [Eh]
	 Same-Spin Energy          =      -0.4266428019394026 [Eh]
	 Opposite-Spin Energy      =      -1.3436247644743697 [Eh]
	 Correlation Energy        =      -1.7702675664137724 [Eh]
	 Total Energy              =    -401.5292787746436716 [Eh]

	 ================> DF-SCS-MP2 Energies <==================
	-----------------------------------------------------------
	 SCS Same-Spin Scale       =       0.3333333333333333 [-]
	 SCS Opposite-Spin Scale   =       1.2000000000000000 [-]
	 SCS Same-Spin Energy      =      -0.1422142673131342 [Eh]
	 SCS Opposite-Spin Energy  =      -1.6123497173692436 [Eh]
	 SCS Correlation Energy    =      -1.7545639846823777 [Eh]
	 SCS Total Energy          =    -401.5135751929122421 [Eh]
	-----------------------------------------------------------

  Dipole Moment: [D]
     X:    -3.3460      Y:    -2.8585      Z:     0.5352     Total:     4.4332

*** Psi4 exiting successfully. Buy a developer a beer!
