                               Psi4 1.3.2 release

  ==> Input File <==

--------------------------------------------------------------------------
#psi4
#
memory 32 gb

molecule  {
0 1
  O        0.6058420     1.9734460    -0.2200840
  N       -1.4635990     1.0552220     0.1204360
  C        0.3766720    -0.4191730    -0.2885420
  C        1.8447340    -0.6003330    -0.5373460
  C       -0.0868487     1.0974387    -0.1292981
  C       -0.5056070    -1.4668030    -0.1721790
  C        2.6774180    -0.3153160     0.7169370
  C       -1.8875120    -1.2656950     0.0948440
  C       -2.3418770     0.0139190     0.2382100
  H        2.0261970    -1.6222750    -0.8897120
  H        2.1501830     0.0866220    -1.3340180
  H       -0.1325060    -2.4831380    -0.2931490
  H        3.7430730    -0.4588370     0.5145620
  H        2.3896250    -0.9874320     1.5306780
  H        2.5223080     0.7158110     1.0392930
  H       -1.7867130     2.0140380     0.2231480
  H       -2.5740470    -2.0997260     0.1840740
  H       -3.3752970     0.2746480     0.4421650
units angstrom
no_reorient  #important for SAPT in psi4, default
symmetry c1  #important for SAPT in psi4, default
}

set PROPERTIES_ORIGIN ["COM"]
properties('MP2/aug-cc-pvtz', properties = ['dipole'])
--------------------------------------------------------------------------

    Molecular point group: c1
  Charge       = 0
  Multiplicity = 1
  Basis Set: AUG-CC-PVTZ
    Blend: AUG-CC-PVTZ
  Basis Set: (AUG-CC-PVTZ AUX)
    Blend: AUG-CC-PVTZ-JKFIT

    Orbital Energies [Eh]
    ---------------------

    Doubly Occupied:

       1A    -20.538505     2A    -15.614217     3A    -11.356269
       4A    -11.298981     5A    -11.248383     6A    -11.242739
       7A    -11.233606     8A    -11.221115     9A    -11.206716
      10A     -1.459566    11A     -1.276221    12A     -1.102076
      13A     -1.048749    14A     -0.983548    15A     -0.881293
      16A     -0.846809    17A     -0.814092    18A     -0.726856
      19A     -0.699089    20A     -0.680655    21A     -0.642552
      22A     -0.629048    23A     -0.611434    24A     -0.584274
      25A     -0.564425    26A     -0.554639    27A     -0.516793
      28A     -0.513085    29A     -0.498108    30A     -0.479271
      31A     -0.411072    32A     -0.403938    33A     -0.296994

  @DF-RHF Final Energy:  -399.75470059885220

   => Energetics <=

    Nuclear Repulsion Energy =            432.3226104456135204
    One-Electron Energy =               -1399.7843888802731271
    Two-Electron Energy =                 567.7070778358074676
    Total Energy =                       -399.7547005988521960
  Basis Set: (AUG-CC-PVTZ AUX)
    Blend: AUG-CC-PVTZ-RI
    Molecular point group: c1

    Geometry (in Angstrom), charge = 0, multiplicity = 1:

       Center              X                  Y                   Z               Mass
    ------------   -----------------  -----------------  -----------------  -----------------
         O            0.645487308181     1.922466785874    -0.209243603716    15.994914619570
         N           -1.423953691819     1.004242785874     0.131276396284    14.003074004430
         C            0.416317308181    -0.470152214126    -0.277701603716    12.000000000000
         C            1.884379308181    -0.651312214126    -0.526505603716    12.000000000000
         C           -0.047203391819     1.046459485874    -0.118457703716    12.000000000000
         C           -0.465961691819    -1.517782214126    -0.161338603716    12.000000000000
         C            2.717063308181    -0.366295214126     0.727777396284    12.000000000000
         C           -1.847866691819    -1.316674214126     0.105684396284    12.000000000000
         C           -2.302231691819    -0.037060214126     0.249050396284    12.000000000000
         H            2.065842308181    -1.673254214126    -0.878871603716     1.007825032230
         H            2.189828308181     0.035642785874    -1.323177603716     1.007825032230
         H           -0.092860691819    -2.534117214126    -0.282308603716     1.007825032230
         H            3.782718308181    -0.509816214126     0.525402396284     1.007825032230
         H            2.429270308181    -1.038411214126     1.541518396284     1.007825032230
         H            2.561953308181     0.664831785874     1.050133396284     1.007825032230
         H           -1.747067691819     1.963058785874     0.233988396284     1.007825032230
         H           -2.534401691819    -2.150705214126     0.194914396284     1.007825032230
         H           -3.335651691819     0.223668785874     0.453005396284     1.007825032230

  Basis Set: AUG-CC-PVTZ
    Blend: AUG-CC-PVTZ
  Basis Set: (AUG-CC-PVTZ AUX)
    Blend: AUG-CC-PVTZ-JKFIT
	 Reference Energy          =    -399.7547005988521960 [Eh]
	 Singles Energy            =      -0.0000000000000000 [Eh]
	 Same-Spin Energy          =      -0.4208899113874975 [Eh]
	 Opposite-Spin Energy      =      -1.3358189463744381 [Eh]
	 Correlation Energy        =      -1.7567088577619356 [Eh]
	 Total Energy              =    -401.5114094566141034 [Eh]

	 ================> DF-SCS-MP2 Energies <==================
	-----------------------------------------------------------
	 SCS Same-Spin Scale       =       0.3333333333333333 [-]
	 SCS Opposite-Spin Scale   =       1.2000000000000000 [-]
	 SCS Same-Spin Energy      =      -0.1402966371291658 [Eh]
	 SCS Opposite-Spin Energy  =      -1.6029827356493256 [Eh]
	 SCS Correlation Energy    =      -1.7432793727784914 [Eh]
	 SCS Total Energy          =    -401.4979799716306843 [Eh]
	-----------------------------------------------------------

  Dipole Moment: [D]
     X:    -2.3690      Y:    -1.2231      Z:     0.4055     Total:     2.6968

*** Psi4 exiting successfully. Buy a developer a beer!
