                               Psi4 1.3.2 release

  ==> Input File <==

--------------------------------------------------------------------------
#psi4
#
memory 32 gb

molecule  {
0 1
  O        0.6058420     1.9734460    -0.2200840
  N       -1.4635990     1.0552220     0.1204360
  C        0.3793441    -0.4560269    -0.2514497
  C        1.8447340    -0.6003330    -0.5373460
  C       -0.0912220     0.9510960    -0.1351610
  C       -0.5056070    -1.4668030    -0.1721790
  C        2.6774180    -0.3153160     0.7169370
  C       -1.8875120    -1.2656950     0.0948440
  C       -2.3418770     0.0139190     0.2382100
  H        2.0261970    -1.6222750    -0.8897120
  H        2.1501830     0.0866220    -1.3340180
  H       -0.1325060    -2.4831380    -0.2931490
  H        3.7430730    -0.4588370     0.5145620
  H        2.3896250    -0.9874320     1.5306780
  H        2.5223080     0.7158110     1.0392930
  H       -1.7867130     2.0140380     0.2231480
  H       -2.5740470    -2.0997260     0.1840740
  H       -3.3752970     0.2746480     0.4421650
units angstrom
no_reorient  #important for SAPT in psi4, default
symmetry c1  #important for SAPT in psi4, default
}

set PROPERTIES_ORIGIN ["COM"]
properties('MP2/aug-cc-pvtz', properties = ['dipole'])
--------------------------------------------------------------------------

    Molecular point group: c1
  Charge       = 0
  Multiplicity = 1
  Basis Set: AUG-CC-PVTZ
    Blend: AUG-CC-PVTZ
  Basis Set: (AUG-CC-PVTZ AUX)
    Blend: AUG-CC-PVTZ-JKFIT

    Orbital Energies [Eh]
    ---------------------

    Doubly Occupied:

       1A    -20.513989     2A    -15.624573     3A    -11.356797
       4A    -11.307594     5A    -11.260001     6A    -11.245117
       7A    -11.241529     8A    -11.224679     9A    -11.205758
      10A     -1.371430    11A     -1.271104    12A     -1.120421
      13A     -1.054049    14A     -0.994026    15A     -0.885583
      16A     -0.866765    17A     -0.819154    18A     -0.735518
      19A     -0.702225    20A     -0.671462    21A     -0.627717
      22A     -0.612609    23A     -0.603211    24A     -0.589320
      25A     -0.566947    26A     -0.544078    27A     -0.514056
      28A     -0.495471    29A     -0.489527    30A     -0.474912
      31A     -0.421421    32A     -0.414257    33A     -0.307684

  @DF-RHF Final Energy:  -399.77873932341600

   => Energetics <=

    Nuclear Repulsion Energy =            432.5242574222070857
    One-Electron Energy =               -1400.3400223707967598
    Two-Electron Energy =                 568.0370256251737828
    Total Energy =                       -399.7787393234159481
  Basis Set: (AUG-CC-PVTZ AUX)
    Blend: AUG-CC-PVTZ-RI
    Molecular point group: c1

    Geometry (in Angstrom), charge = 0, multiplicity = 1:

       Center              X                  Y                   Z               Mass
    ------------   -----------------  -----------------  -----------------  -----------------
         O            0.645653186649     1.940329689361    -0.212288680744    15.994914619570
         N           -1.423787813351     1.022105689361     0.128231319256    14.003074004430
         C            0.419155286649    -0.489143210639    -0.243654380744    12.000000000000
         C            1.884545186649    -0.633449310639    -0.529550680744    12.000000000000
         C           -0.051410813351     0.917979689361    -0.127365680744    12.000000000000
         C           -0.465795813351    -1.499919310639    -0.164383680744    12.000000000000
         C            2.717229186649    -0.348432310639     0.724732319256    12.000000000000
         C           -1.847700813351    -1.298811310639     0.102639319256    12.000000000000
         C           -2.302065813351    -0.019197310639     0.246005319256    12.000000000000
         H            2.066008186649    -1.655391310639    -0.881916680744     1.007825032230
         H            2.189994186649     0.053505689361    -1.326222680744     1.007825032230
         H           -0.092694813351    -2.516254310639    -0.285353680744     1.007825032230
         H            3.782884186649    -0.491953310639     0.522357319256     1.007825032230
         H            2.429436186649    -1.020548310639     1.538473319256     1.007825032230
         H            2.562119186649     0.682694689361     1.047088319256     1.007825032230
         H           -1.746901813351     1.980921689361     0.230943319256     1.007825032230
         H           -2.534235813351    -2.132842310639     0.191869319256     1.007825032230
         H           -3.335485813351     0.241531689361     0.449960319256     1.007825032230

  Basis Set: AUG-CC-PVTZ
    Blend: AUG-CC-PVTZ
  Basis Set: (AUG-CC-PVTZ AUX)
    Blend: AUG-CC-PVTZ-JKFIT
	 Reference Energy          =    -399.7787393234160049 [Eh]
	 Singles Energy            =      -0.0000000000000000 [Eh]
	 Same-Spin Energy          =      -0.4233902168329289 [Eh]
	 Opposite-Spin Energy      =      -1.3394109916371391 [Eh]
	 Correlation Energy        =      -1.7628012084700679 [Eh]
	 Total Energy              =    -401.5415405318860849 [Eh]

	 ================> DF-SCS-MP2 Energies <==================
	-----------------------------------------------------------
	 SCS Same-Spin Scale       =       0.3333333333333333 [-]
	 SCS Opposite-Spin Scale   =       1.2000000000000000 [-]
	 SCS Same-Spin Energy      =      -0.1411300722776430 [Eh]
	 SCS Opposite-Spin Energy  =      -1.6072931899645668 [Eh]
	 SCS Correlation Energy    =      -1.7484232622422098 [Eh]
	 SCS Total Energy          =    -401.5271625856582318 [Eh]
	-----------------------------------------------------------

  Dipole Moment: [D]
     X:    -2.8789      Y:    -2.1564      Z:     0.4571     Total:     3.6259

*** Psi4 exiting successfully. Buy a developer a beer!
