                               Psi4 1.3.2 release

  ==> Input File <==

--------------------------------------------------------------------------
#psi4
#
memory 32 gb

molecule  {
0 1
  O        0.6058420     1.9734460    -0.2200840
  N       -1.4635990     1.0552220     0.1204360
  C        0.3766720    -0.4191730    -0.2885420
  C        1.8447340    -0.6003330    -0.5373460
  C       -0.0869573     1.0974645    -0.1298913
  C       -0.5056070    -1.4668030    -0.1721790
  C        2.6774180    -0.3153160     0.7169370
  C       -1.8875120    -1.2656950     0.0948440
  C       -2.3418770     0.0139190     0.2382100
  H        2.0261970    -1.6222750    -0.8897120
  H        2.1501830     0.0866220    -1.3340180
  H       -0.1325060    -2.4831380    -0.2931490
  H        3.7430730    -0.4588370     0.5145620
  H        2.3896250    -0.9874320     1.5306780
  H        2.5223080     0.7158110     1.0392930
  H       -1.7867130     2.0140380     0.2231480
  H       -2.5740470    -2.0997260     0.1840740
  H       -3.3752970     0.2746480     0.4421650
units angstrom
no_reorient  #important for SAPT in psi4, default
symmetry c1  #important for SAPT in psi4, default
}

set PROPERTIES_ORIGIN ["COM"]
properties('MP2/aug-cc-pvtz', properties = ['dipole'])
--------------------------------------------------------------------------

    Molecular point group: c1
  Charge       = 0
  Multiplicity = 1
  Basis Set: AUG-CC-PVTZ
    Blend: AUG-CC-PVTZ
  Basis Set: (AUG-CC-PVTZ AUX)
    Blend: AUG-CC-PVTZ-JKFIT

    Orbital Energies [Eh]
    ---------------------

    Doubly Occupied:

       1A    -20.538505     2A    -15.614217     3A    -11.356269
       4A    -11.298981     5A    -11.248383     6A    -11.242738
       7A    -11.233606     8A    -11.221114     9A    -11.206712
      10A     -1.459567    11A     -1.276221    12A     -1.102076
      13A     -1.048748    14A     -0.983548    15A     -0.881293
      16A     -0.846809    17A     -0.814090    18A     -0.726855
      19A     -0.699089    20A     -0.680657    21A     -0.642552
      22A     -0.629049    23A     -0.611434    24A     -0.584274
      25A     -0.564424    26A     -0.554639    27A     -0.516794
      28A     -0.513081    29A     -0.498106    30A     -0.479269
      31A     -0.411074    32A     -0.403936    33A     -0.296993

  @DF-RHF Final Energy:  -399.75470155245182

   => Energetics <=

    Nuclear Repulsion Energy =            432.3219921981368543
    One-Electron Energy =               -1399.7831791069993415
    Two-Electron Energy =                 567.7064853564106670
    Total Energy =                       -399.7547015524518201
  Basis Set: (AUG-CC-PVTZ AUX)
    Blend: AUG-CC-PVTZ-RI
    Molecular point group: c1

    Geometry (in Angstrom), charge = 0, multiplicity = 1:

       Center              X                  Y                   Z               Mass
    ------------   -----------------  -----------------  -----------------  -----------------
         O            0.645497897413     1.922464270200    -0.209185762717    15.994914619570
         N           -1.423943102587     1.004240270200     0.131334237283    14.003074004430
         C            0.416327897413    -0.470154729800    -0.277643762717    12.000000000000
         C            1.884389897413    -0.651314729800    -0.526447762717    12.000000000000
         C           -0.047301402587     1.046482770200    -0.118993062717    12.000000000000
         C           -0.465951102587    -1.517784729800    -0.161280762717    12.000000000000
         C            2.717073897413    -0.366297729800     0.727835237283    12.000000000000
         C           -1.847856102587    -1.316676729800     0.105742237283    12.000000000000
         C           -2.302221102587    -0.037062729800     0.249108237283    12.000000000000
         H            2.065852897413    -1.673256729800    -0.878813762717     1.007825032230
         H            2.189838897413     0.035640270200    -1.323119762717     1.007825032230
         H           -0.092850102587    -2.534119729800    -0.282250762717     1.007825032230
         H            3.782728897413    -0.509818729800     0.525460237283     1.007825032230
         H            2.429280897413    -1.038413729800     1.541576237283     1.007825032230
         H            2.561963897413     0.664829270200     1.050191237283     1.007825032230
         H           -1.747057102587     1.963056270200     0.234046237283     1.007825032230
         H           -2.534391102587    -2.150707729800     0.194972237283     1.007825032230
         H           -3.335641102587     0.223666270200     0.453063237283     1.007825032230

  Basis Set: AUG-CC-PVTZ
    Blend: AUG-CC-PVTZ
  Basis Set: (AUG-CC-PVTZ AUX)
    Blend: AUG-CC-PVTZ-JKFIT
	 Reference Energy          =    -399.7547015524518201 [Eh]
	 Singles Energy            =      -0.0000000000000000 [Eh]
	 Same-Spin Energy          =      -0.4208895751332208 [Eh]
	 Opposite-Spin Energy      =      -1.3358185116018566 [Eh]
	 Correlation Energy        =      -1.7567080867350775 [Eh]
	 Total Energy              =    -401.5114096391869225 [Eh]

	 ================> DF-SCS-MP2 Energies <==================
	-----------------------------------------------------------
	 SCS Same-Spin Scale       =       0.3333333333333333 [-]
	 SCS Opposite-Spin Scale   =       1.2000000000000000 [-]
	 SCS Same-Spin Energy      =      -0.1402965250444069 [Eh]
	 SCS Opposite-Spin Energy  =      -1.6029822139222278 [Eh]
	 SCS Correlation Energy    =      -1.7432787389666347 [Eh]
	 SCS Total Energy          =    -401.4979802914184575 [Eh]
	-----------------------------------------------------------

  Dipole Moment: [D]
     X:    -2.3692      Y:    -1.2231      Z:     0.4047     Total:     2.6968

*** Psi4 exiting successfully. Buy a developer a beer!
