                               Psi4 1.3.2 release

  ==> Input File <==

--------------------------------------------------------------------------
#psi4
#
memory 32 gb

molecule  {
0 1
  O        0.6058420     1.9734460    -0.2200840
  N       -1.4635990     1.0552220     0.1204360
  C        0.3766720    -0.4191730    -0.2885420
  C        1.8277383    -0.7035956    -0.5404125
  C       -0.0912220     0.9510960    -0.1351610
  C       -0.5056070    -1.4668030    -0.1721790
  C        2.6774180    -0.3153160     0.7169370
  C       -1.8875120    -1.2656950     0.0948440
  C       -2.3418770     0.0139190     0.2382100
  H        2.0261970    -1.6222750    -0.8897120
  H        2.1501830     0.0866220    -1.3340180
  H       -0.1325060    -2.4831380    -0.2931490
  H        3.7430730    -0.4588370     0.5145620
  H        2.3896250    -0.9874320     1.5306780
  H        2.5223080     0.7158110     1.0392930
  H       -1.7867130     2.0140380     0.2231480
  H       -2.5740470    -2.0997260     0.1840740
  H       -3.3752970     0.2746480     0.4421650
units angstrom
no_reorient  #important for SAPT in psi4, default
symmetry c1  #important for SAPT in psi4, default
}

set PROPERTIES_ORIGIN ["COM"]
properties('MP2/aug-cc-pvtz', properties = ['dipole'])
--------------------------------------------------------------------------

    Molecular point group: c1
  Charge       = 0
  Multiplicity = 1
  Basis Set: AUG-CC-PVTZ
    Blend: AUG-CC-PVTZ
  Basis Set: (AUG-CC-PVTZ AUX)
    Blend: AUG-CC-PVTZ-JKFIT

    Orbital Energies [Eh]
    ---------------------

    Doubly Occupied:

       1A    -20.510218     2A    -15.626756     3A    -11.354986
       4A    -11.308677     5A    -11.264042     6A    -11.246097
       7A    -11.241912     8A    -11.224406     9A    -11.207877
      10A     -1.370454    11A     -1.271459    12A     -1.118097
      13A     -1.053655    14A     -0.990494    15A     -0.886771
      16A     -0.871730    17A     -0.820916    18A     -0.739810
      19A     -0.703020    20A     -0.672266    21A     -0.624929
      22A     -0.610907    23A     -0.602672    24A     -0.596225
      25A     -0.562512    26A     -0.547891    27A     -0.517148
      28A     -0.500236    29A     -0.481667    30A     -0.468141
      31A     -0.423993    32A     -0.407461    33A     -0.304989

  @DF-RHF Final Energy:  -399.76651813810173

   => Energetics <=

    Nuclear Repulsion Energy =            432.1427871982451734
    One-Electron Energy =               -1399.5537824911305052
    Two-Electron Energy =                 567.6444771547835444
    Total Energy =                       -399.7665181381017874
  Basis Set: (AUG-CC-PVTZ AUX)
    Blend: AUG-CC-PVTZ-RI
    Molecular point group: c1

    Geometry (in Angstrom), charge = 0, multiplicity = 1:

       Center              X                  Y                   Z               Mass
    ------------   -----------------  -----------------  -----------------  -----------------
         O            0.647570929736     1.946804985293    -0.208372927020    15.994914619570
         N           -1.421870070264     1.028580985293     0.132147072980    14.003074004430
         C            0.418400929736    -0.445814014707    -0.276830927020    12.000000000000
         C            1.869467229736    -0.730236614707    -0.528701427020    12.000000000000
         C           -0.049493070264     0.924454985293    -0.123449927020    12.000000000000
         C           -0.463878070264    -1.493444014707    -0.160467927020    12.000000000000
         C            2.719146929736    -0.341957014707     0.728648072980    12.000000000000
         C           -1.845783070264    -1.292336014707     0.106555072980    12.000000000000
         C           -2.300148070264    -0.012722014707     0.249921072980    12.000000000000
         H            2.067925929736    -1.648916014707    -0.878000927020     1.007825032230
         H            2.191911929736     0.059980985293    -1.322306927020     1.007825032230
         H           -0.090777070264    -2.509779014707    -0.281437927020     1.007825032230
         H            3.784801929736    -0.485478014707     0.526273072980     1.007825032230
         H            2.431353929736    -1.014073014707     1.542389072980     1.007825032230
         H            2.564036929736     0.689169985293     1.051004072980     1.007825032230
         H           -1.744984070264     1.987396985293     0.234859072980     1.007825032230
         H           -2.532318070264    -2.126367014707     0.195785072980     1.007825032230
         H           -3.333568070264     0.248006985293     0.453876072980     1.007825032230

  Basis Set: AUG-CC-PVTZ
    Blend: AUG-CC-PVTZ
  Basis Set: (AUG-CC-PVTZ AUX)
    Blend: AUG-CC-PVTZ-JKFIT
	 Reference Energy          =    -399.7665181381017305 [Eh]
	 Singles Energy            =      -0.0000000000000000 [Eh]
	 Same-Spin Energy          =      -0.4241963708164658 [Eh]
	 Opposite-Spin Energy      =      -1.3405309882117946 [Eh]
	 Correlation Energy        =      -1.7647273590282604 [Eh]
	 Total Energy              =    -401.5312454971299871 [Eh]

	 ================> DF-SCS-MP2 Energies <==================
	-----------------------------------------------------------
	 SCS Same-Spin Scale       =       0.3333333333333333 [-]
	 SCS Opposite-Spin Scale   =       1.2000000000000000 [-]
	 SCS Same-Spin Energy      =      -0.1413987902721552 [Eh]
	 SCS Opposite-Spin Energy  =      -1.6086371858541535 [Eh]
	 SCS Correlation Energy    =      -1.7500359761263087 [Eh]
	 SCS Total Energy          =    -401.5165541142280290 [Eh]
	-----------------------------------------------------------

  Dipole Moment: [D]
     X:    -2.9049      Y:    -2.2877      Z:     0.4806     Total:     3.7287

*** Psi4 exiting successfully. Buy a developer a beer!
