                               Psi4 1.3.2 release

  ==> Input File <==

--------------------------------------------------------------------------
#psi4
#
memory 32 gb

molecule  {
0 1
  O        0.6058420     1.9734460    -0.2200840
  N       -1.4635990     1.0552220     0.1204360
  C        0.3760065    -0.4008260    -0.3072047
  C        1.8447340    -0.6003330    -0.5373460
  C       -0.0912220     0.9510960    -0.1351610
  C       -0.5056070    -1.4668030    -0.1721790
  C        2.6774180    -0.3153160     0.7169370
  C       -1.8875120    -1.2656950     0.0948440
  C       -2.3418770     0.0139190     0.2382100
  H        2.0261970    -1.6222750    -0.8897120
  H        2.1501830     0.0866220    -1.3340180
  H       -0.1325060    -2.4831380    -0.2931490
  H        3.7430730    -0.4588370     0.5145620
  H        2.3896250    -0.9874320     1.5306780
  H        2.5223080     0.7158110     1.0392930
  H       -1.7867130     2.0140380     0.2231480
  H       -2.5740470    -2.0997260     0.1840740
  H       -3.3752970     0.2746480     0.4421650
units angstrom
no_reorient  #important for SAPT in psi4, default
symmetry c1  #important for SAPT in psi4, default
}

set PROPERTIES_ORIGIN ["COM"]
properties('MP2/aug-cc-pvtz', properties = ['dipole'])
--------------------------------------------------------------------------

    Molecular point group: c1
  Charge       = 0
  Multiplicity = 1
  Basis Set: AUG-CC-PVTZ
    Blend: AUG-CC-PVTZ
  Basis Set: (AUG-CC-PVTZ AUX)
    Blend: AUG-CC-PVTZ-JKFIT

    Orbital Energies [Eh]
    ---------------------

    Doubly Occupied:

       1A    -20.507713     2A    -15.626835     3A    -11.350819
       4A    -11.310494     5A    -11.269025     6A    -11.244881
       7A    -11.243200     8A    -11.223813     9A    -11.205468
      10A     -1.369642    11A     -1.271283    12A     -1.116318
      13A     -1.055712    14A     -0.993397    15A     -0.890604
      16A     -0.868412    17A     -0.817081    18A     -0.737978
      19A     -0.703147    20A     -0.672136    21A     -0.624759
      22A     -0.611994    23A     -0.602709    24A     -0.591237
      25A     -0.564021    26A     -0.547226    27A     -0.514667
      28A     -0.495613    29A     -0.484439    30A     -0.473597
      31A     -0.422468    32A     -0.409828    33A     -0.305818

  @DF-RHF Final Energy:  -399.77825568371429

   => Energetics <=

    Nuclear Repulsion Energy =            432.6450418090798848
    One-Electron Energy =               -1400.5939252452853907
    Two-Electron Energy =                 568.1706277524912139
    Total Energy =                       -399.7782556837142920
  Basis Set: (AUG-CC-PVTZ AUX)
    Blend: AUG-CC-PVTZ-RI
    Molecular point group: c1

    Geometry (in Angstrom), charge = 0, multiplicity = 1:

       Center              X                  Y                   Z               Mass
    ------------   -----------------  -----------------  -----------------  -----------------
         O            0.645978625149     1.934947229484    -0.206852192381    15.994914619570
         N           -1.423462374851     1.016723229484     0.133667807619    14.003074004430
         C            0.416143125149    -0.439324770516    -0.293972892381    12.000000000000
         C            1.884870625149    -0.638831770516    -0.524114192381    12.000000000000
         C           -0.051085374851     0.912597229484    -0.121929192381    12.000000000000
         C           -0.465470374851    -1.505301770516    -0.158947192381    12.000000000000
         C            2.717554625149    -0.353814770516     0.730168807619    12.000000000000
         C           -1.847375374851    -1.304193770516     0.108075807619    12.000000000000
         C           -2.301740374851    -0.024579770516     0.251441807619    12.000000000000
         H            2.066333625149    -1.660773770516    -0.876480192381     1.007825032230
         H            2.190319625149     0.048123229484    -1.320786192381     1.007825032230
         H           -0.092369374851    -2.521636770516    -0.279917192381     1.007825032230
         H            3.783209625149    -0.497335770516     0.527793807619     1.007825032230
         H            2.429761625149    -1.025930770516     1.543909807619     1.007825032230
         H            2.562444625149     0.677312229484     1.052524807619     1.007825032230
         H           -1.746576374851     1.975539229484     0.236379807619     1.007825032230
         H           -2.533910374851    -2.138224770516     0.197305807619     1.007825032230
         H           -3.335160374851     0.236149229484     0.455396807619     1.007825032230

  Basis Set: AUG-CC-PVTZ
    Blend: AUG-CC-PVTZ
  Basis Set: (AUG-CC-PVTZ AUX)
    Blend: AUG-CC-PVTZ-JKFIT
	 Reference Energy          =    -399.7782556837142920 [Eh]
	 Singles Energy            =      -0.0000000000000000 [Eh]
	 Same-Spin Energy          =      -0.4244122933517053 [Eh]
	 Opposite-Spin Energy      =      -1.3402824563721385 [Eh]
	 Correlation Energy        =      -1.7646947497238439 [Eh]
	 Total Energy              =    -401.5429504334381363 [Eh]

	 ================> DF-SCS-MP2 Energies <==================
	-----------------------------------------------------------
	 SCS Same-Spin Scale       =       0.3333333333333333 [-]
	 SCS Opposite-Spin Scale   =       1.2000000000000000 [-]
	 SCS Same-Spin Energy      =      -0.1414707644505684 [Eh]
	 SCS Opposite-Spin Energy  =      -1.6083389476465662 [Eh]
	 SCS Correlation Energy    =      -1.7498097120971345 [Eh]
	 SCS Total Energy          =    -401.5280653958114385 [Eh]
	-----------------------------------------------------------

  Dipole Moment: [D]
     X:    -2.9605      Y:    -2.2840      Z:     0.4872     Total:     3.7708

*** Psi4 exiting successfully. Buy a developer a beer!
