                               Psi4 1.3.2 release

  ==> Input File <==

--------------------------------------------------------------------------
#psi4
#
memory 32 gb

molecule  {
0 1
  O        0.6058420     1.9734460    -0.2200840
  N       -1.4635990     1.0552220     0.1204360
  C        0.3766720    -0.4191730    -0.2885420
  C        1.8371258    -0.6521062    -0.5390318
  C       -0.0912220     0.9510960    -0.1351610
  C       -0.5056070    -1.4668030    -0.1721790
  C        2.6774180    -0.3153160     0.7169370
  C       -1.8875120    -1.2656950     0.0948440
  C       -2.3418770     0.0139190     0.2382100
  H        2.0261970    -1.6222750    -0.8897120
  H        2.1501830     0.0866220    -1.3340180
  H       -0.1325060    -2.4831380    -0.2931490
  H        3.7430730    -0.4588370     0.5145620
  H        2.3896250    -0.9874320     1.5306780
  H        2.5223080     0.7158110     1.0392930
  H       -1.7867130     2.0140380     0.2231480
  H       -2.5740470    -2.0997260     0.1840740
  H       -3.3752970     0.2746480     0.4421650
units angstrom
no_reorient  #important for SAPT in psi4, default
symmetry c1  #important for SAPT in psi4, default
}

set PROPERTIES_ORIGIN ["COM"]
properties('MP2/aug-cc-pvtz', properties = ['dipole'])
--------------------------------------------------------------------------

    Molecular point group: c1
  Charge       = 0
  Multiplicity = 1
  Basis Set: AUG-CC-PVTZ
    Blend: AUG-CC-PVTZ
  Basis Set: (AUG-CC-PVTZ AUX)
    Blend: AUG-CC-PVTZ-JKFIT

    Orbital Energies [Eh]
    ---------------------

    Doubly Occupied:

       1A    -20.510002     2A    -15.626358     3A    -11.353893
       4A    -11.309012     5A    -11.264935     6A    -11.245338
       7A    -11.242229     8A    -11.223885     9A    -11.206514
      10A     -1.370294    11A     -1.271302    12A     -1.117774
      13A     -1.054289    14A     -0.991957    15A     -0.887698
      16A     -0.869690    17A     -0.818880    18A     -0.738104
      19A     -0.703105    20A     -0.671985    21A     -0.624270
      22A     -0.611396    23A     -0.602029    24A     -0.594601
      25A     -0.563561    26A     -0.546965    27A     -0.510967
      28A     -0.502917    29A     -0.483306    30A     -0.472770
      31A     -0.423193    32A     -0.409627    33A     -0.305741

  @DF-RHF Final Energy:  -399.77644655520339

   => Energetics <=

    Nuclear Repulsion Energy =            432.3722845357608549
    One-Electron Energy =               -1400.0402892057231838
    Two-Electron Energy =                 567.8915581147589364
    Total Energy =                       -399.7764465552033926
  Basis Set: (AUG-CC-PVTZ AUX)
    Blend: AUG-CC-PVTZ-RI
    Molecular point group: c1

    Geometry (in Angstrom), charge = 0, multiplicity = 1:

       Center              X                  Y                   Z               Mass
    ------------   -----------------  -----------------  -----------------  -----------------
         O            0.646655585202     1.941784421687    -0.208507554578    15.994914619570
         N           -1.422785414798     1.023560421687     0.132012445422    14.003074004430
         C            0.417485585202    -0.450834578313    -0.276965554578    12.000000000000
         C            1.877939385202    -0.683767778313    -0.527455354578    12.000000000000
         C           -0.050408414798     0.919434421687    -0.123584554578    12.000000000000
         C           -0.464793414798    -1.498464578313    -0.160602554578    12.000000000000
         C            2.718231585202    -0.346977578313     0.728513445422    12.000000000000
         C           -1.846698414798    -1.297356578313     0.106420445422    12.000000000000
         C           -2.301063414798    -0.017742578313     0.249786445422    12.000000000000
         H            2.067010585202    -1.653936578313    -0.878135554578     1.007825032230
         H            2.190996585202     0.054960421687    -1.322441554578     1.007825032230
         H           -0.091692414798    -2.514799578313    -0.281572554578     1.007825032230
         H            3.783886585202    -0.490498578313     0.526138445422     1.007825032230
         H            2.430438585202    -1.019093578313     1.542254445422     1.007825032230
         H            2.563121585202     0.684149421687     1.050869445422     1.007825032230
         H           -1.745899414798     1.982376421687     0.234724445422     1.007825032230
         H           -2.533233414798    -2.131387578313     0.195650445422     1.007825032230
         H           -3.334483414798     0.242986421687     0.453741445422     1.007825032230

  Basis Set: AUG-CC-PVTZ
    Blend: AUG-CC-PVTZ
  Basis Set: (AUG-CC-PVTZ AUX)
    Blend: AUG-CC-PVTZ-JKFIT
	 Reference Energy          =    -399.7764465552033926 [Eh]
	 Singles Energy            =      -0.0000000000000000 [Eh]
	 Same-Spin Energy          =      -0.4240560231901492 [Eh]
	 Opposite-Spin Energy      =      -1.3400473419332473 [Eh]
	 Correlation Energy        =      -1.7641033651233964 [Eh]
	 Total Energy              =    -401.5405499203267823 [Eh]

	 ================> DF-SCS-MP2 Energies <==================
	-----------------------------------------------------------
	 SCS Same-Spin Scale       =       0.3333333333333333 [-]
	 SCS Opposite-Spin Scale   =       1.2000000000000000 [-]
	 SCS Same-Spin Energy      =      -0.1413520077300497 [Eh]
	 SCS Opposite-Spin Energy  =      -1.6080568103198967 [Eh]
	 SCS Correlation Energy    =      -1.7494088180499463 [Eh]
	 SCS Total Energy          =    -401.5258553732533642 [Eh]
	-----------------------------------------------------------

  Dipole Moment: [D]
     X:    -2.9166      Y:    -2.2692      Z:     0.4746     Total:     3.7257

*** Psi4 exiting successfully. Buy a developer a beer!
