                               Psi4 1.3.2 release

  ==> Input File <==

--------------------------------------------------------------------------
#psi4
#
memory 32 gb

molecule  {
0 1
  O        0.6058420     1.9734460    -0.2200840
  N       -1.4635990     1.0552220     0.1204360
  C        0.3819123    -0.4126775    -0.2637287
  C        1.8447340    -0.6003330    -0.5373460
  C       -0.0912220     0.9510960    -0.1351610
  C       -0.5056070    -1.4668030    -0.1721790
  C        2.6774180    -0.3153160     0.7169370
  C       -1.8875120    -1.2656950     0.0948440
  C       -2.3418770     0.0139190     0.2382100
  H        2.0261970    -1.6222750    -0.8897120
  H        2.1501830     0.0866220    -1.3340180
  H       -0.1325060    -2.4831380    -0.2931490
  H        3.7430730    -0.4588370     0.5145620
  H        2.3896250    -0.9874320     1.5306780
  H        2.5223080     0.7158110     1.0392930
  H       -1.7867130     2.0140380     0.2231480
  H       -2.5740470    -2.0997260     0.1840740
  H       -3.3752970     0.2746480     0.4421650
units angstrom
no_reorient  #important for SAPT in psi4, default
symmetry c1  #important for SAPT in psi4, default
}

set PROPERTIES_ORIGIN ["COM"]
properties('MP2/aug-cc-pvtz', properties = ['dipole'])
--------------------------------------------------------------------------

    Molecular point group: c1
  Charge       = 0
  Multiplicity = 1
  Basis Set: AUG-CC-PVTZ
    Blend: AUG-CC-PVTZ
  Basis Set: (AUG-CC-PVTZ AUX)
    Blend: AUG-CC-PVTZ-JKFIT

    Orbital Energies [Eh]
    ---------------------

    Doubly Occupied:

       1A    -20.508985     2A    -15.626383     3A    -11.352093
       4A    -11.309793     5A    -11.267225     6A    -11.244954
       7A    -11.242840     8A    -11.224033     9A    -11.205034
      10A     -1.370018    11A     -1.271256    12A     -1.117200
      13A     -1.055521    14A     -0.993503    15A     -0.889168
      16A     -0.868056    17A     -0.817280    18A     -0.737644
      19A     -0.703043    20A     -0.672117    21A     -0.625890
      22A     -0.611847    23A     -0.603263    24A     -0.590880
      25A     -0.564891    26A     -0.546607    27A     -0.513204
      28A     -0.495761    29A     -0.485878    30A     -0.473676
      31A     -0.422527    32A     -0.410615    33A     -0.306149

  @DF-RHF Final Energy:  -399.77891116346973

   => Energetics <=

    Nuclear Repulsion Energy =            432.6995142186323733
    One-Electron Energy =               -1400.7021827576568285
    Two-Electron Energy =                 568.2237573755546691
    Total Energy =                       -399.7789111634697292
  Basis Set: (AUG-CC-PVTZ AUX)
    Blend: AUG-CC-PVTZ-RI
    Molecular point group: c1

    Geometry (in Angstrom), charge = 0, multiplicity = 1:

       Center              X                  Y                   Z               Mass
    ------------   -----------------  -----------------  -----------------  -----------------
         O            0.645402769836     1.936102830629    -0.211091395467    15.994914619570
         N           -1.424038230164     1.017878830629     0.129428604533    14.003074004430
         C            0.421473069836    -0.450020669371    -0.254736095467    12.000000000000
         C            1.884294769836    -0.637676169371    -0.528353395467    12.000000000000
         C           -0.051661230164     0.913752830629    -0.126168395467    12.000000000000
         C           -0.466046230164    -1.504146169371    -0.163186395467    12.000000000000
         C            2.716978769836    -0.352659169371     0.725929604533    12.000000000000
         C           -1.847951230164    -1.303038169371     0.103836604533    12.000000000000
         C           -2.302316230164    -0.023424169371     0.247202604533    12.000000000000
         H            2.065757769836    -1.659618169371    -0.880719395467     1.007825032230
         H            2.189743769836     0.049278830629    -1.325025395467     1.007825032230
         H           -0.092945230164    -2.520481169371    -0.284156395467     1.007825032230
         H            3.782633769836    -0.496180169371     0.523554604533     1.007825032230
         H            2.429185769836    -1.024775169371     1.539670604533     1.007825032230
         H            2.561868769836     0.678467830629     1.048285604533     1.007825032230
         H           -1.747152230164     1.976694830629     0.232140604533     1.007825032230
         H           -2.534486230164    -2.137069169371     0.193066604533     1.007825032230
         H           -3.335736230164     0.237304830629     0.451157604533     1.007825032230

  Basis Set: AUG-CC-PVTZ
    Blend: AUG-CC-PVTZ
  Basis Set: (AUG-CC-PVTZ AUX)
    Blend: AUG-CC-PVTZ-JKFIT
	 Reference Energy          =    -399.7789111634697292 [Eh]
	 Singles Energy            =      -0.0000000000000000 [Eh]
	 Same-Spin Energy          =      -0.4242356259341140 [Eh]
	 Opposite-Spin Energy      =      -1.3401491116492892 [Eh]
	 Correlation Energy        =      -1.7643847375834032 [Eh]
	 Total Energy              =    -401.5432959010531135 [Eh]

	 ================> DF-SCS-MP2 Energies <==================
	-----------------------------------------------------------
	 SCS Same-Spin Scale       =       0.3333333333333333 [-]
	 SCS Opposite-Spin Scale   =       1.2000000000000000 [-]
	 SCS Same-Spin Energy      =      -0.1414118753113713 [Eh]
	 SCS Opposite-Spin Energy  =      -1.6081789339791470 [Eh]
	 SCS Correlation Energy    =      -1.7495908092905184 [Eh]
	 SCS Total Energy          =    -401.5285019727602389 [Eh]
	-----------------------------------------------------------

  Dipole Moment: [D]
     X:    -2.9488      Y:    -2.2628      Z:     0.4687     Total:     3.7464

*** Psi4 exiting successfully. Buy a developer a beer!
