                               Psi4 1.3.2 release

  ==> Input File <==

--------------------------------------------------------------------------
#psi4
#
memory 32 gb

molecule  {
0 1
  O        0.6058420     1.9734460    -0.2200840
  N       -1.4635990     1.0552220     0.1204360
  C        0.3766720    -0.4191730    -0.2885420
  C        1.8477510    -0.5743294    -0.5371010
  C       -0.0912220     0.9510960    -0.1351610
  C       -0.5056070    -1.4668030    -0.1721790
  C        2.6774180    -0.3153160     0.7169370
  C       -1.8875120    -1.2656950     0.0948440
  C       -2.3418770     0.0139190     0.2382100
  H        2.0261970    -1.6222750    -0.8897120
  H        2.1501830     0.0866220    -1.3340180
  H       -0.1325060    -2.4831380    -0.2931490
  H        3.7430730    -0.4588370     0.5145620
  H        2.3896250    -0.9874320     1.5306780
  H        2.5223080     0.7158110     1.0392930
  H       -1.7867130     2.0140380     0.2231480
  H       -2.5740470    -2.0997260     0.1840740
  H       -3.3752970     0.2746480     0.4421650
units angstrom
no_reorient  #important for SAPT in psi4, default
symmetry c1  #important for SAPT in psi4, default
}

set PROPERTIES_ORIGIN ["COM"]
properties('MP2/aug-cc-pvtz', properties = ['dipole'])
--------------------------------------------------------------------------

    Molecular point group: c1
  Charge       = 0
  Multiplicity = 1
  Basis Set: AUG-CC-PVTZ
    Blend: AUG-CC-PVTZ
  Basis Set: (AUG-CC-PVTZ AUX)
    Blend: AUG-CC-PVTZ-JKFIT

    Orbital Energies [Eh]
    ---------------------

    Doubly Occupied:

       1A    -20.509922     2A    -15.625946     3A    -11.352527
       4A    -11.309632     5A    -11.266458     6A    -11.244945
       7A    -11.242809     8A    -11.224462     9A    -11.205326
      10A     -1.370330    11A     -1.271257    12A     -1.117681
      13A     -1.055573    14A     -0.994344    15A     -0.889437
      16A     -0.867313    17A     -0.817699    18A     -0.736859
      19A     -0.702827    20A     -0.672006    21A     -0.626967
      22A     -0.612549    23A     -0.603506    24A     -0.588573
      25A     -0.565666    26A     -0.545989    27A     -0.517443
      28A     -0.491912    29A     -0.487398    30A     -0.473103
      31A     -0.422039    32A     -0.411956    33A     -0.306778

  @DF-RHF Final Energy:  -399.77859502253972

   => Energetics <=

    Nuclear Repulsion Energy =            432.7334160828376071
    One-Electron Energy =               -1400.7615604738032289
    Two-Electron Energy =                 568.2495493684258463
    Total Energy =                       -399.7785950225397755
  Basis Set: (AUG-CC-PVTZ AUX)
    Blend: AUG-CC-PVTZ-RI
    Molecular point group: c1

    Geometry (in Angstrom), charge = 0, multiplicity = 1:

       Center              X                  Y                   Z               Mass
    ------------   -----------------  -----------------  -----------------  -----------------
         O            0.645619556574     1.934200659369    -0.208695820594    15.994914619570
         N           -1.423821443426     1.015976659369     0.131824179406    14.003074004430
         C            0.416449556574    -0.458418340631    -0.277153820594    12.000000000000
         C            1.887528556574    -0.613574740631    -0.525712820594    12.000000000000
         C           -0.051444443426     0.911850659369    -0.123772820594    12.000000000000
         C           -0.465829443426    -1.506048340631    -0.160790820594    12.000000000000
         C            2.717195556574    -0.354561340631     0.728325179406    12.000000000000
         C           -1.847734443426    -1.304940340631     0.106232179406    12.000000000000
         C           -2.302099443426    -0.025326340631     0.249598179406    12.000000000000
         H            2.065974556574    -1.661520340631    -0.878323820594     1.007825032230
         H            2.189960556574     0.047376659369    -1.322629820594     1.007825032230
         H           -0.092728443426    -2.522383340631    -0.281760820594     1.007825032230
         H            3.782850556574    -0.498082340631     0.525950179406     1.007825032230
         H            2.429402556574    -1.026677340631     1.542066179406     1.007825032230
         H            2.562085556574     0.676565659369     1.050681179406     1.007825032230
         H           -1.746935443426     1.974792659369     0.234536179406     1.007825032230
         H           -2.534269443426    -2.138971340631     0.195462179406     1.007825032230
         H           -3.335519443426     0.235402659369     0.453553179406     1.007825032230

  Basis Set: AUG-CC-PVTZ
    Blend: AUG-CC-PVTZ
  Basis Set: (AUG-CC-PVTZ AUX)
    Blend: AUG-CC-PVTZ-JKFIT
	 Reference Energy          =    -399.7785950225397187 [Eh]
	 Singles Energy            =      -0.0000000000000000 [Eh]
	 Same-Spin Energy          =      -0.4240786326655228 [Eh]
	 Opposite-Spin Energy      =      -1.3399945309037622 [Eh]
	 Correlation Energy        =      -1.7640731635692850 [Eh]
	 Total Energy              =    -401.5426681861089833 [Eh]

	 ================> DF-SCS-MP2 Energies <==================
	-----------------------------------------------------------
	 SCS Same-Spin Scale       =       0.3333333333333333 [-]
	 SCS Opposite-Spin Scale   =       1.2000000000000000 [-]
	 SCS Same-Spin Energy      =      -0.1413595442218409 [Eh]
	 SCS Opposite-Spin Energy  =      -1.6079934370845146 [Eh]
	 SCS Correlation Energy    =      -1.7493529813063555 [Eh]
	 SCS Total Energy          =    -401.5279480038460633 [Eh]
	-----------------------------------------------------------

  Dipole Moment: [D]
     X:    -2.9434      Y:    -2.2264      Z:     0.4819     Total:     3.7219

*** Psi4 exiting successfully. Buy a developer a beer!
