                               Psi4 1.4a3.dev225

  ==> Input File <==

--------------------------------------------------------------------------
#psi4
#
memory 32 gb

molecule  {
0 1
  O        0.6058420     1.9734460    -0.2200840
  N       -1.4635990     1.0552220     0.1204360
  C        0.3766720    -0.4191730    -0.2885420
  C        1.8447340    -0.6003330    -0.5373460
  C       -0.0912220     0.9510960    -0.1351610
  C       -0.5056070    -1.4668030    -0.1721790
  C        2.6774180    -0.3153160     0.7169370
  C       -1.8875120    -1.2656950     0.0948440
  C       -2.3418770     0.0139190     0.2382100
  H        2.0261970    -1.6222750    -0.8897120
  H        2.1501830     0.0866220    -1.3340180
  H       -0.1325060    -2.4831380    -0.2931490
  H        3.7430730    -0.4588370     0.5145620
  H        2.3896250    -0.9874320     1.5306780
  H        2.5223080     0.7158110     1.0392930
  H       -1.8025987     2.0611776     0.2281978
  H       -2.5740470    -2.0997260     0.1840740
  H       -3.3752970     0.2746480     0.4421650
units angstrom
no_reorient  #important for SAPT in psi4, default
symmetry c1  #important for SAPT in psi4, default
}

set PROPERTIES_ORIGIN ["COM"]
properties('MP2/aug-cc-pvtz', properties = ['dipole'])
--------------------------------------------------------------------------

    Molecular point group: c1
  Charge       = 0
  Multiplicity = 1
  Basis Set: AUG-CC-PVTZ
    Blend: AUG-CC-PVTZ
  Basis Set: (AUG-CC-PVTZ AUX)
    Blend: AUG-CC-PVTZ-JKFIT

    Orbital Energies [Eh]
    ---------------------

    Doubly Occupied:

       1A    -20.509369     2A    -15.630118     3A    -11.352626
       4A    -11.309213     5A    -11.265627     6A    -11.244787
       7A    -11.242251     8A    -11.223929     9A    -11.205408
      10A     -1.368871    11A     -1.267639    12A     -1.115911
      13A     -1.054141    14A     -0.993298    15A     -0.886861
      16A     -0.864834    17A     -0.816676    18A     -0.731263
      19A     -0.701689    20A     -0.668284    21A     -0.624564
      22A     -0.611557    23A     -0.602431    24A     -0.590325
      25A     -0.564573    26A     -0.544684    27A     -0.514144
      28A     -0.495251    29A     -0.485892    30A     -0.473832
      31A     -0.422079    32A     -0.410645    33A     -0.306049

  @DF-RHF Final Energy:  -399.77562701708462

   => Energetics <=

    Nuclear Repulsion Energy =            432.3142405624817002
    One-Electron Energy =               -1399.9820952391169158
    Two-Electron Energy =                 567.8922276595505991
    Total Energy =                       -399.7756270170846165
  Basis Set: (AUG-CC-PVTZ AUX)
    Blend: AUG-CC-PVTZ-RI
    Molecular point group: c1

    Geometry (in Angstrom), charge = 0, multiplicity = 1:

       Center              X                  Y                   Z               Mass
    ------------   -----------------  -----------------  -----------------  -----------------
         O            0.646043824706     1.936350152668    -0.208713284985    15.994914619570
         N           -1.423397175294     1.018126152668     0.131806715015    14.003074004430
         C            0.416873824706    -0.456268847332    -0.277171284985    12.000000000000
         C            1.884935824706    -0.637428847332    -0.525975284985    12.000000000000
         C           -0.051020175294     0.914000152668    -0.123790284985    12.000000000000
         C           -0.465405175294    -1.503898847332    -0.160808284985    12.000000000000
         C            2.717619824706    -0.352411847332     0.728307715015    12.000000000000
         C           -1.847310175294    -1.302790847332     0.106214715015    12.000000000000
         C           -2.301675175294    -0.023176847332     0.249580715015    12.000000000000
         H            2.066398824706    -1.659370847332    -0.878341284985     1.007825032230
         H            2.190384824706     0.049526152668    -1.322647284985     1.007825032230
         H           -0.092304175294    -2.520233847332    -0.281778284985     1.007825032230
         H            3.783274824706    -0.495932847332     0.525932715015     1.007825032230
         H            2.429826824706    -1.024527847332     1.542048715015     1.007825032230
         H            2.562509824706     0.678715152668     1.050663715015     1.007825032230
         H           -1.762396875294     2.024081752668     0.239568515015     1.007825032230
         H           -2.533845175294    -2.136821847332     0.195444715015     1.007825032230
         H           -3.335095175294     0.237552152668     0.453535715015     1.007825032230

  Basis Set: AUG-CC-PVTZ
    Blend: AUG-CC-PVTZ
  Basis Set: (AUG-CC-PVTZ AUX)
    Blend: AUG-CC-PVTZ-JKFIT
	 Reference Energy          =    -399.7756270170846165 [Eh]
	 Singles Energy            =      -0.0000000000000000 [Eh]
	 Same-Spin Energy          =      -0.4245000472884664 [Eh]
	 Opposite-Spin Energy      =      -1.3409240274116283 [Eh]
	 Correlation Energy        =      -1.7654240747000947 [Eh]
	 Total Energy              =    -401.5410510917847091 [Eh]

	 ================> DF-SCS-MP2 Energies <==================
	-----------------------------------------------------------
	 SCS Same-Spin Scale       =       0.3333333333333333 [-]
	 SCS Opposite-Spin Scale   =       1.2000000000000000 [-]
	 SCS Same-Spin Energy      =      -0.1415000157628221 [Eh]
	 SCS Opposite-Spin Energy  =      -1.6091088328939540 [Eh]
	 SCS Correlation Energy    =      -1.7506088486567761 [Eh]
	 SCS Total Energy          =    -401.5262358657413984 [Eh]
	-----------------------------------------------------------

  Dipole Moment: [D]
     X:    -2.9585      Y:    -2.1877      Z:     0.4841     Total:     3.7112

*** Psi4 exiting successfully. Buy a developer a beer!
