                               Psi4 1.3.2 release

  ==> Input File <==

--------------------------------------------------------------------------
#psi4
#
memory 32 gb

molecule  {
0 1
  O        0.6058420     1.9734460    -0.2200840
  N       -1.4635990     1.0552220     0.1204360
  C        0.3675345    -0.4323276    -0.3383883
  C        1.8447340    -0.6003330    -0.5373460
  C       -0.0912220     0.9510960    -0.1351610
  C       -0.5056070    -1.4668030    -0.1721790
  C        2.6774180    -0.3153160     0.7169370
  C       -1.8875120    -1.2656950     0.0948440
  C       -2.3418770     0.0139190     0.2382100
  H        2.0261970    -1.6222750    -0.8897120
  H        2.1501830     0.0866220    -1.3340180
  H       -0.1325060    -2.4831380    -0.2931490
  H        3.7430730    -0.4588370     0.5145620
  H        2.3896250    -0.9874320     1.5306780
  H        2.5223080     0.7158110     1.0392930
  H       -1.7867130     2.0140380     0.2231480
  H       -2.5740470    -2.0997260     0.1840740
  H       -3.3752970     0.2746480     0.4421650
units angstrom
no_reorient  #important for SAPT in psi4, default
symmetry c1  #important for SAPT in psi4, default
}

set PROPERTIES_ORIGIN ["COM"]
properties('MP2/aug-cc-pvtz', properties = ['dipole'])
--------------------------------------------------------------------------

    Molecular point group: c1
  Charge       = 0
  Multiplicity = 1
  Basis Set: AUG-CC-PVTZ
    Blend: AUG-CC-PVTZ
  Basis Set: (AUG-CC-PVTZ AUX)
    Blend: AUG-CC-PVTZ-JKFIT

    Orbital Energies [Eh]
    ---------------------

    Doubly Occupied:

       1A    -20.511732     2A    -15.625466     3A    -11.354675
       4A    -11.308908     5A    -11.263767     6A    -11.245255
       7A    -11.242186     8A    -11.224167     9A    -11.206654
      10A     -1.370757    11A     -1.271231    12A     -1.118352
      13A     -1.054348    14A     -0.993561    15A     -0.888265
      16A     -0.867425    17A     -0.818788    18A     -0.736050
      19A     -0.702501    20A     -0.671586    21A     -0.625182
      22A     -0.612694    23A     -0.602535    24A     -0.589956
      25A     -0.565103    26A     -0.545230    27A     -0.517150
      28A     -0.495097    29A     -0.486497    30A     -0.474992
      31A     -0.421876    32A     -0.412379    33A     -0.307003

  @DF-RHF Final Energy:  -399.77878788801115

   => Energetics <=

    Nuclear Repulsion Energy =            432.3877081029369265
    One-Electron Energy =               -1400.0702613218913939
    Two-Electron Energy =                 567.9037653309433153
    Total Energy =                       -399.7787878880111521
  Basis Set: (AUG-CC-PVTZ AUX)
    Blend: AUG-CC-PVTZ-RI
    Molecular point group: c1

    Geometry (in Angstrom), charge = 0, multiplicity = 1:

       Center              X                  Y                   Z               Mass
    ------------   -----------------  -----------------  -----------------  -----------------
         O            0.646804702261     1.938018847846    -0.203811581163    15.994914619570
         N           -1.422636297739     1.019794847846     0.136708418837    14.003074004430
         C            0.408497202261    -0.467754752154    -0.322115881163    12.000000000000
         C            1.885696702261    -0.635760152154    -0.521073581163    12.000000000000
         C           -0.050259297739     0.915668847846    -0.118888581163    12.000000000000
         C           -0.464644297739    -1.502230152154    -0.155906581163    12.000000000000
         C            2.718380702261    -0.350743152154     0.733209418837    12.000000000000
         C           -1.846549297739    -1.301122152154     0.111116418837    12.000000000000
         C           -2.300914297739    -0.021508152154     0.254482418837    12.000000000000
         H            2.067159702261    -1.657702152154    -0.873439581163     1.007825032230
         H            2.191145702261     0.051194847846    -1.317745581163     1.007825032230
         H           -0.091543297739    -2.518565152154    -0.276876581163     1.007825032230
         H            3.784035702261    -0.494264152154     0.530834418837     1.007825032230
         H            2.430587702261    -1.022859152154     1.546950418837     1.007825032230
         H            2.563270702261     0.680383847846     1.055565418837     1.007825032230
         H           -1.745750297739     1.978610847846     0.239420418837     1.007825032230
         H           -2.533084297739    -2.135153152154     0.200346418837     1.007825032230
         H           -3.334334297739     0.239220847846     0.458437418837     1.007825032230

  Basis Set: AUG-CC-PVTZ
    Blend: AUG-CC-PVTZ
  Basis Set: (AUG-CC-PVTZ AUX)
    Blend: AUG-CC-PVTZ-JKFIT
	 Reference Energy          =    -399.7787878880111521 [Eh]
	 Singles Energy            =      -0.0000000000000000 [Eh]
	 Same-Spin Energy          =      -0.4237301032776127 [Eh]
	 Opposite-Spin Energy      =      -1.3396609618602027 [Eh]
	 Correlation Energy        =      -1.7633910651378155 [Eh]
	 Total Energy              =    -401.5421789531489480 [Eh]

	 ================> DF-SCS-MP2 Energies <==================
	-----------------------------------------------------------
	 SCS Same-Spin Scale       =       0.3333333333333333 [-]
	 SCS Opposite-Spin Scale   =       1.2000000000000000 [-]
	 SCS Same-Spin Energy      =      -0.1412433677592042 [Eh]
	 SCS Opposite-Spin Energy  =      -1.6075931542322432 [Eh]
	 SCS Correlation Energy    =      -1.7488365219914475 [Eh]
	 SCS Total Energy          =    -401.5276244100026020 [Eh]
	-----------------------------------------------------------

  Dipole Moment: [D]
     X:    -2.9063      Y:    -2.1987      Z:     0.4969     Total:     3.6780

*** Psi4 exiting successfully. Buy a developer a beer!
