                               Psi4 1.4a3.dev225

  ==> Input File <==

--------------------------------------------------------------------------
#psi4
#
memory 32 gb

molecule  {
0 1
  O        0.6058420     1.9734460    -0.2200840
  N       -1.4635990     1.0552220     0.1204360
  C        0.3766720    -0.4191730    -0.2885420
  C        1.8447340    -0.6003330    -0.5373460
  C       -0.0912220     0.9510960    -0.1351610
  C       -0.5056070    -1.4668030    -0.1721790
  C        2.6774180    -0.3153160     0.7169370
  C       -1.8875120    -1.2656950     0.0948440
  C       -2.3290303     0.0291503     0.2364873
  H        2.0261970    -1.6222750    -0.8897120
  H        2.1501830     0.0866220    -1.3340180
  H       -0.1325060    -2.4831380    -0.2931490
  H        3.7430730    -0.4588370     0.5145620
  H        2.3896250    -0.9874320     1.5306780
  H        2.5223080     0.7158110     1.0392930
  H       -1.7867130     2.0140380     0.2231480
  H       -2.5740470    -2.0997260     0.1840740
  H       -3.3752970     0.2746480     0.4421650
units angstrom
no_reorient  #important for SAPT in psi4, default
symmetry c1  #important for SAPT in psi4, default
}

set PROPERTIES_ORIGIN ["COM"]
properties('MP2/aug-cc-pvtz', properties = ['dipole'])
--------------------------------------------------------------------------

    Molecular point group: c1
  Charge       = 0
  Multiplicity = 1
  Basis Set: AUG-CC-PVTZ
    Blend: AUG-CC-PVTZ
  Basis Set: (AUG-CC-PVTZ AUX)
    Blend: AUG-CC-PVTZ-JKFIT

    Orbital Energies [Eh]
    ---------------------

    Doubly Occupied:

       1A    -20.510026     2A    -15.628586     3A    -11.353154
       4A    -11.310871     5A    -11.265631     6A    -11.243537
       7A    -11.242220     8A    -11.223565     9A    -11.205140
      10A     -1.371832    11A     -1.277619    12A     -1.117558
      13A     -1.053296    14A     -0.993151    15A     -0.888770
      16A     -0.869513    17A     -0.818691    18A     -0.740046
      19A     -0.703857    20A     -0.670349    21A     -0.626406
      22A     -0.612480    23A     -0.604297    24A     -0.589918
      25A     -0.564448    26A     -0.545759    27A     -0.514284
      28A     -0.495511    29A     -0.486095    30A     -0.474152
      31A     -0.422551    32A     -0.411946    33A     -0.303904

  @DF-RHF Final Energy:  -399.77891674499369

   => Energetics <=

    Nuclear Repulsion Energy =            432.8794897293013264
    One-Electron Energy =               -1401.0384875449374249
    Two-Electron Energy =                 568.3800810706424045
    Total Energy =                       -399.7789167449936940
  Basis Set: (AUG-CC-PVTZ AUX)
    Blend: AUG-CC-PVTZ-RI
    Molecular point group: c1

    Geometry (in Angstrom), charge = 0, multiplicity = 1:

       Center              X                  Y                   Z               Mass
    ------------   -----------------  -----------------  -----------------  -----------------
         O            0.644661094559     1.935251031238    -0.208503956579    15.994914619570
         N           -1.424779905441     1.017027031238     0.132016043421    14.003074004430
         C            0.415491094559    -0.457367968762    -0.276961956579    12.000000000000
         C            1.883553094559    -0.638527968762    -0.525765956579    12.000000000000
         C           -0.052402905441     0.912901031238    -0.123580956579    12.000000000000
         C           -0.466787905441    -1.504997968762    -0.160598956579    12.000000000000
         C            2.716237094559    -0.353510968762     0.728517043421    12.000000000000
         C           -1.848692905441    -1.303889968762     0.106424043421    12.000000000000
         C           -2.290211205441    -0.009044668762     0.248067343421    12.000000000000
         H            2.065016094559    -1.660469968762    -0.878131956579     1.007825032230
         H            2.189002094559     0.048427031238    -1.322437956579     1.007825032230
         H           -0.093686905441    -2.521332968762    -0.281568956579     1.007825032230
         H            3.781892094559    -0.497031968762     0.526142043421     1.007825032230
         H            2.428444094559    -1.025626968762     1.542258043421     1.007825032230
         H            2.561127094559     0.677616031238     1.050873043421     1.007825032230
         H           -1.747893905441     1.975843031238     0.234728043421     1.007825032230
         H           -2.535227905441    -2.137920968762     0.195654043421     1.007825032230
         H           -3.336477905441     0.236453031238     0.453745043421     1.007825032230

  Basis Set: AUG-CC-PVTZ
    Blend: AUG-CC-PVTZ
  Basis Set: (AUG-CC-PVTZ AUX)
    Blend: AUG-CC-PVTZ-JKFIT
	 Reference Energy          =    -399.7789167449936940 [Eh]
	 Singles Energy            =      -0.0000000000000000 [Eh]
	 Same-Spin Energy          =      -0.4243280815426511 [Eh]
	 Opposite-Spin Energy      =      -1.3399185817916548 [Eh]
	 Correlation Energy        =      -1.7642466633343059 [Eh]
	 Total Energy              =    -401.5431634083279846 [Eh]

	 ================> DF-SCS-MP2 Energies <==================
	-----------------------------------------------------------
	 SCS Same-Spin Scale       =       0.3333333333333333 [-]
	 SCS Opposite-Spin Scale   =       1.2000000000000000 [-]
	 SCS Same-Spin Energy      =      -0.1414426938475503 [Eh]
	 SCS Opposite-Spin Energy  =      -1.6079022981499858 [Eh]
	 SCS Correlation Energy    =      -1.7493449919975361 [Eh]
	 SCS Total Energy          =    -401.5282617369912259 [Eh]
	-----------------------------------------------------------

  Dipole Moment: [D]
     X:    -2.9508      Y:    -2.1906      Z:     0.4811     Total:     3.7064

*** Psi4 exiting successfully. Buy a developer a beer!
