                               Psi4 1.3.2 release

  ==> Input File <==

--------------------------------------------------------------------------
#psi4
#
memory 32 gb

molecule  {
0 1
  O        0.6058420     1.9734460    -0.2200840
  N       -1.4635990     1.0552220     0.1204360
  C        0.3766720    -0.4191730    -0.2885420
  C        1.8447340    -0.6003330    -0.5373460
  C       -0.0912220     0.9510960    -0.1351610
  C       -0.5056070    -1.4668030    -0.1721790
  C        2.6774180    -0.3153160     0.7169370
  C       -1.8875120    -1.2656950     0.0948440
  C       -2.3768541     0.0454095     0.2461290
  H        2.0261970    -1.6222750    -0.8897120
  H        2.1501830     0.0866220    -1.3340180
  H       -0.1325060    -2.4831380    -0.2931490
  H        3.7430730    -0.4588370     0.5145620
  H        2.3896250    -0.9874320     1.5306780
  H        2.5223080     0.7158110     1.0392930
  H       -1.7867130     2.0140380     0.2231480
  H       -2.5740470    -2.0997260     0.1840740
  H       -3.3752970     0.2746480     0.4421650
units angstrom
no_reorient  #important for SAPT in psi4, default
symmetry c1  #important for SAPT in psi4, default
}

set PROPERTIES_ORIGIN ["COM"]
properties('MP2/aug-cc-pvtz', properties = ['dipole'])
--------------------------------------------------------------------------

    Molecular point group: c1
  Charge       = 0
  Multiplicity = 1
  Basis Set: AUG-CC-PVTZ
    Blend: AUG-CC-PVTZ
  Basis Set: (AUG-CC-PVTZ AUX)
    Blend: AUG-CC-PVTZ-JKFIT

    Orbital Energies [Eh]
    ---------------------

    Doubly Occupied:

       1A    -20.509503     2A    -15.628603     3A    -11.353655
       4A    -11.312915     5A    -11.266040     6A    -11.247530
       7A    -11.244980     8A    -11.224027     9A    -11.205533
      10A     -1.370210    11A     -1.271211    12A     -1.116174
      13A     -1.050002    14A     -0.994341    15A     -0.891085
      16A     -0.867491    17A     -0.817405    18A     -0.740675
      19A     -0.706737    20A     -0.671092    21A     -0.627850
      22A     -0.611199    23A     -0.604476    24A     -0.588811
      25A     -0.567818    26A     -0.542245    27A     -0.514578
      28A     -0.495138    29A     -0.485688    30A     -0.473002
      31A     -0.423158    32A     -0.410844    33A     -0.301686

  @DF-RHF Final Energy:  -399.77397298032901

   => Energetics <=

    Nuclear Repulsion Energy =            431.8624159296805942
    One-Electron Energy =               -1399.0013756352720975
    Two-Electron Energy =                 567.3649867252624972
    Total Energy =                       -399.7739729803290629
  Basis Set: (AUG-CC-PVTZ AUX)
    Blend: AUG-CC-PVTZ-RI
    Molecular point group: c1

    Geometry (in Angstrom), charge = 0, multiplicity = 1:

       Center              X                  Y                   Z               Mass
    ------------   -----------------  -----------------  -----------------  -----------------
         O            0.649324237454     1.933665649630    -0.209444087327    15.994914619570
         N           -1.420116762546     1.015441649630     0.131075912673    14.003074004430
         C            0.420154237454    -0.458953350370    -0.277902087327    12.000000000000
         C            1.888216237454    -0.640113350370    -0.526706087327    12.000000000000
         C           -0.047739762546     0.911315649630    -0.124521087327    12.000000000000
         C           -0.462124762546    -1.506583350370    -0.161539087327    12.000000000000
         C            2.720900237454    -0.355096350370     0.727576912673    12.000000000000
         C           -1.844029762546    -1.305475350370     0.105483912673    12.000000000000
         C           -2.333371862546     0.005629149630     0.256768912673    12.000000000000
         H            2.069679237454    -1.662055350370    -0.879072087327     1.007825032230
         H            2.193665237454     0.046841649630    -1.323378087327     1.007825032230
         H           -0.089023762546    -2.522918350370    -0.282509087327     1.007825032230
         H            3.786555237454    -0.498617350370     0.525201912673     1.007825032230
         H            2.433107237454    -1.027212350370     1.541317912673     1.007825032230
         H            2.565790237454     0.676030649630     1.049932912673     1.007825032230
         H           -1.743230762546     1.974257649630     0.233787912673     1.007825032230
         H           -2.530564762546    -2.139506350370     0.194713912673     1.007825032230
         H           -3.331814762546     0.234867649630     0.452804912673     1.007825032230

  Basis Set: AUG-CC-PVTZ
    Blend: AUG-CC-PVTZ
  Basis Set: (AUG-CC-PVTZ AUX)
    Blend: AUG-CC-PVTZ-JKFIT
	 Reference Energy          =    -399.7739729803290061 [Eh]
	 Singles Energy            =      -0.0000000000000000 [Eh]
	 Same-Spin Energy          =      -0.4248157350912327 [Eh]
	 Opposite-Spin Energy      =      -1.3411878198133851 [Eh]
	 Correlation Energy        =      -1.7660035549046178 [Eh]
	 Total Energy              =    -401.5399765352336203 [Eh]

	 ================> DF-SCS-MP2 Energies <==================
	-----------------------------------------------------------
	 SCS Same-Spin Scale       =       0.3333333333333333 [-]
	 SCS Opposite-Spin Scale   =       1.2000000000000000 [-]
	 SCS Same-Spin Energy      =      -0.1416052450304109 [Eh]
	 SCS Opposite-Spin Energy  =      -1.6094253837760621 [Eh]
	 SCS Correlation Energy    =      -1.7510306288064730 [Eh]
	 SCS Total Energy          =    -401.5250036091354673 [Eh]
	-----------------------------------------------------------

  Dipole Moment: [D]
     X:    -2.9550      Y:    -2.2242      Z:     0.4844     Total:     3.7301

*** Psi4 exiting successfully. Buy a developer a beer!
