                               Psi4 1.3.2 release

  ==> Input File <==

--------------------------------------------------------------------------
#psi4
#
memory 32 gb

molecule  {
0 1
  O        0.6058420     1.9734460    -0.2200840
  N       -1.4635990     1.0552220     0.1204360
  C        0.3766720    -0.4191730    -0.2885420
  C        1.8447340    -0.6003330    -0.5373460
  C       -0.0912220     0.9510960    -0.1351610
  C       -0.5056070    -1.4668030    -0.1721790
  C        2.6774180    -0.3153160     0.7169370
  C       -1.8875120    -1.2656950     0.0948440
  C       -2.3418770     0.0139190     0.2382100
  H        2.0261970    -1.6222750    -0.8897120
  H        2.1501830     0.0866220    -1.3340180
  H       -0.1325060    -2.4831380    -0.2931490
  H        3.7430730    -0.4588370     0.5145620
  H        2.3896250    -0.9874320     1.5306780
  H        2.5223080     0.7158110     1.0392930
  H       -1.7549416     1.9197588     0.2130485
  H       -2.5740470    -2.0997260     0.1840740
  H       -3.3752970     0.2746480     0.4421650
units angstrom
no_reorient  #important for SAPT in psi4, default
symmetry c1  #important for SAPT in psi4, default
}

set PROPERTIES_ORIGIN ["COM"]
properties('MP2/aug-cc-pvtz', properties = ['dipole'])
--------------------------------------------------------------------------

    Molecular point group: c1
  Charge       = 0
  Multiplicity = 1
  Basis Set: AUG-CC-PVTZ
    Blend: AUG-CC-PVTZ
  Basis Set: (AUG-CC-PVTZ AUX)
    Blend: AUG-CC-PVTZ-JKFIT

    Orbital Energies [Eh]
    ---------------------

    Doubly Occupied:

       1A    -20.511043     2A    -15.616675     3A    -11.353639
       4A    -11.309852     5A    -11.266563     6A    -11.245404
       7A    -11.243339     8A    -11.224458     9A    -11.205953
      10A     -1.373895    11A     -1.280411    12A     -1.121962
      13A     -1.057367    14A     -0.994136    15A     -0.895789
      16A     -0.874124    17A     -0.820331    18A     -0.749926
      19A     -0.705204    20A     -0.677510    21A     -0.627391
      22A     -0.613289    23A     -0.604206    24A     -0.591188
      25A     -0.565647    26A     -0.548902    27A     -0.515080
      28A     -0.496353    29A     -0.486818    30A     -0.474741
      31A     -0.423097    32A     -0.412696    33A     -0.307280

  @DF-RHF Final Energy:  -399.77341989668503

   => Energetics <=

    Nuclear Repulsion Energy =            433.2756326469132091
    One-Electron Energy =               -1401.7095700130121259
    Two-Electron Energy =                 568.6605174694138896
    Total Energy =                       -399.7734198966850272
  Basis Set: (AUG-CC-PVTZ AUX)
    Blend: AUG-CC-PVTZ-RI
    Molecular point group: c1

    Geometry (in Angstrom), charge = 0, multiplicity = 1:

       Center              X                  Y                   Z               Mass
    ------------   -----------------  -----------------  -----------------  -----------------
         O            0.645653553825     1.937508251665    -0.208589225177    15.994914619570
         N           -1.423787446175     1.019284251665     0.131930774823    14.003074004430
         C            0.416483553825    -0.455110748335    -0.277047225177    12.000000000000
         C            1.884545553825    -0.636270748335    -0.525851225177    12.000000000000
         C           -0.051410446175     0.915158251665    -0.123666225177    12.000000000000
         C           -0.465795446175    -1.502740748335    -0.160684225177    12.000000000000
         C            2.717229553825    -0.351253748335     0.728431774823    12.000000000000
         C           -1.847700446175    -1.301632748335     0.106338774823    12.000000000000
         C           -2.302065446175    -0.022018748335     0.249704774823    12.000000000000
         H            2.066008553825    -1.658212748335    -0.878217225177     1.007825032230
         H            2.189994553825     0.050684251665    -1.322523225177     1.007825032230
         H           -0.092694446175    -2.519075748335    -0.281654225177     1.007825032230
         H            3.782884553825    -0.494774748335     0.526056774823     1.007825032230
         H            2.429436553825    -1.023369748335     1.542172774823     1.007825032230
         H            2.562119553825     0.679873251665     1.050787774823     1.007825032230
         H           -1.715130046175     1.883821051665     0.224543274823     1.007825032230
         H           -2.534235446175    -2.135663748335     0.195568774823     1.007825032230
         H           -3.335485446175     0.238710251665     0.453659774823     1.007825032230

  Basis Set: AUG-CC-PVTZ
    Blend: AUG-CC-PVTZ
  Basis Set: (AUG-CC-PVTZ AUX)
    Blend: AUG-CC-PVTZ-JKFIT
	 Reference Energy          =    -399.7734198966850272 [Eh]
	 Singles Energy            =      -0.0000000000000000 [Eh]
	 Same-Spin Energy          =      -0.4231997902485345 [Eh]
	 Opposite-Spin Energy      =      -1.3382543827625564 [Eh]
	 Correlation Energy        =      -1.7614541730110909 [Eh]
	 Total Energy              =    -401.5348740696961158 [Eh]

	 ================> DF-SCS-MP2 Energies <==================
	-----------------------------------------------------------
	 SCS Same-Spin Scale       =       0.3333333333333333 [-]
	 SCS Opposite-Spin Scale   =       1.2000000000000000 [-]
	 SCS Same-Spin Energy      =      -0.1410665967495115 [Eh]
	 SCS Opposite-Spin Energy  =      -1.6059052593150676 [Eh]
	 SCS Correlation Energy    =      -1.7469718560645791 [Eh]
	 SCS Total Energy          =    -401.5203917527496174 [Eh]
	-----------------------------------------------------------

  Dipole Moment: [D]
     X:    -2.8803      Y:    -2.3530      Z:     0.4639     Total:     3.7481

*** Psi4 exiting successfully. Buy a developer a beer!
