                               Psi4 1.3.2 release

  ==> Input File <==

--------------------------------------------------------------------------
#psi4
#
memory 32 gb

molecule  {
0 1
  O        0.6058420     1.9734460    -0.2200840
  N       -1.4635990     1.0552220     0.1204360
  C        0.3766720    -0.4191730    -0.2885420
  C        1.8447340    -0.6003330    -0.5373460
  C       -0.0960282     0.9024896    -0.1364953
  C       -0.5056070    -1.4668030    -0.1721790
  C        2.6774180    -0.3153160     0.7169370
  C       -1.8875120    -1.2656950     0.0948440
  C       -2.3418770     0.0139190     0.2382100
  H        2.0261970    -1.6222750    -0.8897120
  H        2.1501830     0.0866220    -1.3340180
  H       -0.1325060    -2.4831380    -0.2931490
  H        3.7430730    -0.4588370     0.5145620
  H        2.3896250    -0.9874320     1.5306780
  H        2.5223080     0.7158110     1.0392930
  H       -1.7867130     2.0140380     0.2231480
  H       -2.5740470    -2.0997260     0.1840740
  H       -3.3752970     0.2746480     0.4421650
units angstrom
no_reorient  #important for SAPT in psi4, default
symmetry c1  #important for SAPT in psi4, default
}

set PROPERTIES_ORIGIN ["COM"]
properties('MP2/aug-cc-pvtz', properties = ['dipole'])
--------------------------------------------------------------------------

    Molecular point group: c1
  Charge       = 0
  Multiplicity = 1
  Basis Set: AUG-CC-PVTZ
    Blend: AUG-CC-PVTZ
  Basis Set: (AUG-CC-PVTZ AUX)
    Blend: AUG-CC-PVTZ-JKFIT

    Orbital Energies [Eh]
    ---------------------

    Doubly Occupied:

       1A    -20.499448     2A    -15.630955     3A    -11.350626
       4A    -11.313515     5A    -11.272076     6A    -11.246155
       7A    -11.243756     8A    -11.224874     9A    -11.205007
      10A     -1.349774    11A     -1.262802    12A     -1.123989
      13A     -1.057378    14A     -0.996914    15A     -0.894232
      16A     -0.872374    17A     -0.818943    18A     -0.742637
      19A     -0.705817    20A     -0.674058    21A     -0.627139
      22A     -0.606245    23A     -0.597557    24A     -0.591598
      25A     -0.563892    26A     -0.544042    27A     -0.514931
      28A     -0.492769    29A     -0.483844    30A     -0.464743
      31A     -0.417276    32A     -0.413724    33A     -0.309208

  @DF-RHF Final Energy:  -399.77257807260349

   => Energetics <=

    Nuclear Repulsion Energy =            432.7996073567364874
    One-Electron Energy =               -1400.9197739460987577
    Two-Electron Energy =                 568.3475885167588331
    Total Energy =                       -399.7725780726034372
  Basis Set: (AUG-CC-PVTZ AUX)
    Blend: AUG-CC-PVTZ-RI
    Molecular point group: c1

    Geometry (in Angstrom), charge = 0, multiplicity = 1:

       Center              X                  Y                   Z               Mass
    ------------   -----------------  -----------------  -----------------  -----------------
         O            0.646382371313     1.941475637338    -0.208541828198    15.994914619570
         N           -1.423058628687     1.023251637338     0.131978171802    14.003074004430
         C            0.417212371313    -0.451143362662    -0.276999828198    12.000000000000
         C            1.885274371313    -0.632303362662    -0.525803828198    12.000000000000
         C           -0.055487828687     0.870519237338    -0.124953128198    12.000000000000
         C           -0.465066628687    -1.498773362662    -0.160636828198    12.000000000000
         C            2.717958371313    -0.347286362662     0.728479171802    12.000000000000
         C           -1.846971628687    -1.297665362662     0.106386171802    12.000000000000
         C           -2.301336628687    -0.018051362662     0.249752171802    12.000000000000
         H            2.066737371313    -1.654245362662    -0.878169828198     1.007825032230
         H            2.190723371313     0.054651637338    -1.322475828198     1.007825032230
         H           -0.091965628687    -2.515108362662    -0.281606828198     1.007825032230
         H            3.783613371313    -0.490807362662     0.526104171802     1.007825032230
         H            2.430165371313    -1.019402362662     1.542220171802     1.007825032230
         H            2.562848371313     0.683840637338     1.050835171802     1.007825032230
         H           -1.746172628687     1.982067637338     0.234690171802     1.007825032230
         H           -2.533506628687    -2.131696362662     0.195616171802     1.007825032230
         H           -3.334756628687     0.242677637338     0.453707171802     1.007825032230

  Basis Set: AUG-CC-PVTZ
    Blend: AUG-CC-PVTZ
  Basis Set: (AUG-CC-PVTZ AUX)
    Blend: AUG-CC-PVTZ-JKFIT
	 Reference Energy          =    -399.7725780726034941 [Eh]
	 Singles Energy            =      -0.0000000000000000 [Eh]
	 Same-Spin Energy          =      -0.4253501400876916 [Eh]
	 Opposite-Spin Energy      =      -1.3417571426683090 [Eh]
	 Correlation Energy        =      -1.7671072827560006 [Eh]
	 Total Energy              =    -401.5396853553594951 [Eh]

	 ================> DF-SCS-MP2 Energies <==================
	-----------------------------------------------------------
	 SCS Same-Spin Scale       =       0.3333333333333333 [-]
	 SCS Opposite-Spin Scale   =       1.2000000000000000 [-]
	 SCS Same-Spin Energy      =      -0.1417833800292305 [Eh]
	 SCS Opposite-Spin Energy  =      -1.6101085712019707 [Eh]
	 SCS Correlation Energy    =      -1.7518919512312012 [Eh]
	 SCS Total Energy          =    -401.5244700238346809 [Eh]
	-----------------------------------------------------------

  Dipole Moment: [D]
     X:    -3.1369      Y:    -2.5548      Z:     0.5055     Total:     4.0771

*** Psi4 exiting successfully. Buy a developer a beer!
