                               Psi4 1.3.2 release

  ==> Input File <==

--------------------------------------------------------------------------
#psi4
#
memory 32 gb

molecule  {
0 1
  O        0.6058420     1.9734460    -0.2200840
  N       -1.4635990     1.0552220     0.1204360
  C        0.3766720    -0.4191730    -0.2885420
  C        1.8282055    -0.7037167    -0.5375679
  C       -0.0912220     0.9510960    -0.1351610
  C       -0.5056070    -1.4668030    -0.1721790
  C        2.6774180    -0.3153160     0.7169370
  C       -1.8875120    -1.2656950     0.0948440
  C       -2.3418770     0.0139190     0.2382100
  H        2.0261970    -1.6222750    -0.8897120
  H        2.1501830     0.0866220    -1.3340180
  H       -0.1325060    -2.4831380    -0.2931490
  H        3.7430730    -0.4588370     0.5145620
  H        2.3896250    -0.9874320     1.5306780
  H        2.5223080     0.7158110     1.0392930
  H       -1.7867130     2.0140380     0.2231480
  H       -2.5740470    -2.0997260     0.1840740
  H       -3.3752970     0.2746480     0.4421650
units angstrom
no_reorient  #important for SAPT in psi4, default
symmetry c1  #important for SAPT in psi4, default
}

set PROPERTIES_ORIGIN ["COM"]
properties('MP2/aug-cc-pvtz', properties = ['dipole'])
--------------------------------------------------------------------------

    Molecular point group: c1
  Charge       = 0
  Multiplicity = 1
  Basis Set: AUG-CC-PVTZ
    Blend: AUG-CC-PVTZ
  Basis Set: (AUG-CC-PVTZ AUX)
    Blend: AUG-CC-PVTZ-JKFIT

    Orbital Energies [Eh]
    ---------------------

    Doubly Occupied:

       1A    -20.510219     2A    -15.626762     3A    -11.354984
       4A    -11.308702     5A    -11.264069     6A    -11.246088
       7A    -11.241921     8A    -11.224503     9A    -11.207790
      10A     -1.370455    11A     -1.271467    12A     -1.118138
      13A     -1.053748    14A     -0.990735    15A     -0.886814
      16A     -0.871722    17A     -0.820763    18A     -0.739783
      19A     -0.702999    20A     -0.672276    21A     -0.624966
      22A     -0.610940    23A     -0.602640    24A     -0.596080
      25A     -0.562727    26A     -0.547896    27A     -0.517278
      28A     -0.500473    29A     -0.481640    30A     -0.467684
      31A     -0.423985    32A     -0.407501    33A     -0.305032

  @DF-RHF Final Energy:  -399.76653237800662

   => Energetics <=

    Nuclear Repulsion Energy =            432.1600594087812510
    One-Electron Energy =               -1399.5876252104606010
    Two-Electron Energy =                 567.6610334236726203
    Total Energy =                       -399.7665323780066728
  Basis Set: (AUG-CC-PVTZ AUX)
    Blend: AUG-CC-PVTZ-RI
    Molecular point group: c1

    Geometry (in Angstrom), charge = 0, multiplicity = 1:

       Center              X                  Y                   Z               Mass
    ------------   -----------------  -----------------  -----------------  -----------------
         O            0.647525374586     1.946816793360    -0.208650294697    15.994914619570
         N           -1.421915625414     1.028592793360     0.131869705303    14.003074004430
         C            0.418355374586    -0.445802206640    -0.277108294697    12.000000000000
         C            1.869888874586    -0.730345906640    -0.526134194697    12.000000000000
         C           -0.049538625414     0.924466793360    -0.123727294697    12.000000000000
         C           -0.463923625414    -1.493432206640    -0.160745294697    12.000000000000
         C            2.719101374586    -0.341945206640     0.728370705303    12.000000000000
         C           -1.845828625414    -1.292324206640     0.106277705303    12.000000000000
         C           -2.300193625414    -0.012710206640     0.249643705303    12.000000000000
         H            2.067880374586    -1.648904206640    -0.878278294697     1.007825032230
         H            2.191866374586     0.059992793360    -1.322584294697     1.007825032230
         H           -0.090822625414    -2.509767206640    -0.281715294697     1.007825032230
         H            3.784756374586    -0.485466206640     0.525995705303     1.007825032230
         H            2.431308374586    -1.014061206640     1.542111705303     1.007825032230
         H            2.563991374586     0.689181793360     1.050726705303     1.007825032230
         H           -1.745029625414     1.987408793360     0.234581705303     1.007825032230
         H           -2.532363625414    -2.126355206640     0.195507705303     1.007825032230
         H           -3.333613625414     0.248018793360     0.453598705303     1.007825032230

  Basis Set: AUG-CC-PVTZ
    Blend: AUG-CC-PVTZ
  Basis Set: (AUG-CC-PVTZ AUX)
    Blend: AUG-CC-PVTZ-JKFIT
	 Reference Energy          =    -399.7665323780066160 [Eh]
	 Singles Energy            =      -0.0000000000000000 [Eh]
	 Same-Spin Energy          =      -0.4242062139562668 [Eh]
	 Opposite-Spin Energy      =      -1.3405394717160315 [Eh]
	 Correlation Energy        =      -1.7647456856722983 [Eh]
	 Total Energy              =    -401.5312780636789398 [Eh]

	 ================> DF-SCS-MP2 Energies <==================
	-----------------------------------------------------------
	 SCS Same-Spin Scale       =       0.3333333333333333 [-]
	 SCS Opposite-Spin Scale   =       1.2000000000000000 [-]
	 SCS Same-Spin Energy      =      -0.1414020713187556 [Eh]
	 SCS Opposite-Spin Energy  =      -1.6086473660592377 [Eh]
	 SCS Correlation Energy    =      -1.7500494373779933 [Eh]
	 SCS Total Energy          =    -401.5165818153845976 [Eh]
	-----------------------------------------------------------

  Dipole Moment: [D]
     X:    -2.9059      Y:    -2.2878      Z:     0.4821     Total:     3.7297

*** Psi4 exiting successfully. Buy a developer a beer!
