                               Psi4 1.3.2 release

  ==> Input File <==

--------------------------------------------------------------------------
#psi4
#
memory 32 gb

molecule  {
0 1
  O        0.6058420     1.9734460    -0.2200840
  N       -1.4635990     1.0552220     0.1204360
  C        0.3793894    -0.3101138    -0.4014552
  C        1.8447340    -0.6003330    -0.5373460
  C       -0.0912220     0.9510960    -0.1351610
  C       -0.5056070    -1.4668030    -0.1721790
  C        2.6774180    -0.3153160     0.7169370
  C       -1.8875120    -1.2656950     0.0948440
  C       -2.3418770     0.0139190     0.2382100
  H        2.0261970    -1.6222750    -0.8897120
  H        2.1501830     0.0866220    -1.3340180
  H       -0.1325060    -2.4831380    -0.2931490
  H        3.7430730    -0.4588370     0.5145620
  H        2.3896250    -0.9874320     1.5306780
  H        2.5223080     0.7158110     1.0392930
  H       -1.7867130     2.0140380     0.2231480
  H       -2.5740470    -2.0997260     0.1840740
  H       -3.3752970     0.2746480     0.4421650
units angstrom
no_reorient  #important for SAPT in psi4, default
symmetry c1  #important for SAPT in psi4, default
}

set PROPERTIES_ORIGIN ["COM"]
properties('MP2/aug-cc-pvtz', properties = ['dipole'])
--------------------------------------------------------------------------

    Molecular point group: c1
  Charge       = 0
  Multiplicity = 1
  Basis Set: AUG-CC-PVTZ
    Blend: AUG-CC-PVTZ
  Basis Set: (AUG-CC-PVTZ AUX)
    Blend: AUG-CC-PVTZ-JKFIT

    Orbital Energies [Eh]
    ---------------------

    Doubly Occupied:

       1A    -20.495499     2A    -15.630967     3A    -11.338835
       4A    -11.317583     5A    -11.284790     6A    -11.246685
       7A    -11.243935     8A    -11.222372     9A    -11.204563
      10A     -1.366169    11A     -1.271190    12A     -1.109983
      13A     -1.059047    14A     -0.992875    15A     -0.899943
      16A     -0.868842    17A     -0.813203    18A     -0.743245
      19A     -0.702796    20A     -0.671907    21A     -0.621613
      22A     -0.611708    23A     -0.599395    24A     -0.594107
      25A     -0.562210    26A     -0.549455    27A     -0.515366
      28A     -0.494625    29A     -0.477299    30A     -0.466856
      31A     -0.418797    32A     -0.402975    33A     -0.302646

  @DF-RHF Final Energy:  -399.75682536527597

   => Energetics <=

    Nuclear Repulsion Energy =            432.6683417172957888
    One-Electron Energy =               -1400.6473727233678801
    Two-Electron Energy =                 568.2222056407961190
    Total Energy =                       -399.7568253652759722
  Basis Set: (AUG-CC-PVTZ AUX)
    Blend: AUG-CC-PVTZ-RI
    Molecular point group: c1

    Geometry (in Angstrom), charge = 0, multiplicity = 1:

       Center              X                  Y                   Z               Mass
    ------------   -----------------  -----------------  -----------------  -----------------
         O            0.645648769594     1.926102178464    -0.197662133259    15.994914619570
         N           -1.423792230406     1.007878178464     0.142857866741    14.003074004430
         C            0.419196169594    -0.357457621536    -0.379033333259    12.000000000000
         C            1.884540769594    -0.647676821536    -0.514924133259    12.000000000000
         C           -0.051415230406     0.903752178464    -0.112739133259    12.000000000000
         C           -0.465800230406    -1.514146821536    -0.149757133259    12.000000000000
         C            2.717224769594    -0.362659821536     0.739358866741    12.000000000000
         C           -1.847705230406    -1.313038821536     0.117265866741    12.000000000000
         C           -2.302070230406    -0.033424821536     0.260631866741    12.000000000000
         H            2.066003769594    -1.669618821536    -0.867290133259     1.007825032230
         H            2.189989769594     0.039278178464    -1.311596133259     1.007825032230
         H           -0.092699230406    -2.530481821536    -0.270727133259     1.007825032230
         H            3.782879769594    -0.506180821536     0.536983866741     1.007825032230
         H            2.429431769594    -1.034775821536     1.553099866741     1.007825032230
         H            2.562114769594     0.668467178464     1.061714866741     1.007825032230
         H           -1.746906230406     1.966694178464     0.245569866741     1.007825032230
         H           -2.534240230406    -2.147069821536     0.206495866741     1.007825032230
         H           -3.335490230406     0.227304178464     0.464586866741     1.007825032230

  Basis Set: AUG-CC-PVTZ
    Blend: AUG-CC-PVTZ
  Basis Set: (AUG-CC-PVTZ AUX)
    Blend: AUG-CC-PVTZ-JKFIT
	 Reference Energy          =    -399.7568253652759722 [Eh]
	 Singles Energy            =      -0.0000000000000000 [Eh]
	 Same-Spin Energy          =      -0.4264939050862838 [Eh]
	 Opposite-Spin Energy      =      -1.3428259726481055 [Eh]
	 Correlation Energy        =      -1.7693198777343893 [Eh]
	 Total Energy              =    -401.5261452430103759 [Eh]

	 ================> DF-SCS-MP2 Energies <==================
	-----------------------------------------------------------
	 SCS Same-Spin Scale       =       0.3333333333333333 [-]
	 SCS Opposite-Spin Scale   =       1.2000000000000000 [-]
	 SCS Same-Spin Energy      =      -0.1421646350287613 [Eh]
	 SCS Opposite-Spin Energy  =      -1.6113911671777266 [Eh]
	 SCS Correlation Energy    =      -1.7535558022064879 [Eh]
	 SCS Total Energy          =    -401.5103811674824783 [Eh]
	-----------------------------------------------------------

  Dipole Moment: [D]
     X:    -3.0811      Y:    -2.4549      Z:     0.5282     Total:     3.9748

*** Psi4 exiting successfully. Buy a developer a beer!
