                               Psi4 1.3.2 release

  ==> Input File <==

--------------------------------------------------------------------------
#psi4
#
memory 32 gb

molecule  {
0 1
  O        0.6058420     1.9734460    -0.2200840
  N       -1.4635990     1.0552220     0.1204360
  C        0.3766720    -0.4191730    -0.2885420
  C        1.8447340    -0.6003330    -0.5373460
  C        0.0068152     0.9436577    -0.1534198
  C       -0.5056070    -1.4668030    -0.1721790
  C        2.6774180    -0.3153160     0.7169370
  C       -1.8875120    -1.2656950     0.0948440
  C       -2.3418770     0.0139190     0.2382100
  H        2.0261970    -1.6222750    -0.8897120
  H        2.1501830     0.0866220    -1.3340180
  H       -0.1325060    -2.4831380    -0.2931490
  H        3.7430730    -0.4588370     0.5145620
  H        2.3896250    -0.9874320     1.5306780
  H        2.5223080     0.7158110     1.0392930
  H       -1.7867130     2.0140380     0.2231480
  H       -2.5740470    -2.0997260     0.1840740
  H       -3.3752970     0.2746480     0.4421650
units angstrom
no_reorient  #important for SAPT in psi4, default
symmetry c1  #important for SAPT in psi4, default
}

set PROPERTIES_ORIGIN ["COM"]
properties('MP2/aug-cc-pvtz', properties = ['dipole'])
--------------------------------------------------------------------------

    Molecular point group: c1
  Charge       = 0
  Multiplicity = 1
  Basis Set: AUG-CC-PVTZ
    Blend: AUG-CC-PVTZ
  Basis Set: (AUG-CC-PVTZ AUX)
    Blend: AUG-CC-PVTZ-JKFIT

    Orbital Energies [Eh]
    ---------------------

    Doubly Occupied:

       1A    -20.524484     2A    -15.612773     3A    -11.356557
       4A    -11.307547     5A    -11.270486     6A    -11.237794
       7A    -11.234381     8A    -11.223289     9A    -11.206789
      10A     -1.399526    11A     -1.255739    12A     -1.117165
      13A     -1.051894    14A     -0.989890    15A     -0.890033
      16A     -0.859947    17A     -0.809140    18A     -0.729910
      19A     -0.700665    20A     -0.674299    21A     -0.623638
      22A     -0.621731    23A     -0.599631    24A     -0.589121
      25A     -0.563394    26A     -0.553574    27A     -0.513809
      28A     -0.503178    29A     -0.492997    30A     -0.480051
      31A     -0.426159    32A     -0.406507    33A     -0.303246

  @DF-RHF Final Energy:  -399.76954567686289

   => Energetics <=

    Nuclear Repulsion Energy =            432.7153508240988913
    One-Electron Energy =               -1400.7111066779746125
    Two-Electron Energy =                 568.2262101770128311
    Total Energy =                       -399.7695456768628901
  Basis Set: (AUG-CC-PVTZ AUX)
    Blend: AUG-CC-PVTZ-RI
    Molecular point group: c1

    Geometry (in Angstrom), charge = 0, multiplicity = 1:

       Center              X                  Y                   Z               Mass
    ------------   -----------------  -----------------  -----------------  -----------------
         O            0.636354446513     1.937461470061    -0.206891575354    15.994914619570
         N           -1.433086553487     1.019237470061     0.133628424646    14.003074004430
         C            0.407184446513    -0.455157529939    -0.275349575354    12.000000000000
         C            1.875246446513    -0.636317529939    -0.524153575354    12.000000000000
         C            0.037327646513     0.907673170061    -0.140227375354    12.000000000000
         C           -0.475094553487    -1.502787529939    -0.158986575354    12.000000000000
         C            2.707930446513    -0.351300529939     0.730129424646    12.000000000000
         C           -1.856999553487    -1.301679529939     0.108036424646    12.000000000000
         C           -2.311364553487    -0.022065529939     0.251402424646    12.000000000000
         H            2.056709446513    -1.658259529939    -0.876519575354     1.007825032230
         H            2.180695446513     0.050637470061    -1.320825575354     1.007825032230
         H           -0.101993553487    -2.519122529939    -0.279956575354     1.007825032230
         H            3.773585446513    -0.494821529939     0.527754424646     1.007825032230
         H            2.420137446513    -1.023416529939     1.543870424646     1.007825032230
         H            2.552820446513     0.679826470061     1.052485424646     1.007825032230
         H           -1.756200553487     1.978053470061     0.236340424646     1.007825032230
         H           -2.543534553487    -2.135710529939     0.197266424646     1.007825032230
         H           -3.344784553487     0.238663470061     0.455357424646     1.007825032230

  Basis Set: AUG-CC-PVTZ
    Blend: AUG-CC-PVTZ
  Basis Set: (AUG-CC-PVTZ AUX)
    Blend: AUG-CC-PVTZ-JKFIT
	 Reference Energy          =    -399.7695456768628901 [Eh]
	 Singles Energy            =      -0.0000000000000000 [Eh]
	 Same-Spin Energy          =      -0.4245660238808681 [Eh]
	 Opposite-Spin Energy      =      -1.3402470508172102 [Eh]
	 Correlation Energy        =      -1.7648130746980781 [Eh]
	 Total Energy              =    -401.5343587515609443 [Eh]

	 ================> DF-SCS-MP2 Energies <==================
	-----------------------------------------------------------
	 SCS Same-Spin Scale       =       0.3333333333333333 [-]
	 SCS Opposite-Spin Scale   =       1.2000000000000000 [-]
	 SCS Same-Spin Energy      =      -0.1415220079602894 [Eh]
	 SCS Opposite-Spin Energy  =      -1.6082964609806523 [Eh]
	 SCS Correlation Energy    =      -1.7498184689409415 [Eh]
	 SCS Total Energy          =    -401.5193641458038201 [Eh]
	-----------------------------------------------------------

  Dipole Moment: [D]
     X:    -2.4507      Y:    -1.9646      Z:     0.4042     Total:     3.1669

*** Psi4 exiting successfully. Buy a developer a beer!
