                               Psi4 1.3.2 release

  ==> Input File <==

--------------------------------------------------------------------------
#psi4
#
memory 32 gb

molecule  {
0 1
  O        0.6058420     1.9734460    -0.2200840
  N       -1.4635990     1.0552220     0.1204360
  C        0.3546676    -0.4592347    -0.4387470
  C        1.8447340    -0.6003330    -0.5373460
  C       -0.0912220     0.9510960    -0.1351610
  C       -0.5056070    -1.4668030    -0.1721790
  C        2.6774180    -0.3153160     0.7169370
  C       -1.8875120    -1.2656950     0.0948440
  C       -2.3418770     0.0139190     0.2382100
  H        2.0261970    -1.6222750    -0.8897120
  H        2.1501830     0.0866220    -1.3340180
  H       -0.1325060    -2.4831380    -0.2931490
  H        3.7430730    -0.4588370     0.5145620
  H        2.3896250    -0.9874320     1.5306780
  H        2.5223080     0.7158110     1.0392930
  H       -1.7867130     2.0140380     0.2231480
  H       -2.5740470    -2.0997260     0.1840740
  H       -3.3752970     0.2746480     0.4421650
units angstrom
no_reorient  #important for SAPT in psi4, default
symmetry c1  #important for SAPT in psi4, default
}

set PROPERTIES_ORIGIN ["COM"]
properties('MP2/aug-cc-pvtz', properties = ['dipole'])
--------------------------------------------------------------------------

    Molecular point group: c1
  Charge       = 0
  Multiplicity = 1
  Basis Set: AUG-CC-PVTZ
    Blend: AUG-CC-PVTZ
  Basis Set: (AUG-CC-PVTZ AUX)
    Blend: AUG-CC-PVTZ-JKFIT

    Orbital Energies [Eh]
    ---------------------

    Doubly Occupied:

       1A    -20.515133     2A    -15.624549     3A    -11.358066
       4A    -11.308967     5A    -11.261402     6A    -11.246774
       7A    -11.241637     8A    -11.224096     9A    -11.208599
      10A     -1.371504    11A     -1.271231    12A     -1.118661
      13A     -1.053005    14A     -0.993013    15A     -0.888037
      16A     -0.864175    17A     -0.820042    18A     -0.734472
      19A     -0.700284    20A     -0.670821    21A     -0.624196
      22A     -0.613226    23A     -0.601805    24A     -0.588273
      25A     -0.565573    26A     -0.542507    27A     -0.522917
      28A     -0.493134    29A     -0.486065    30A     -0.476415
      31A     -0.419269    32A     -0.413236    33A     -0.308002

  @DF-RHF Final Energy:  -399.77039329803353

   => Energetics <=

    Nuclear Repulsion Energy =            431.7206054763656198
    One-Electron Energy =               -1398.7238247665227391
    Two-Electron Energy =                 567.2328259921237077
    Total Energy =                       -399.7703932980334685
  Basis Set: (AUG-CC-PVTZ AUX)
    Blend: AUG-CC-PVTZ-RI
    Molecular point group: c1

    Geometry (in Angstrom), charge = 0, multiplicity = 1:

       Center              X                  Y                   Z               Mass
    ------------   -----------------  -----------------  -----------------  -----------------
         O            0.648059311751     1.940642471486    -0.194025931363    15.994914619570
         N           -1.421381688249     1.022418471486     0.146494068637    14.003074004430
         C            0.396884911751    -0.492038228514    -0.412688931363    12.000000000000
         C            1.886951311751    -0.633136528514    -0.511287931363    12.000000000000
         C           -0.049004688249     0.918292471486    -0.109102931363    12.000000000000
         C           -0.463389688249    -1.499606528514    -0.146120931363    12.000000000000
         C            2.719635311751    -0.348119528514     0.742995068637    12.000000000000
         C           -1.845294688249    -1.298498528514     0.120902068637    12.000000000000
         C           -2.299659688249    -0.018884528514     0.264268068637    12.000000000000
         H            2.068414311751    -1.655078528514    -0.863653931363     1.007825032230
         H            2.192400311751     0.053818471486    -1.307959931363     1.007825032230
         H           -0.090288688249    -2.515941528514    -0.267090931363     1.007825032230
         H            3.785290311751    -0.491640528514     0.540620068637     1.007825032230
         H            2.431842311751    -1.020235528514     1.556736068637     1.007825032230
         H            2.564525311751     0.683007471486     1.065351068637     1.007825032230
         H           -1.744495688249     1.981234471486     0.249206068637     1.007825032230
         H           -2.531829688249    -2.132529528514     0.210132068637     1.007825032230
         H           -3.333079688249     0.241844471486     0.468223068637     1.007825032230

  Basis Set: AUG-CC-PVTZ
    Blend: AUG-CC-PVTZ
  Basis Set: (AUG-CC-PVTZ AUX)
    Blend: AUG-CC-PVTZ-JKFIT
	 Reference Energy          =    -399.7703932980335253 [Eh]
	 Singles Energy            =      -0.0000000000000000 [Eh]
	 Same-Spin Energy          =      -0.4234376704839204 [Eh]
	 Opposite-Spin Energy      =      -1.3399204315098843 [Eh]
	 Correlation Energy        =      -1.7633581019938047 [Eh]
	 Total Energy              =    -401.5337514000273131 [Eh]

	 ================> DF-SCS-MP2 Energies <==================
	-----------------------------------------------------------
	 SCS Same-Spin Scale       =       0.3333333333333333 [-]
	 SCS Opposite-Spin Scale   =       1.2000000000000000 [-]
	 SCS Same-Spin Energy      =      -0.1411458901613068 [Eh]
	 SCS Opposite-Spin Energy  =      -1.6079045178118612 [Eh]
	 SCS Correlation Energy    =      -1.7490504079731679 [Eh]
	 SCS Total Energy          =    -401.5194437060067116 [Eh]
	-----------------------------------------------------------

  Dipole Moment: [D]
     X:    -2.8705      Y:    -2.0997      Z:     0.5444     Total:     3.5979

*** Psi4 exiting successfully. Buy a developer a beer!
