                               Psi4 1.4a3.dev225

  ==> Input File <==

--------------------------------------------------------------------------
#psi4
#
memory 32 gb

molecule  {
0 1
  O        0.6058420     1.9734460    -0.2200840
  N       -1.4635990     1.0552220     0.1204360
  C        0.3766720    -0.4191730    -0.2885420
  C        1.8447340    -0.6003330    -0.5373460
  C       -0.0912220     0.9510960    -0.1351610
  C       -0.5056070    -1.4668030    -0.1721790
  C        2.6774180    -0.3153160     0.7169370
  C       -1.8875120    -1.2656950     0.0948440
  C       -2.3418770     0.0139190     0.2382100
  H        2.0261970    -1.6222750    -0.8897120
  H        2.1501830     0.0866220    -1.3340180
  H       -0.1325060    -2.4831380    -0.2931490
  H        3.7430730    -0.4588370     0.5145620
  H        2.3896250    -0.9874320     1.5306780
  H        2.5223080     0.7158110     1.0392930
  H       -1.7803587     1.9951822     0.2211281
  H       -2.5740470    -2.0997260     0.1840740
  H       -3.3752970     0.2746480     0.4421650
units angstrom
no_reorient  #important for SAPT in psi4, default
symmetry c1  #important for SAPT in psi4, default
}

set PROPERTIES_ORIGIN ["COM"]
properties('MP2/aug-cc-pvtz', properties = ['dipole'])
--------------------------------------------------------------------------

    Molecular point group: c1
  Charge       = 0
  Multiplicity = 1
  Basis Set: AUG-CC-PVTZ
    Blend: AUG-CC-PVTZ
  Basis Set: (AUG-CC-PVTZ AUX)
    Blend: AUG-CC-PVTZ-JKFIT

    Orbital Energies [Eh]
    ---------------------

    Doubly Occupied:

       1A    -20.510135     2A    -15.624314     3A    -11.353076
       4A    -11.309496     5A    -11.266054     6A    -11.245056
       7A    -11.242746     8A    -11.224166     9A    -11.205659
      10A     -1.370905    11A     -1.272857    12A     -1.118438
      13A     -1.055537    14A     -0.993681    15A     -0.889826
      16A     -0.869315    17A     -0.818310    18A     -0.739576
      19A     -0.703448    20A     -0.673240    21A     -0.626052
      22A     -0.612397    23A     -0.603241    24A     -0.590724
      25A     -0.565066    26A     -0.546821    27A     -0.514576
      28A     -0.495778    29A     -0.486319    30A     -0.474256
      31A     -0.422559    32A     -0.411568    33A     -0.306610

  @DF-RHF Final Energy:  -399.77993816779770

   => Energetics <=

    Nuclear Repulsion Energy =            432.7389666319781441
    One-Electron Energy =               -1400.7542066532462286
    Two-Electron Energy =                 568.2353018534703324
    Total Energy =                       -399.7799381677976953
  Basis Set: (AUG-CC-PVTZ AUX)
    Blend: AUG-CC-PVTZ-RI
    Molecular point group: c1

    Geometry (in Angstrom), charge = 0, multiplicity = 1:

       Center              X                  Y                   Z               Mass
    ------------   -----------------  -----------------  -----------------  -----------------
         O            0.645861698131     1.936890598539    -0.208655390189    15.994914619570
         N           -1.423579301869     1.018666598539     0.131864609811    14.003074004430
         C            0.416691698131    -0.455728401461    -0.277113390189    12.000000000000
         C            1.884753698131    -0.636888401461    -0.525917390189    12.000000000000
         C           -0.051202301869     0.914540598539    -0.123732390189    12.000000000000
         C           -0.465587301869    -1.503358401461    -0.160750390189    12.000000000000
         C            2.717437698131    -0.351871401461     0.728365609811    12.000000000000
         C           -1.847492301869    -1.302250401461     0.106272609811    12.000000000000
         C           -2.301857301869    -0.022636401461     0.249638609811    12.000000000000
         H            2.066216698131    -1.658830401461    -0.878283390189     1.007825032230
         H            2.190202698131     0.050066598539    -1.322589390189     1.007825032230
         H           -0.092486301869    -2.519693401461    -0.281720390189     1.007825032230
         H            3.783092698131    -0.495392401461     0.525990609811     1.007825032230
         H            2.429644698131    -1.023987401461     1.542106609811     1.007825032230
         H            2.562327698131     0.679255598539     1.050721609811     1.007825032230
         H           -1.740339001869     1.958626798539     0.232556709811     1.007825032230
         H           -2.534027301869    -2.136281401461     0.195502609811     1.007825032230
         H           -3.335277301869     0.238092598539     0.453593609811     1.007825032230

  Basis Set: AUG-CC-PVTZ
    Blend: AUG-CC-PVTZ
  Basis Set: (AUG-CC-PVTZ AUX)
    Blend: AUG-CC-PVTZ-JKFIT
	 Reference Energy          =    -399.7799381677976953 [Eh]
	 Singles Energy            =      -0.0000000000000000 [Eh]
	 Same-Spin Energy          =      -0.4238654024365324 [Eh]
	 Opposite-Spin Energy      =      -1.3395562272577939 [Eh]
	 Correlation Energy        =      -1.7634216296943264 [Eh]
	 Total Energy              =    -401.5433597974920303 [Eh]

	 ================> DF-SCS-MP2 Energies <==================
	-----------------------------------------------------------
	 SCS Same-Spin Scale       =       0.3333333333333333 [-]
	 SCS Opposite-Spin Scale   =       1.2000000000000000 [-]
	 SCS Same-Spin Energy      =      -0.1412884674788441 [Eh]
	 SCS Opposite-Spin Energy  =      -1.6074674727093525 [Eh]
	 SCS Correlation Energy    =      -1.7487559401881967 [Eh]
	 SCS Total Energy          =    -401.5286941079858707 [Eh]
	-----------------------------------------------------------

  Dipole Moment: [D]
     X:    -2.9230      Y:    -2.2647      Z:     0.4748     Total:     3.7281

*** Psi4 exiting successfully. Buy a developer a beer!
