                               Psi4 1.3.2 release

  ==> Input File <==

--------------------------------------------------------------------------
#psi4
#
memory 32 gb

molecule  {
0 1
  O        0.6058420     1.9734460    -0.2200840
  N       -1.4635990     1.0552220     0.1204360
  C        0.3757885    -0.3825398    -0.3259375
  C        1.8447340    -0.6003330    -0.5373460
  C       -0.0912220     0.9510960    -0.1351610
  C       -0.5056070    -1.4668030    -0.1721790
  C        2.6774180    -0.3153160     0.7169370
  C       -1.8875120    -1.2656950     0.0948440
  C       -2.3418770     0.0139190     0.2382100
  H        2.0261970    -1.6222750    -0.8897120
  H        2.1501830     0.0866220    -1.3340180
  H       -0.1325060    -2.4831380    -0.2931490
  H        3.7430730    -0.4588370     0.5145620
  H        2.3896250    -0.9874320     1.5306780
  H        2.5223080     0.7158110     1.0392930
  H       -1.7867130     2.0140380     0.2231480
  H       -2.5740470    -2.0997260     0.1840740
  H       -3.3752970     0.2746480     0.4421650
units angstrom
no_reorient  #important for SAPT in psi4, default
symmetry c1  #important for SAPT in psi4, default
}

set PROPERTIES_ORIGIN ["COM"]
properties('MP2/aug-cc-pvtz', properties = ['dipole'])
--------------------------------------------------------------------------

    Molecular point group: c1
  Charge       = 0
  Multiplicity = 1
  Basis Set: AUG-CC-PVTZ
    Blend: AUG-CC-PVTZ
  Basis Set: (AUG-CC-PVTZ AUX)
    Blend: AUG-CC-PVTZ-JKFIT

    Orbital Energies [Eh]
    ---------------------

    Doubly Occupied:

       1A    -20.505415     2A    -15.627631     3A    -11.348582
       4A    -11.311691     5A    -11.272175     6A    -11.244759
       7A    -11.243836     8A    -11.223530     9A    -11.205327
      10A     -1.368975    11A     -1.271298    12A     -1.114993
      13A     -1.056339    14A     -0.993255    15A     -0.892457
      16A     -0.868678    17A     -0.816302    18A     -0.738936
      19A     -0.703216    20A     -0.672271    21A     -0.623946
      22A     -0.611864    23A     -0.602276    24A     -0.591850
      25A     -0.563239    26A     -0.548092    27A     -0.514876
      28A     -0.495529    29A     -0.482686    30A     -0.472897
      31A     -0.422230    32A     -0.408381    33A     -0.305184

  @DF-RHF Final Energy:  -399.77598974439934

   => Energetics <=

    Nuclear Repulsion Energy =            432.6675054140628163
    One-Electron Energy =               -1400.6415556522169936
    Two-Electron Energy =                 568.1980604937548378
    Total Energy =                       -399.7759897443993395
  Basis Set: (AUG-CC-PVTZ AUX)
    Blend: AUG-CC-PVTZ-RI
    Molecular point group: c1

    Geometry (in Angstrom), charge = 0, multiplicity = 1:

       Center              X                  Y                   Z               Mass
    ------------   -----------------  -----------------  -----------------  -----------------
         O            0.645999881618     1.933164201711    -0.205025618098    15.994914619570
         N           -1.423441118382     1.014940201711     0.135494381902    14.003074004430
         C            0.415946381618    -0.422821598289    -0.310879118098    12.000000000000
         C            1.884891881618    -0.640614798289    -0.522287618098    12.000000000000
         C           -0.051064118382     0.910814201711    -0.120102618098    12.000000000000
         C           -0.465449118382    -1.507084798289    -0.157120618098    12.000000000000
         C            2.717575881618    -0.355597798289     0.731995381902    12.000000000000
         C           -1.847354118382    -1.305976798289     0.109902381902    12.000000000000
         C           -2.301719118382    -0.026362798289     0.253268381902    12.000000000000
         H            2.066354881618    -1.662556798289    -0.874653618098     1.007825032230
         H            2.190340881618     0.046340201711    -1.318959618098     1.007825032230
         H           -0.092348118382    -2.523419798289    -0.278090618098     1.007825032230
         H            3.783230881618    -0.499118798289     0.529620381902     1.007825032230
         H            2.429782881618    -1.027713798289     1.545736381902     1.007825032230
         H            2.562465881618     0.675529201711     1.054351381902     1.007825032230
         H           -1.746555118382     1.973756201711     0.238206381902     1.007825032230
         H           -2.533889118382    -2.140007798289     0.199132381902     1.007825032230
         H           -3.335139118382     0.234366201711     0.457223381902     1.007825032230

  Basis Set: AUG-CC-PVTZ
    Blend: AUG-CC-PVTZ
  Basis Set: (AUG-CC-PVTZ AUX)
    Blend: AUG-CC-PVTZ-JKFIT
	 Reference Energy          =    -399.7759897443993395 [Eh]
	 Singles Energy            =      -0.0000000000000000 [Eh]
	 Same-Spin Energy          =      -0.4248044785788900 [Eh]
	 Opposite-Spin Energy      =      -1.3406966397914106 [Eh]
	 Correlation Energy        =      -1.7655011183703007 [Eh]
	 Total Energy              =    -401.5414908627696491 [Eh]

	 ================> DF-SCS-MP2 Energies <==================
	-----------------------------------------------------------
	 SCS Same-Spin Scale       =       0.3333333333333333 [-]
	 SCS Opposite-Spin Scale   =       1.2000000000000000 [-]
	 SCS Same-Spin Energy      =      -0.1416014928596300 [Eh]
	 SCS Opposite-Spin Energy  =      -1.6088359677496926 [Eh]
	 SCS Correlation Energy    =      -1.7504374606093227 [Eh]
	 SCS Total Energy          =    -401.5264272050086447 [Eh]
	-----------------------------------------------------------

  Dipole Moment: [D]
     X:    -2.9870      Y:    -2.3236      Z:     0.4966     Total:     3.8168

*** Psi4 exiting successfully. Buy a developer a beer!
