                               Psi4 1.3.2 release

  ==> Input File <==

--------------------------------------------------------------------------
#psi4
#
memory 32 gb

molecule  {
0 1
  O        0.6058420     1.9734460    -0.2200840
  N       -1.4635990     1.0552220     0.1204360
  C        0.4002996    -0.3935417    -0.1898192
  C        1.8447340    -0.6003330    -0.5373460
  C       -0.0912220     0.9510960    -0.1351610
  C       -0.5056070    -1.4668030    -0.1721790
  C        2.6774180    -0.3153160     0.7169370
  C       -1.8875120    -1.2656950     0.0948440
  C       -2.3418770     0.0139190     0.2382100
  H        2.0261970    -1.6222750    -0.8897120
  H        2.1501830     0.0866220    -1.3340180
  H       -0.1325060    -2.4831380    -0.2931490
  H        3.7430730    -0.4588370     0.5145620
  H        2.3896250    -0.9874320     1.5306780
  H        2.5223080     0.7158110     1.0392930
  H       -1.7867130     2.0140380     0.2231480
  H       -2.5740470    -2.0997260     0.1840740
  H       -3.3752970     0.2746480     0.4421650
units angstrom
no_reorient  #important for SAPT in psi4, default
symmetry c1  #important for SAPT in psi4, default
}

set PROPERTIES_ORIGIN ["COM"]
properties('MP2/aug-cc-pvtz', properties = ['dipole'])
--------------------------------------------------------------------------

    Molecular point group: c1
  Charge       = 0
  Multiplicity = 1
  Basis Set: AUG-CC-PVTZ
    Blend: AUG-CC-PVTZ
  Basis Set: (AUG-CC-PVTZ AUX)
    Blend: AUG-CC-PVTZ-JKFIT

    Orbital Energies [Eh]
    ---------------------

    Doubly Occupied:

       1A    -20.506184     2A    -15.627450     3A    -11.349690
       4A    -11.311431     5A    -11.271832     6A    -11.245331
       7A    -11.243651     8A    -11.223715     9A    -11.203316
      10A     -1.369173    11A     -1.271302    12A     -1.115345
      13A     -1.056778    14A     -0.992990    15A     -0.890325
      16A     -0.867269    17A     -0.815421    18A     -0.739447
      19A     -0.702706    20A     -0.672554    21A     -0.626504
      22A     -0.610720    23A     -0.604071    24A     -0.591461
      25A     -0.565201    26A     -0.546881    27A     -0.510053
      28A     -0.495631    29A     -0.484051    30A     -0.472191
      31A     -0.422242    32A     -0.408081    33A     -0.305174

  @DF-RHF Final Energy:  -399.77359091855891

   => Energetics <=

    Nuclear Repulsion Energy =            432.8486992433360001
    One-Electron Energy =               -1401.0082332375086480
    Two-Electron Energy =                 568.3859430756136817
    Total Energy =                       -399.7735909185589662
  Basis Set: (AUG-CC-PVTZ AUX)
    Blend: AUG-CC-PVTZ-RI
    Molecular point group: c1

    Geometry (in Angstrom), charge = 0, multiplicity = 1:

       Center              X                  Y                   Z               Mass
    ------------   -----------------  -----------------  -----------------  -----------------
         O            0.643609884131     1.934236961128    -0.218298069964    15.994914619570
         N           -1.425831115869     1.016012961128     0.122221930036    14.003074004430
         C            0.438067484131    -0.432750738872    -0.188033269964    12.000000000000
         C            1.882501884131    -0.639542038872    -0.535560069964    12.000000000000
         C           -0.053454115869     0.911886961128    -0.133375069964    12.000000000000
         C           -0.467839115869    -1.506012038872    -0.170393069964    12.000000000000
         C            2.715185884131    -0.354525038872     0.718722930036    12.000000000000
         C           -1.849744115869    -1.304904038872     0.096629930036    12.000000000000
         C           -2.304109115869    -0.025290038872     0.239995930036    12.000000000000
         H            2.063964884131    -1.661484038872    -0.887926069964     1.007825032230
         H            2.187950884131     0.047412961128    -1.332232069964     1.007825032230
         H           -0.094738115869    -2.522347038872    -0.291363069964     1.007825032230
         H            3.780840884131    -0.498046038872     0.516347930036     1.007825032230
         H            2.427392884131    -1.026641038872     1.532463930036     1.007825032230
         H            2.560075884131     0.676601961128     1.041078930036     1.007825032230
         H           -1.748945115869     1.974828961128     0.224933930036     1.007825032230
         H           -2.536279115869    -2.138935038872     0.185859930036     1.007825032230
         H           -3.337529115869     0.235438961128     0.443950930036     1.007825032230

  Basis Set: AUG-CC-PVTZ
    Blend: AUG-CC-PVTZ
  Basis Set: (AUG-CC-PVTZ AUX)
    Blend: AUG-CC-PVTZ-JKFIT
	 Reference Energy          =    -399.7735909185589094 [Eh]
	 Singles Energy            =      -0.0000000000000000 [Eh]
	 Same-Spin Energy          =      -0.4249443410468019 [Eh]
	 Opposite-Spin Energy      =      -1.3411543401719261 [Eh]
	 Correlation Energy        =      -1.7660986812187280 [Eh]
	 Total Energy              =    -401.5396895997776596 [Eh]

	 ================> DF-SCS-MP2 Energies <==================
	-----------------------------------------------------------
	 SCS Same-Spin Scale       =       0.3333333333333333 [-]
	 SCS Opposite-Spin Scale   =       1.2000000000000000 [-]
	 SCS Same-Spin Energy      =      -0.1416481136822673 [Eh]
	 SCS Opposite-Spin Energy  =      -1.6093852082063114 [Eh]
	 SCS Correlation Energy    =      -1.7510333218885787 [Eh]
	 SCS Total Energy          =    -401.5246242404475083 [Eh]
	-----------------------------------------------------------

  Dipole Moment: [D]
     X:    -3.0004      Y:    -2.3138      Z:     0.4459     Total:     3.8151

*** Psi4 exiting successfully. Buy a developer a beer!
