                               Psi4 1.3.2 release

  ==> Input File <==

--------------------------------------------------------------------------
#psi4
#
memory 32 gb

molecule  {
0 1
  O        0.6058420     1.9734460    -0.2200840
  N       -1.4635990     1.0552220     0.1204360
  C        0.3766720    -0.4191730    -0.2885420
  C        1.8447340    -0.6003330    -0.5373460
  C       -0.1105228     0.8058684    -0.1376303
  C       -0.5056070    -1.4668030    -0.1721790
  C        2.6774180    -0.3153160     0.7169370
  C       -1.8875120    -1.2656950     0.0948440
  C       -2.3418770     0.0139190     0.2382100
  H        2.0261970    -1.6222750    -0.8897120
  H        2.1501830     0.0866220    -1.3340180
  H       -0.1325060    -2.4831380    -0.2931490
  H        3.7430730    -0.4588370     0.5145620
  H        2.3896250    -0.9874320     1.5306780
  H        2.5223080     0.7158110     1.0392930
  H       -1.7867130     2.0140380     0.2231480
  H       -2.5740470    -2.0997260     0.1840740
  H       -3.3752970     0.2746480     0.4421650
units angstrom
no_reorient  #important for SAPT in psi4, default
symmetry c1  #important for SAPT in psi4, default
}

set PROPERTIES_ORIGIN ["COM"]
properties('MP2/aug-cc-pvtz', properties = ['dipole'])
--------------------------------------------------------------------------

    Molecular point group: c1
  Charge       = 0
  Multiplicity = 1
  Basis Set: AUG-CC-PVTZ
    Blend: AUG-CC-PVTZ
  Basis Set: (AUG-CC-PVTZ AUX)
    Blend: AUG-CC-PVTZ-JKFIT

    Orbital Energies [Eh]
    ---------------------

    Doubly Occupied:

       1A    -20.477076     2A    -15.641237     3A    -11.342188
       4A    -11.322504     5A    -11.284863     6A    -11.253785
       7A    -11.239305     8A    -11.226248     9A    -11.203691
      10A     -1.331321    11A     -1.229158    12A     -1.138148
      13A     -1.061539    14A     -1.003189    15A     -0.908061
      16A     -0.876882    17A     -0.821139    18A     -0.756029
      19A     -0.711510    20A     -0.679982    21A     -0.632350
      22A     -0.607383    23A     -0.599137    24A     -0.583635
      25A     -0.564386    26A     -0.526653    27A     -0.513097
      28A     -0.489874    29A     -0.481121    30A     -0.443490
      31A     -0.419540    32A     -0.396826    33A     -0.313453

  @DF-RHF Final Energy:  -399.73919348945185

   => Energetics <=

    Nuclear Repulsion Energy =            433.3140275595116009
    One-Electron Energy =               -1401.9488410952517370
    Two-Electron Energy =                 568.8956200462882862
    Total Energy =                       -399.7391934894518499
  Basis Set: (AUG-CC-PVTZ AUX)
    Blend: AUG-CC-PVTZ-RI
    Molecular point group: c1

    Geometry (in Angstrom), charge = 0, multiplicity = 1:

       Center              X                  Y                   Z               Mass
    ------------   -----------------  -----------------  -----------------  -----------------
         O            0.647795692525     1.950896855693    -0.208431158046    15.994914619570
         N           -1.421645307475     1.032672855693     0.132088841954    14.003074004430
         C            0.418625692525    -0.441722144307    -0.276889158046    12.000000000000
         C            1.886687692525    -0.622882144307    -0.525693158046    12.000000000000
         C           -0.068569107475     0.783319255693    -0.125977458046    12.000000000000
         C           -0.463653307475    -1.489352144307    -0.160526158046    12.000000000000
         C            2.719371692525    -0.337865144307     0.728589841954    12.000000000000
         C           -1.845558307475    -1.288244144307     0.106496841954    12.000000000000
         C           -2.299923307475    -0.008630144307     0.249862841954    12.000000000000
         H            2.068150692525    -1.644824144307    -0.878059158046     1.007825032230
         H            2.192136692525     0.064072855693    -1.322365158046     1.007825032230
         H           -0.090552307475    -2.505687144307    -0.281496158046     1.007825032230
         H            3.785026692525    -0.481386144307     0.526214841954     1.007825032230
         H            2.431578692525    -1.009981144307     1.542330841954     1.007825032230
         H            2.564261692525     0.693261855693     1.050945841954     1.007825032230
         H           -1.744759307475     1.991488855693     0.234800841954     1.007825032230
         H           -2.532093307475    -2.122275144307     0.195726841954     1.007825032230
         H           -3.333343307475     0.252098855693     0.453817841954     1.007825032230

  Basis Set: AUG-CC-PVTZ
    Blend: AUG-CC-PVTZ
  Basis Set: (AUG-CC-PVTZ AUX)
    Blend: AUG-CC-PVTZ-JKFIT
	 Reference Energy          =    -399.7391934894518499 [Eh]
	 Singles Energy            =      -0.0000000000000000 [Eh]
	 Same-Spin Energy          =      -0.4278214515614153 [Eh]
	 Opposite-Spin Energy      =      -1.3454124145659505 [Eh]
	 Correlation Energy        =      -1.7732338661273657 [Eh]
	 Total Energy              =    -401.5124273555792342 [Eh]

	 ================> DF-SCS-MP2 Energies <==================
	-----------------------------------------------------------
	 SCS Same-Spin Scale       =       0.3333333333333333 [-]
	 SCS Opposite-Spin Scale   =       1.2000000000000000 [-]
	 SCS Same-Spin Energy      =      -0.1426071505204717 [Eh]
	 SCS Opposite-Spin Energy  =      -1.6144948974791407 [Eh]
	 SCS Correlation Energy    =      -1.7571020479996124 [Eh]
	 SCS Total Energy          =    -401.4962955374514877 [Eh]
	-----------------------------------------------------------

  Dipole Moment: [D]
     X:    -3.5656      Y:    -3.1620      Z:     0.5668     Total:     4.7993

*** Psi4 exiting successfully. Buy a developer a beer!
