                               Psi4 1.3.2 release

  ==> Input File <==

--------------------------------------------------------------------------
#psi4
#
memory 32 gb

molecule  {
0 1
  O        0.6058420     1.9734460    -0.2200840
  N       -1.4635990     1.0552220     0.1204360
  C        0.3766720    -0.4191730    -0.2885420
  C        1.8447340    -0.6003330    -0.5373460
  C       -0.1106313     0.8058941    -0.1382235
  C       -0.5056070    -1.4668030    -0.1721790
  C        2.6774180    -0.3153160     0.7169370
  C       -1.8875120    -1.2656950     0.0948440
  C       -2.3418770     0.0139190     0.2382100
  H        2.0261970    -1.6222750    -0.8897120
  H        2.1501830     0.0866220    -1.3340180
  H       -0.1325060    -2.4831380    -0.2931490
  H        3.7430730    -0.4588370     0.5145620
  H        2.3896250    -0.9874320     1.5306780
  H        2.5223080     0.7158110     1.0392930
  H       -1.7867130     2.0140380     0.2231480
  H       -2.5740470    -2.0997260     0.1840740
  H       -3.3752970     0.2746480     0.4421650
units angstrom
no_reorient  #important for SAPT in psi4, default
symmetry c1  #important for SAPT in psi4, default
}

set PROPERTIES_ORIGIN ["COM"]
properties('MP2/aug-cc-pvtz', properties = ['dipole'])
--------------------------------------------------------------------------

    Molecular point group: c1
  Charge       = 0
  Multiplicity = 1
  Basis Set: AUG-CC-PVTZ
    Blend: AUG-CC-PVTZ
  Basis Set: (AUG-CC-PVTZ AUX)
    Blend: AUG-CC-PVTZ-JKFIT

    Orbital Energies [Eh]
    ---------------------

    Doubly Occupied:

       1A    -20.477076     2A    -15.641238     3A    -11.342187
       4A    -11.322505     5A    -11.284864     6A    -11.253786
       7A    -11.239305     8A    -11.226248     9A    -11.203687
      10A     -1.331321    11A     -1.229158    12A     -1.138148
      13A     -1.061539    14A     -1.003189    15A     -0.908063
      16A     -0.876880    17A     -0.821138    18A     -0.756028
      19A     -0.711511    20A     -0.679983    21A     -0.632354
      22A     -0.607381    23A     -0.599134    24A     -0.583632
      25A     -0.564397    26A     -0.526645    27A     -0.513096
      28A     -0.489867    29A     -0.481123    30A     -0.443491
      31A     -0.419543    32A     -0.396825    33A     -0.313452

  @DF-RHF Final Energy:  -399.73919496712199

   => Energetics <=

    Nuclear Repulsion Energy =            433.3133693900409185
    One-Electron Energy =               -1401.9475447012384848
    Two-Electron Energy =                 568.8949803440756341
    Total Energy =                       -399.7391949671219891
  Basis Set: (AUG-CC-PVTZ AUX)
    Blend: AUG-CC-PVTZ-RI
    Molecular point group: c1

    Geometry (in Angstrom), charge = 0, multiplicity = 1:

       Center              X                  Y                   Z               Mass
    ------------   -----------------  -----------------  -----------------  -----------------
         O            0.647806272007     1.950894349769    -0.208373317047    15.994914619570
         N           -1.421634727993     1.032670349769     0.132146682953    14.003074004430
         C            0.418636272007    -0.441724650231    -0.276831317047    12.000000000000
         C            1.886698272007    -0.622884650231    -0.525635317047    12.000000000000
         C           -0.068667027993     0.783342449769    -0.126512817047    12.000000000000
         C           -0.463642727993    -1.489354650231    -0.160468317047    12.000000000000
         C            2.719382272007    -0.337867650231     0.728647682953    12.000000000000
         C           -1.845547727993    -1.288246650231     0.106554682953    12.000000000000
         C           -2.299912727993    -0.008632650231     0.249920682953    12.000000000000
         H            2.068161272007    -1.644826650231    -0.878001317047     1.007825032230
         H            2.192147272007     0.064070349769    -1.322307317047     1.007825032230
         H           -0.090541727993    -2.505689650231    -0.281438317047     1.007825032230
         H            3.785037272007    -0.481388650231     0.526272682953     1.007825032230
         H            2.431589272007    -1.009983650231     1.542388682953     1.007825032230
         H            2.564272272007     0.693259349769     1.051003682953     1.007825032230
         H           -1.744748727993     1.991486349769     0.234858682953     1.007825032230
         H           -2.532082727993    -2.122277650231     0.195784682953     1.007825032230
         H           -3.333332727993     0.252096349769     0.453875682953     1.007825032230

  Basis Set: AUG-CC-PVTZ
    Blend: AUG-CC-PVTZ
  Basis Set: (AUG-CC-PVTZ AUX)
    Blend: AUG-CC-PVTZ-JKFIT
	 Reference Energy          =    -399.7391949671219891 [Eh]
	 Singles Energy            =      -0.0000000000000000 [Eh]
	 Same-Spin Energy          =      -0.4278210697123414 [Eh]
	 Opposite-Spin Energy      =      -1.3454117656106370 [Eh]
	 Correlation Energy        =      -1.7732328353229785 [Eh]
	 Total Energy              =    -401.5124278024449609 [Eh]

	 ================> DF-SCS-MP2 Energies <==================
	-----------------------------------------------------------
	 SCS Same-Spin Scale       =       0.3333333333333333 [-]
	 SCS Opposite-Spin Scale   =       1.2000000000000000 [-]
	 SCS Same-Spin Energy      =      -0.1426070232374471 [Eh]
	 SCS Opposite-Spin Energy  =      -1.6144941187327644 [Eh]
	 SCS Correlation Energy    =      -1.7571011419702116 [Eh]
	 SCS Total Energy          =    -401.4962961090922136 [Eh]
	-----------------------------------------------------------

  Dipole Moment: [D]
     X:    -3.5657      Y:    -3.1620      Z:     0.5665     Total:     4.7993

*** Psi4 exiting successfully. Buy a developer a beer!
