                               Psi4 1.3.2 release

  ==> Input File <==

--------------------------------------------------------------------------
#psi4
#
memory 32 gb

molecule  {
0 1
  O        0.6058420     1.9734460    -0.2200840
  N       -1.4635990     1.0552220     0.1204360
  C        0.3766720    -0.4191730    -0.2885420
  C        1.8447340    -0.6003330    -0.5373460
  C       -0.0894456     0.9754505    -0.1343770
  C       -0.5056070    -1.4668030    -0.1721790
  C        2.6774180    -0.3153160     0.7169370
  C       -1.8875120    -1.2656950     0.0948440
  C       -2.3418770     0.0139190     0.2382100
  H        2.0261970    -1.6222750    -0.8897120
  H        2.1501830     0.0866220    -1.3340180
  H       -0.1325060    -2.4831380    -0.2931490
  H        3.7430730    -0.4588370     0.5145620
  H        2.3896250    -0.9874320     1.5306780
  H        2.5223080     0.7158110     1.0392930
  H       -1.7867130     2.0140380     0.2231480
  H       -2.5740470    -2.0997260     0.1840740
  H       -3.3752970     0.2746480     0.4421650
units angstrom
no_reorient  #important for SAPT in psi4, default
symmetry c1  #important for SAPT in psi4, default
}

set PROPERTIES_ORIGIN ["COM"]
properties('MP2/aug-cc-pvtz', properties = ['dipole'])
--------------------------------------------------------------------------

    Molecular point group: c1
  Charge       = 0
  Multiplicity = 1
  Basis Set: AUG-CC-PVTZ
    Blend: AUG-CC-PVTZ
  Basis Set: (AUG-CC-PVTZ AUX)
    Blend: AUG-CC-PVTZ-JKFIT

    Orbital Energies [Eh]
    ---------------------

    Doubly Occupied:

       1A    -20.514926     2A    -15.623738     3A    -11.353740
       4A    -11.307482     5A    -11.262931     6A    -11.245268
       7A    -11.240921     8A    -11.223679     9A    -11.205845
      10A     -1.382985    11A     -1.273563    12A     -1.114732
      13A     -1.054001    14A     -0.991879    15A     -0.886766
      16A     -0.865135    17A     -0.817259    18A     -0.734674
      19A     -0.701662    20A     -0.671378    21A     -0.626224
      22A     -0.616776    23A     -0.604716    24A     -0.589511
      25A     -0.565178    26A     -0.546884    27A     -0.514212
      28A     -0.497948    29A     -0.488477    30A     -0.477005
      31A     -0.423369    32A     -0.410047    33A     -0.304968

  @DF-RHF Final Energy:  -399.78025298504332

   => Energetics <=

    Nuclear Repulsion Energy =            432.5383310515590551
    One-Electron Energy =               -1400.3614080304530489
    Two-Electron Energy =                 568.0428239938507886
    Total Energy =                       -399.7802529850432620
  Basis Set: (AUG-CC-PVTZ AUX)
    Blend: AUG-CC-PVTZ-RI
    Molecular point group: c1

    Geometry (in Angstrom), charge = 0, multiplicity = 1:

       Center              X                  Y                   Z               Mass
    ------------   -----------------  -----------------  -----------------  -----------------
         O            0.645740523437     1.934361457736    -0.208748376728    15.994914619570
         N           -1.423700476563     1.016137457736     0.131771623272    14.003074004430
         C            0.416570523437    -0.458257542264    -0.277206376728    12.000000000000
         C            1.884632523437    -0.639417542264    -0.526010376728    12.000000000000
         C           -0.049547076563     0.936365957736    -0.123041376728    12.000000000000
         C           -0.465708476563    -1.505887542264    -0.160843376728    12.000000000000
         C            2.717316523437    -0.354400542264     0.728272623272    12.000000000000
         C           -1.847613476563    -1.304779542264     0.106179623272    12.000000000000
         C           -2.301978476563    -0.025165542264     0.249545623272    12.000000000000
         H            2.066095523437    -1.661359542264    -0.878376376728     1.007825032230
         H            2.190081523437     0.047537457736    -1.322682376728     1.007825032230
         H           -0.092607476563    -2.522222542264    -0.281813376728     1.007825032230
         H            3.782971523437    -0.497921542264     0.525897623272     1.007825032230
         H            2.429523523437    -1.026516542264     1.542013623272     1.007825032230
         H            2.562206523437     0.676726457736     1.050628623272     1.007825032230
         H           -1.746814476563     1.974953457736     0.234483623272     1.007825032230
         H           -2.534148476563    -2.138810542264     0.195409623272     1.007825032230
         H           -3.335398476563     0.235563457736     0.453500623272     1.007825032230

  Basis Set: AUG-CC-PVTZ
    Blend: AUG-CC-PVTZ
  Basis Set: (AUG-CC-PVTZ AUX)
    Blend: AUG-CC-PVTZ-JKFIT
	 Reference Energy          =    -399.7802529850433189 [Eh]
	 Singles Energy            =      -0.0000000000000000 [Eh]
	 Same-Spin Energy          =      -0.4234140614526261 [Eh]
	 Opposite-Spin Energy      =      -1.3390664429556667 [Eh]
	 Correlation Energy        =      -1.7624805044082927 [Eh]
	 Total Energy              =    -401.5427334894516207 [Eh]

	 ================> DF-SCS-MP2 Energies <==================
	-----------------------------------------------------------
	 SCS Same-Spin Scale       =       0.3333333333333333 [-]
	 SCS Opposite-Spin Scale   =       1.2000000000000000 [-]
	 SCS Same-Spin Energy      =      -0.1411380204842087 [Eh]
	 SCS Opposite-Spin Energy  =      -1.6068797315468000 [Eh]
	 SCS Correlation Energy    =      -1.7480177520310087 [Eh]
	 SCS Total Energy          =    -401.5282707370743083 [Eh]
	-----------------------------------------------------------

  Dipole Moment: [D]
     X:    -2.8335      Y:    -2.0819      Z:     0.4641     Total:     3.5466

*** Psi4 exiting successfully. Buy a developer a beer!
