                               Psi4 1.4a3.dev225

  ==> Input File <==

--------------------------------------------------------------------------
#psi4
#
memory 32 gb

molecule  {
0 1
  O        0.6058420     1.9734460    -0.2200840
  N       -1.4635990     1.0552220     0.1204360
  C        0.3766720    -0.4191730    -0.2885420
  C        1.8447340    -0.6003330    -0.5373460
  C       -0.0912220     0.9510960    -0.1351610
  C       -0.5056070    -1.4668030    -0.1721790
  C        2.6774180    -0.3153160     0.7169370
  C       -1.8875120    -1.2656950     0.0948440
  C       -2.3547237    -0.0013123     0.2399327
  H        2.0261970    -1.6222750    -0.8897120
  H        2.1501830     0.0866220    -1.3340180
  H       -0.1325060    -2.4831380    -0.2931490
  H        3.7430730    -0.4588370     0.5145620
  H        2.3896250    -0.9874320     1.5306780
  H        2.5223080     0.7158110     1.0392930
  H       -1.7867130     2.0140380     0.2231480
  H       -2.5740470    -2.0997260     0.1840740
  H       -3.3752970     0.2746480     0.4421650
units angstrom
no_reorient  #important for SAPT in psi4, default
symmetry c1  #important for SAPT in psi4, default
}

set PROPERTIES_ORIGIN ["COM"]
properties('MP2/aug-cc-pvtz', properties = ['dipole'])
--------------------------------------------------------------------------

    Molecular point group: c1
  Charge       = 0
  Multiplicity = 1
  Basis Set: AUG-CC-PVTZ
    Blend: AUG-CC-PVTZ
  Basis Set: (AUG-CC-PVTZ AUX)
    Blend: AUG-CC-PVTZ-JKFIT

    Orbital Energies [Eh]
    ---------------------

    Doubly Occupied:

       1A    -20.509801     2A    -15.623543     3A    -11.352709
       4A    -11.308036     5A    -11.266213     6A    -11.246364
       7A    -11.242984     8A    -11.224608     9A    -11.206016
      10A     -1.368931    11A     -1.265119    12A     -1.117734
      13A     -1.056949    14A     -0.994043    15A     -0.889030
      16A     -0.866555    17A     -0.817040    18A     -0.734239
      19A     -0.702020    20A     -0.673600    21A     -0.624858
      22A     -0.612430    23A     -0.601364    24A     -0.591254
      25A     -0.565405    26A     -0.546306    27A     -0.514610
      28A     -0.495797    29A     -0.486297    30A     -0.474119
      31A     -0.422250    32A     -0.410556    33A     -0.308971

  @DF-RHF Final Energy:  -399.77905427938651

   => Energetics <=

    Nuclear Repulsion Energy =            432.3544424249848817
    One-Electron Energy =               -1400.0274958370880540
    Two-Electron Energy =                 567.8939991327166581
    Total Energy =                       -399.7790542793865143
  Basis Set: (AUG-CC-PVTZ AUX)
    Blend: AUG-CC-PVTZ-RI
    Molecular point group: c1

    Geometry (in Angstrom), charge = 0, multiplicity = 1:

       Center              X                  Y                   Z               Mass
    ------------   -----------------  -----------------  -----------------  -----------------
         O            0.647166374266     1.938221340096    -0.208839906306    15.994914619570
         N           -1.422274625734     1.019997340096     0.131680093694    14.003074004430
         C            0.417996374266    -0.454397659904    -0.277297906306    12.000000000000
         C            1.886058374266    -0.635557659904    -0.526101906306    12.000000000000
         C           -0.049897625734     0.915871340096    -0.123916906306    12.000000000000
         C           -0.464282625734    -1.502027659904    -0.160934906306    12.000000000000
         C            2.718742374266    -0.350540659904     0.728181093694    12.000000000000
         C           -1.846187625734    -1.300919659904     0.106088093694    12.000000000000
         C           -2.313399325734    -0.036536959904     0.251176793694    12.000000000000
         H            2.067521374266    -1.657499659904    -0.878467906306     1.007825032230
         H            2.191507374266     0.051397340096    -1.322773906306     1.007825032230
         H           -0.091181625734    -2.518362659904    -0.281904906306     1.007825032230
         H            3.784397374266    -0.494061659904     0.525806093694     1.007825032230
         H            2.430949374266    -1.022656659904     1.541922093694     1.007825032230
         H            2.563632374266     0.680586340096     1.050537093694     1.007825032230
         H           -1.745388625734     1.978813340096     0.234392093694     1.007825032230
         H           -2.532722625734    -2.134950659904     0.195318093694     1.007825032230
         H           -3.333972625734     0.239423340096     0.453409093694     1.007825032230

  Basis Set: AUG-CC-PVTZ
    Blend: AUG-CC-PVTZ
  Basis Set: (AUG-CC-PVTZ AUX)
    Blend: AUG-CC-PVTZ-JKFIT
	 Reference Energy          =    -399.7790542793865143 [Eh]
	 Singles Energy            =      -0.0000000000000000 [Eh]
	 Same-Spin Energy          =      -0.4237660239627830 [Eh]
	 Opposite-Spin Energy      =      -1.3399589079169141 [Eh]
	 Correlation Energy        =      -1.7637249318796970 [Eh]
	 Total Energy              =    -401.5427792112662360 [Eh]

	 ================> DF-SCS-MP2 Energies <==================
	-----------------------------------------------------------
	 SCS Same-Spin Scale       =       0.3333333333333333 [-]
	 SCS Opposite-Spin Scale   =       1.2000000000000000 [-]
	 SCS Same-Spin Energy      =      -0.1412553413209277 [Eh]
	 SCS Opposite-Spin Energy  =      -1.6079506895002968 [Eh]
	 SCS Correlation Energy    =      -1.7492060308212245 [Eh]
	 SCS Total Energy          =    -401.5282603102077132 [Eh]
	-----------------------------------------------------------

  Dipole Moment: [D]
     X:    -2.9182      Y:    -2.2943      Z:     0.4742     Total:     3.7423

*** Psi4 exiting successfully. Buy a developer a beer!
