                               Psi4 1.3.2 release

  ==> Input File <==

--------------------------------------------------------------------------
#psi4
#
memory 32 gb

molecule  {
0 1
  O        0.6058420     1.9734460    -0.2200840
  N       -1.4635990     1.0552220     0.1204360
  C        0.3718789    -0.4257237    -0.3134310
  C        1.8447340    -0.6003330    -0.5373460
  C       -0.0912220     0.9510960    -0.1351610
  C       -0.5056070    -1.4668030    -0.1721790
  C        2.6774180    -0.3153160     0.7169370
  C       -1.8875120    -1.2656950     0.0948440
  C       -2.3418770     0.0139190     0.2382100
  H        2.0261970    -1.6222750    -0.8897120
  H        2.1501830     0.0866220    -1.3340180
  H       -0.1325060    -2.4831380    -0.2931490
  H        3.7430730    -0.4588370     0.5145620
  H        2.3896250    -0.9874320     1.5306780
  H        2.5223080     0.7158110     1.0392930
  H       -1.7867130     2.0140380     0.2231480
  H       -2.5740470    -2.0997260     0.1840740
  H       -3.3752970     0.2746480     0.4421650
units angstrom
no_reorient  #important for SAPT in psi4, default
symmetry c1  #important for SAPT in psi4, default
}

set PROPERTIES_ORIGIN ["COM"]
properties('MP2/aug-cc-pvtz', properties = ['dipole'])
--------------------------------------------------------------------------

    Molecular point group: c1
  Charge       = 0
  Multiplicity = 1
  Basis Set: AUG-CC-PVTZ
    Blend: AUG-CC-PVTZ
  Basis Set: (AUG-CC-PVTZ AUX)
    Blend: AUG-CC-PVTZ-JKFIT

    Orbital Energies [Eh]
    ---------------------

    Doubly Occupied:

       1A    -20.510830     2A    -15.625753     3A    -11.353806
       4A    -11.309117     5A    -11.264774     6A    -11.245076
       7A    -11.242384     8A    -11.224141     9A    -11.206127
      10A     -1.370526    11A     -1.271238    12A     -1.118052
      13A     -1.054727    14A     -0.993588    15A     -0.888511
      16A     -0.867810    17A     -0.818332    18A     -0.736550
      19A     -0.702787    20A     -0.671769    21A     -0.625426
      22A     -0.612449    23A     -0.602763    24A     -0.590301
      25A     -0.564999    26A     -0.545779    27A     -0.515772
      28A     -0.495407    29A     -0.486397    30A     -0.474574
      31A     -0.422208    32A     -0.411888    33A     -0.306731

  @DF-RHF Final Energy:  -399.77942800695638

   => Energetics <=

    Nuclear Repulsion Energy =            432.5097781527551888
    One-Electron Energy =               -1400.3172328058610674
    Two-Electron Energy =                 568.0280266461495557
    Total Energy =                       -399.7794280069563229
  Basis Set: (AUG-CC-PVTZ AUX)
    Blend: AUG-CC-PVTZ-RI
    Molecular point group: c1

    Geometry (in Angstrom), charge = 0, multiplicity = 1:

       Center              X                  Y                   Z               Mass
    ------------   -----------------  -----------------  -----------------  -----------------
         O            0.646381093974     1.937374923077    -0.206245086158    15.994914619570
         N           -1.423059906026     1.019150923077     0.134274913842    14.003074004430
         C            0.412417993974    -0.461794776923    -0.299592086158    12.000000000000
         C            1.885273093974    -0.636404076923    -0.523507086158    12.000000000000
         C           -0.050682906026     0.915024923077    -0.121322086158    12.000000000000
         C           -0.465067906026    -1.502874076923    -0.158340086158    12.000000000000
         C            2.717957093974    -0.351387076923     0.730775913842    12.000000000000
         C           -1.846972906026    -1.301766076923     0.108682913842    12.000000000000
         C           -2.301337906026    -0.022152076923     0.252048913842    12.000000000000
         H            2.066736093974    -1.658346076923    -0.875873086158     1.007825032230
         H            2.190722093974     0.050550923077    -1.320179086158     1.007825032230
         H           -0.091966906026    -2.519209076923    -0.279310086158     1.007825032230
         H            3.783612093974    -0.494908076923     0.528400913842     1.007825032230
         H            2.430164093974    -1.023503076923     1.544516913842     1.007825032230
         H            2.562847093974     0.679739923077     1.053131913842     1.007825032230
         H           -1.746173906026     1.977966923077     0.236986913842     1.007825032230
         H           -2.533507906026    -2.135797076923     0.197912913842     1.007825032230
         H           -3.334757906026     0.238576923077     0.456003913842     1.007825032230

  Basis Set: AUG-CC-PVTZ
    Blend: AUG-CC-PVTZ
  Basis Set: (AUG-CC-PVTZ AUX)
    Blend: AUG-CC-PVTZ-JKFIT
	 Reference Energy          =    -399.7794280069563797 [Eh]
	 Singles Energy            =      -0.0000000000000000 [Eh]
	 Same-Spin Energy          =      -0.4238737082912390 [Eh]
	 Opposite-Spin Energy      =      -1.3397634325018681 [Eh]
	 Correlation Energy        =      -1.7636371407931071 [Eh]
	 Total Energy              =    -401.5430651477494735 [Eh]

	 ================> DF-SCS-MP2 Energies <==================
	-----------------------------------------------------------
	 SCS Same-Spin Scale       =       0.3333333333333333 [-]
	 SCS Opposite-Spin Scale   =       1.2000000000000000 [-]
	 SCS Same-Spin Energy      =      -0.1412912360970797 [Eh]
	 SCS Opposite-Spin Energy  =      -1.6077161190022418 [Eh]
	 SCS Correlation Energy    =      -1.7490073550993215 [Eh]
	 SCS Total Energy          =    -401.5284353620556885 [Eh]
	-----------------------------------------------------------

  Dipole Moment: [D]
     X:    -2.9192      Y:    -2.2212      Z:     0.4869     Total:     3.7003

*** Psi4 exiting successfully. Buy a developer a beer!
