                               Psi4 1.3.2 release

  ==> Input File <==

--------------------------------------------------------------------------
#psi4
#
memory 32 gb

molecule  {
0 1
  O        0.6058420     1.9734460    -0.2200840
  N       -1.4635990     1.0552220     0.1204360
  C        0.3766720    -0.4191730    -0.2885420
  C        1.8478679    -0.5743597    -0.5363893
  C       -0.0912220     0.9510960    -0.1351610
  C       -0.5056070    -1.4668030    -0.1721790
  C        2.6774180    -0.3153160     0.7169370
  C       -1.8875120    -1.2656950     0.0948440
  C       -2.3418770     0.0139190     0.2382100
  H        2.0261970    -1.6222750    -0.8897120
  H        2.1501830     0.0866220    -1.3340180
  H       -0.1325060    -2.4831380    -0.2931490
  H        3.7430730    -0.4588370     0.5145620
  H        2.3896250    -0.9874320     1.5306780
  H        2.5223080     0.7158110     1.0392930
  H       -1.7867130     2.0140380     0.2231480
  H       -2.5740470    -2.0997260     0.1840740
  H       -3.3752970     0.2746480     0.4421650
units angstrom
no_reorient  #important for SAPT in psi4, default
symmetry c1  #important for SAPT in psi4, default
}

set PROPERTIES_ORIGIN ["COM"]
properties('MP2/aug-cc-pvtz', properties = ['dipole'])
--------------------------------------------------------------------------

    Molecular point group: c1
  Charge       = 0
  Multiplicity = 1
  Basis Set: AUG-CC-PVTZ
    Blend: AUG-CC-PVTZ
  Basis Set: (AUG-CC-PVTZ AUX)
    Blend: AUG-CC-PVTZ-JKFIT

    Orbital Energies [Eh]
    ---------------------

    Doubly Occupied:

       1A    -20.509922     2A    -15.625948     3A    -11.352527
       4A    -11.309638     5A    -11.266464     6A    -11.244942
       7A    -11.242811     8A    -11.224486     9A    -11.205298
      10A     -1.370331    11A     -1.271259    12A     -1.117692
      13A     -1.055602    14A     -0.994410    15A     -0.889449
      16A     -0.867311    17A     -0.817651    18A     -0.736848
      19A     -0.702825    20A     -0.672007    21A     -0.626955
      22A     -0.612550    23A     -0.603502    24A     -0.588578
      25A     -0.565712    26A     -0.545999    27A     -0.517561
      28A     -0.491868    29A     -0.487350    30A     -0.473024
      31A     -0.422036    32A     -0.411972    33A     -0.306790

  @DF-RHF Final Energy:  -399.77858978401633

   => Energetics <=

    Nuclear Repulsion Energy =            432.7380584202238083
    One-Electron Energy =               -1400.7706615347863135
    Two-Electron Energy =                 568.2540133305462859
    Total Energy =                       -399.7785897840162761
  Basis Set: (AUG-CC-PVTZ AUX)
    Blend: AUG-CC-PVTZ-RI
    Molecular point group: c1

    Geometry (in Angstrom), charge = 0, multiplicity = 1:

       Center              X                  Y                   Z               Mass
    ------------   -----------------  -----------------  -----------------  -----------------
         O            0.645608158036     1.934203613823    -0.208765216142    15.994914619570
         N           -1.423832841964     1.015979613823     0.131754783858    14.003074004430
         C            0.416438158036    -0.458415386177    -0.277223216142    12.000000000000
         C            1.887634058036    -0.613602086177    -0.525070516142    12.000000000000
         C           -0.051455841964     0.911853613823    -0.123842216142    12.000000000000
         C           -0.465840841964    -1.506045386177    -0.160860216142    12.000000000000
         C            2.717184158036    -0.354558386177     0.728255783858    12.000000000000
         C           -1.847745841964    -1.304937386177     0.106162783858    12.000000000000
         C           -2.302110841964    -0.025323386177     0.249528783858    12.000000000000
         H            2.065963158036    -1.661517386177    -0.878393216142     1.007825032230
         H            2.189949158036     0.047379613823    -1.322699216142     1.007825032230
         H           -0.092739841964    -2.522380386177    -0.281830216142     1.007825032230
         H            3.782839158036    -0.498079386177     0.525880783858     1.007825032230
         H            2.429391158036    -1.026674386177     1.541996783858     1.007825032230
         H            2.562074158036     0.676568613823     1.050611783858     1.007825032230
         H           -1.746946841964     1.974795613823     0.234466783858     1.007825032230
         H           -2.534280841964    -2.138968386177     0.195392783858     1.007825032230
         H           -3.335530841964     0.235405613823     0.453483783858     1.007825032230

  Basis Set: AUG-CC-PVTZ
    Blend: AUG-CC-PVTZ
  Basis Set: (AUG-CC-PVTZ AUX)
    Blend: AUG-CC-PVTZ-JKFIT
	 Reference Energy          =    -399.7785897840163329 [Eh]
	 Singles Energy            =      -0.0000000000000000 [Eh]
	 Same-Spin Energy          =      -0.4240819909895812 [Eh]
	 Opposite-Spin Energy      =      -1.3399972665025808 [Eh]
	 Correlation Energy        =      -1.7640792574921620 [Eh]
	 Total Energy              =    -401.5426690415084749 [Eh]

	 ================> DF-SCS-MP2 Energies <==================
	-----------------------------------------------------------
	 SCS Same-Spin Scale       =       0.3333333333333333 [-]
	 SCS Opposite-Spin Scale   =       1.2000000000000000 [-]
	 SCS Same-Spin Energy      =      -0.1413606636631937 [Eh]
	 SCS Opposite-Spin Energy  =      -1.6079967198030969 [Eh]
	 SCS Correlation Energy    =      -1.7493573834662905 [Eh]
	 SCS Total Energy          =    -401.5279471674826368 [Eh]
	-----------------------------------------------------------

  Dipole Moment: [D]
     X:    -2.9436      Y:    -2.2263      Z:     0.4823     Total:     3.7221

*** Psi4 exiting successfully. Buy a developer a beer!
