                               Psi4 1.3.2 release

  ==> Input File <==

--------------------------------------------------------------------------
#psi4
#
memory 32 gb

molecule  {
0 1
  O        0.6058420     1.9734460    -0.2200840
  N       -1.4635990     1.0552220     0.1204360
  C        0.3766720    -0.4191730    -0.2885420
  C        1.8447340    -0.6003330    -0.5373460
  C       -0.0934164     0.9267733    -0.1358672
  C       -0.5056070    -1.4668030    -0.1721790
  C        2.6774180    -0.3153160     0.7169370
  C       -1.8875120    -1.2656950     0.0948440
  C       -2.3418770     0.0139190     0.2382100
  H        2.0261970    -1.6222750    -0.8897120
  H        2.1501830     0.0866220    -1.3340180
  H       -0.1325060    -2.4831380    -0.2931490
  H        3.7430730    -0.4588370     0.5145620
  H        2.3896250    -0.9874320     1.5306780
  H        2.5223080     0.7158110     1.0392930
  H       -1.7867130     2.0140380     0.2231480
  H       -2.5740470    -2.0997260     0.1840740
  H       -3.3752970     0.2746480     0.4421650
units angstrom
no_reorient  #important for SAPT in psi4, default
symmetry c1  #important for SAPT in psi4, default
}

set PROPERTIES_ORIGIN ["COM"]
properties('MP2/aug-cc-pvtz', properties = ['dipole'])
--------------------------------------------------------------------------

    Molecular point group: c1
  Charge       = 0
  Multiplicity = 1
  Basis Set: AUG-CC-PVTZ
    Blend: AUG-CC-PVTZ
  Basis Set: (AUG-CC-PVTZ AUX)
    Blend: AUG-CC-PVTZ-JKFIT

    Orbital Energies [Eh]
    ---------------------

    Doubly Occupied:

       1A    -20.504755     2A    -15.628471     3A    -11.351920
       4A    -11.311424     5A    -11.268978     6A    -11.244469
       7A    -11.244345     8A    -11.224494     9A    -11.205306
      10A     -1.359104    11A     -1.267750    12A     -1.120753
      13A     -1.056248    14A     -0.995251    15A     -0.891316
      16A     -0.870431    17A     -0.818388    18A     -0.739743
      19A     -0.704366    20A     -0.672879    21A     -0.626188
      22A     -0.608139    23A     -0.600591    24A     -0.591499
      25A     -0.564476    26A     -0.545450    27A     -0.514700
      28A     -0.493956    29A     -0.484735    30A     -0.469868
      31A     -0.420328    32A     -0.412552    33A     -0.307865

  @DF-RHF Final Energy:  -399.77688950873733

   => Energetics <=

    Nuclear Repulsion Energy =            432.7007544392889145
    One-Electron Energy =               -1400.7138147452476460
    Two-Electron Energy =                 568.2361707972214617
    Total Energy =                       -399.7768895087373267
  Basis Set: (AUG-CC-PVTZ AUX)
    Blend: AUG-CC-PVTZ-RI
    Molecular point group: c1

    Geometry (in Angstrom), charge = 0, multiplicity = 1:

       Center              X                  Y                   Z               Mass
    ------------   -----------------  -----------------  -----------------  -----------------
         O            0.646127703206     1.939107812884    -0.208603072182    15.994914619570
         N           -1.423313296794     1.020883812884     0.131916927818    14.003074004430
         C            0.416957703206    -0.453511187116    -0.277061072182    12.000000000000
         C            1.885019703206    -0.634671187116    -0.525865072182    12.000000000000
         C           -0.053130696794     0.892435112884    -0.124386272182    12.000000000000
         C           -0.465321296794    -1.501141187116    -0.160698072182    12.000000000000
         C            2.717703703206    -0.349654187116     0.728417927818    12.000000000000
         C           -1.847226296794    -1.300033187116     0.106324927818    12.000000000000
         C           -2.301591296794    -0.020419187116     0.249690927818    12.000000000000
         H            2.066482703206    -1.656613187116    -0.878231072182     1.007825032230
         H            2.190468703206     0.052283812884    -1.322537072182     1.007825032230
         H           -0.092220296794    -2.517476187116    -0.281668072182     1.007825032230
         H            3.783358703206    -0.493175187116     0.526042927818     1.007825032230
         H            2.429910703206    -1.021770187116     1.542158927818     1.007825032230
         H            2.562593703206     0.681472812884     1.050773927818     1.007825032230
         H           -1.746427296794     1.979699812884     0.234628927818     1.007825032230
         H           -2.533761296794    -2.134064187116     0.195554927818     1.007825032230
         H           -3.335011296794     0.240309812884     0.453645927818     1.007825032230

  Basis Set: AUG-CC-PVTZ
    Blend: AUG-CC-PVTZ
  Basis Set: (AUG-CC-PVTZ AUX)
    Blend: AUG-CC-PVTZ-JKFIT
	 Reference Energy          =    -399.7768895087373267 [Eh]
	 Singles Energy            =      -0.0000000000000000 [Eh]
	 Same-Spin Energy          =      -0.4246919881427006 [Eh]
	 Opposite-Spin Energy      =      -1.3408293469660306 [Eh]
	 Correlation Energy        =      -1.7655213351087311 [Eh]
	 Total Energy              =    -401.5424108438460848 [Eh]

	 ================> DF-SCS-MP2 Energies <==================
	-----------------------------------------------------------
	 SCS Same-Spin Scale       =       0.3333333333333333 [-]
	 SCS Opposite-Spin Scale   =       1.2000000000000000 [-]
	 SCS Same-Spin Energy      =      -0.1415639960475669 [Eh]
	 SCS Opposite-Spin Energy  =      -1.6089952163592367 [Eh]
	 SCS Correlation Energy    =      -1.7505592124068037 [Eh]
	 SCS Total Energy          =    -401.5274487211441397 [Eh]
	-----------------------------------------------------------

  Dipole Moment: [D]
     X:    -3.0346      Y:    -2.4001      Z:     0.4913     Total:     3.9001

*** Psi4 exiting successfully. Buy a developer a beer!
