                               Psi4 1.4a3.dev225

  ==> Input File <==

--------------------------------------------------------------------------
#psi4
#
memory 32 gb

molecule  {
0 1
  O        0.6058420     1.9734460    -0.2200840
  N       -1.4635990     1.0552220     0.1204360
  C        0.3766720    -0.4191730    -0.2885420
  C        1.8447340    -0.6003330    -0.5373460
  C       -0.0716146     0.9496083    -0.1388128
  C       -0.5056070    -1.4668030    -0.1721790
  C        2.6774180    -0.3153160     0.7169370
  C       -1.8875120    -1.2656950     0.0948440
  C       -2.3418770     0.0139190     0.2382100
  H        2.0261970    -1.6222750    -0.8897120
  H        2.1501830     0.0866220    -1.3340180
  H       -0.1325060    -2.4831380    -0.2931490
  H        3.7430730    -0.4588370     0.5145620
  H        2.3896250    -0.9874320     1.5306780
  H        2.5223080     0.7158110     1.0392930
  H       -1.7867130     2.0140380     0.2231480
  H       -2.5740470    -2.0997260     0.1840740
  H       -3.3752970     0.2746480     0.4421650
units angstrom
no_reorient  #important for SAPT in psi4, default
symmetry c1  #important for SAPT in psi4, default
}

set PROPERTIES_ORIGIN ["COM"]
properties('MP2/aug-cc-pvtz', properties = ['dipole'])
--------------------------------------------------------------------------

    Molecular point group: c1
  Charge       = 0
  Multiplicity = 1
  Basis Set: AUG-CC-PVTZ
    Blend: AUG-CC-PVTZ
  Basis Set: (AUG-CC-PVTZ AUX)
    Blend: AUG-CC-PVTZ-JKFIT

    Orbital Energies [Eh]
    ---------------------

    Doubly Occupied:

       1A    -20.512839     2A    -15.623647     3A    -11.353637
       4A    -11.309134     5A    -11.266827     6A    -11.243394
       7A    -11.240882     8A    -11.223871     9A    -11.205793
      10A     -1.375069    11A     -1.268804    12A     -1.117378
      13A     -1.054413    14A     -0.992747    15A     -0.888675
      16A     -0.866336    17A     -0.816151    18A     -0.735660
      19A     -0.702407    20A     -0.672059    21A     -0.625029
      22A     -0.614077    23A     -0.602042    24A     -0.590274
      25A     -0.564552    26A     -0.548235    27A     -0.514303
      28A     -0.496711    29A     -0.487509    30A     -0.475881
      31A     -0.423925    32A     -0.410442    33A     -0.305796

  @DF-RHF Final Energy:  -399.77904729206739

   => Energetics <=

    Nuclear Repulsion Energy =            432.6256933032757388
    One-Electron Energy =               -1400.5524909206715165
    Two-Electron Energy =                 568.1477503253283885
    Total Energy =                       -399.7790472920673892
  Basis Set: (AUG-CC-PVTZ AUX)
    Blend: AUG-CC-PVTZ-RI
    Molecular point group: c1

    Geometry (in Angstrom), charge = 0, multiplicity = 1:

       Center              X                  Y                   Z               Mass
    ------------   -----------------  -----------------  -----------------  -----------------
         O            0.644001880733     1.936881246446    -0.208315856325    15.994914619570
         N           -1.425439119267     1.018657246446     0.132204143675    14.003074004430
         C            0.414831880733    -0.455737753554    -0.276773856325    12.000000000000
         C            1.882893880733    -0.636897753554    -0.525577856325    12.000000000000
         C           -0.033454719267     0.913043546446    -0.127044656325    12.000000000000
         C           -0.467447119267    -1.503367753554    -0.160410856325    12.000000000000
         C            2.715577880733    -0.351880753554     0.728705143675    12.000000000000
         C           -1.849352119267    -1.302259753554     0.106612143675    12.000000000000
         C           -2.303717119267    -0.022645753554     0.249978143675    12.000000000000
         H            2.064356880733    -1.658839753554    -0.877943856325     1.007825032230
         H            2.188342880733     0.050057246446    -1.322249856325     1.007825032230
         H           -0.094346119267    -2.519702753554    -0.281380856325     1.007825032230
         H            3.781232880733    -0.495401753554     0.526330143675     1.007825032230
         H            2.427784880733    -1.023996753554     1.542446143675     1.007825032230
         H            2.560467880733     0.679246246446     1.051061143675     1.007825032230
         H           -1.748553119267     1.977473246446     0.234916143675     1.007825032230
         H           -2.535887119267    -2.136290753554     0.195842143675     1.007825032230
         H           -3.337137119267     0.238083246446     0.453933143675     1.007825032230

  Basis Set: AUG-CC-PVTZ
    Blend: AUG-CC-PVTZ
  Basis Set: (AUG-CC-PVTZ AUX)
    Blend: AUG-CC-PVTZ-JKFIT
	 Reference Energy          =    -399.7790472920673892 [Eh]
	 Singles Energy            =      -0.0000000000000000 [Eh]
	 Same-Spin Energy          =      -0.4240959487990469 [Eh]
	 Opposite-Spin Energy      =      -1.3399021460270726 [Eh]
	 Correlation Energy        =      -1.7639980948261194 [Eh]
	 Total Energy              =    -401.5430453868934819 [Eh]

	 ================> DF-SCS-MP2 Energies <==================
	-----------------------------------------------------------
	 SCS Same-Spin Scale       =       0.3333333333333333 [-]
	 SCS Opposite-Spin Scale   =       1.2000000000000000 [-]
	 SCS Same-Spin Energy      =      -0.1413653162663490 [Eh]
	 SCS Opposite-Spin Energy  =      -1.6078825752324870 [Eh]
	 SCS Correlation Energy    =      -1.7492478914988359 [Eh]
	 SCS Total Energy          =    -401.5282951835662288 [Eh]
	-----------------------------------------------------------

  Dipole Moment: [D]
     X:    -2.8396      Y:    -2.1862      Z:     0.4631     Total:     3.6135

*** Psi4 exiting successfully. Buy a developer a beer!
