                               Psi4 1.3.2 release

  ==> Input File <==

--------------------------------------------------------------------------
#psi4
#
memory 32 gb

molecule  {
0 1
  O        0.6058420     1.9734460    -0.2200840
  N       -1.4635990     1.0552220     0.1204360
  C        0.3766720    -0.4191730    -0.2885420
  C        1.8447340    -0.6003330    -0.5373460
  C       -0.1892592     0.9585343    -0.1169022
  C       -0.5056070    -1.4668030    -0.1721790
  C        2.6774180    -0.3153160     0.7169370
  C       -1.8875120    -1.2656950     0.0948440
  C       -2.3418770     0.0139190     0.2382100
  H        2.0261970    -1.6222750    -0.8897120
  H        2.1501830     0.0866220    -1.3340180
  H       -0.1325060    -2.4831380    -0.2931490
  H        3.7430730    -0.4588370     0.5145620
  H        2.3896250    -0.9874320     1.5306780
  H        2.5223080     0.7158110     1.0392930
  H       -1.7867130     2.0140380     0.2231480
  H       -2.5740470    -2.0997260     0.1840740
  H       -3.3752970     0.2746480     0.4421650
units angstrom
no_reorient  #important for SAPT in psi4, default
symmetry c1  #important for SAPT in psi4, default
}

set PROPERTIES_ORIGIN ["COM"]
properties('MP2/aug-cc-pvtz', properties = ['dipole'])
--------------------------------------------------------------------------

    Molecular point group: c1
  Charge       = 0
  Multiplicity = 1
  Basis Set: AUG-CC-PVTZ
    Blend: AUG-CC-PVTZ
  Basis Set: (AUG-CC-PVTZ AUX)
    Blend: AUG-CC-PVTZ-JKFIT

    Orbital Energies [Eh]
    ---------------------

    Doubly Occupied:

       1A    -20.494810     2A    -15.636663     3A    -11.348893
       4A    -11.310236     5A    -11.261653     6A    -11.253721
       7A    -11.251814     8A    -11.225529     9A    -11.204729
      10A     -1.364278    11A     -1.269722    12A     -1.120656
      13A     -1.058985    14A     -0.998310    15A     -0.894478
      16A     -0.874921    17A     -0.825507    18A     -0.743954
      19A     -0.706138    20A     -0.672261    21A     -0.629830
      22A     -0.618293    23A     -0.597242    24A     -0.592445
      25A     -0.566582    26A     -0.531160    27A     -0.515337
      28A     -0.493062    29A     -0.482148    30A     -0.461602
      31A     -0.414141    32A     -0.409944    33A     -0.309865

  @DF-RHF Final Energy:  -399.76692169825105

   => Energetics <=

    Nuclear Repulsion Energy =            432.6460449005806481
    One-Electron Energy =               -1400.5481124094867482
    Two-Electron Energy =                 568.1351458106551036
    Total Energy =                       -399.7669216982510534
  Basis Set: (AUG-CC-PVTZ AUX)
    Blend: AUG-CC-PVTZ-RI
    Molecular point group: c1

    Geometry (in Angstrom), charge = 0, multiplicity = 1:

       Center              X                  Y                   Z               Mass
    ------------   -----------------  -----------------  -----------------  -----------------
         O            0.655473022313     1.936010901273    -0.210452287531    15.994914619570
         N           -1.413967977687     1.017786901273     0.130067712469    14.003074004430
         C            0.426303022313    -0.456608098727    -0.278910287531    12.000000000000
         C            1.894365022313    -0.637768098727    -0.527714287531    12.000000000000
         C           -0.139628177687     0.921099201273    -0.107270487531    12.000000000000
         C           -0.455975977687    -1.504238098727    -0.162547287531    12.000000000000
         C            2.727049022313    -0.352751098727     0.726568712469    12.000000000000
         C           -1.837880977687    -1.303130098727     0.104475712469    12.000000000000
         C           -2.292245977687    -0.023516098727     0.247841712469    12.000000000000
         H            2.075828022313    -1.659710098727    -0.880080287531     1.007825032230
         H            2.199814022313     0.049186901273    -1.324386287531     1.007825032230
         H           -0.082874977687    -2.520573098727    -0.283517287531     1.007825032230
         H            3.792704022313    -0.496272098727     0.524193712469     1.007825032230
         H            2.439256022313    -1.024867098727     1.540309712469     1.007825032230
         H            2.571939022313     0.678375901273     1.048924712469     1.007825032230
         H           -1.737081977687     1.976602901273     0.232779712469     1.007825032230
         H           -2.524415977687    -2.137161098727     0.193705712469     1.007825032230
         H           -3.325665977687     0.237212901273     0.451796712469     1.007825032230

  Basis Set: AUG-CC-PVTZ
    Blend: AUG-CC-PVTZ
  Basis Set: (AUG-CC-PVTZ AUX)
    Blend: AUG-CC-PVTZ-JKFIT
	 Reference Energy          =    -399.7669216982510534 [Eh]
	 Singles Energy            =      -0.0000000000000000 [Eh]
	 Same-Spin Energy          =      -0.4240413824009688 [Eh]
	 Opposite-Spin Energy      =      -1.3405707611193241 [Eh]
	 Correlation Energy        =      -1.7646121435202928 [Eh]
	 Total Energy              =    -401.5315338417713633 [Eh]

	 ================> DF-SCS-MP2 Energies <==================
	-----------------------------------------------------------
	 SCS Same-Spin Scale       =       0.3333333333333333 [-]
	 SCS Opposite-Spin Scale   =       1.2000000000000000 [-]
	 SCS Same-Spin Energy      =      -0.1413471274669896 [Eh]
	 SCS Opposite-Spin Energy  =      -1.6086849133431889 [Eh]
	 SCS Correlation Energy    =      -1.7500320408101784 [Eh]
	 SCS Total Energy          =    -401.5169537390612504 [Eh]
	-----------------------------------------------------------

  Dipole Moment: [D]
     X:    -3.3930      Y:    -2.5395      Z:     0.5484     Total:     4.2735

*** Psi4 exiting successfully. Buy a developer a beer!
