                               Psi4 1.4a3.dev225

  ==> Input File <==

--------------------------------------------------------------------------
#psi4
#
memory 32 gb

molecule  {
0 1
  O        0.6058420     1.9734460    -0.2200840
  N       -1.4635990     1.0552220     0.1204360
  C        0.3766720    -0.4191730    -0.2885420
  C        1.8447340    -0.6003330    -0.5373460
  C       -0.0912220     0.9510960    -0.1351610
  C       -0.5056070    -1.4668030    -0.1721790
  C        2.6774180    -0.3153160     0.7169370
  C       -1.8875120    -1.2656950     0.0948440
  C       -2.3418770     0.0139190     0.2382100
  H        2.0261970    -1.6222750    -0.8897120
  H        2.1501830     0.0866220    -1.3340180
  H       -0.1325060    -2.4831380    -0.2931490
  H        3.7430730    -0.4588370     0.5145620
  H        2.3896250    -0.9874320     1.5306780
  H        2.5223080     0.7158110     1.0392930
  H       -1.7708273     1.9668984     0.2180982
  H       -2.5740470    -2.0997260     0.1840740
  H       -3.3752970     0.2746480     0.4421650
units angstrom
no_reorient  #important for SAPT in psi4, default
symmetry c1  #important for SAPT in psi4, default
}

set PROPERTIES_ORIGIN ["COM"]
properties('MP2/aug-cc-pvtz', properties = ['dipole'])
--------------------------------------------------------------------------

    Molecular point group: c1
  Charge       = 0
  Multiplicity = 1
  Basis Set: AUG-CC-PVTZ
    Blend: AUG-CC-PVTZ
  Basis Set: (AUG-CC-PVTZ AUX)
    Blend: AUG-CC-PVTZ-JKFIT

    Orbital Energies [Eh]
    ---------------------

    Doubly Occupied:

       1A    -20.510472     2A    -15.621569     3A    -11.353281
       4A    -11.309625     5A    -11.266242     6A    -11.245182
       7A    -11.242965     8A    -11.224273     9A    -11.205768
      10A     -1.371925    11A     -1.275473    12A     -1.119675
      13A     -1.056193    14A     -0.993849    15A     -0.891663
      16A     -0.871223    17A     -0.819052    18A     -0.743424
      19A     -0.704139    20A     -0.675003    21A     -0.626592
      22A     -0.612737    23A     -0.603598    24A     -0.590898
      25A     -0.565282    26A     -0.547641    27A     -0.514763
      28A     -0.495996    29A     -0.486505    30A     -0.474438
      31A     -0.422761    32A     -0.411982    33A     -0.306858

  @DF-RHF Final Energy:  -399.77922986130977

   => Energetics <=

    Nuclear Repulsion Energy =            432.9332170455658684
    One-Electron Energy =               -1401.1027953120083112
    Two-Electron Energy =                 568.3903484051326132
    Total Energy =                       -399.7792298613097728
  Basis Set: (AUG-CC-PVTZ AUX)
    Blend: AUG-CC-PVTZ-RI
    Molecular point group: c1

    Geometry (in Angstrom), charge = 0, multiplicity = 1:

       Center              X                  Y                   Z               Mass
    ------------   -----------------  -----------------  -----------------  -----------------
         O            0.645783644119     1.937122218666    -0.208630577900    15.994914619570
         N           -1.423657355881     1.018898218666     0.131889422100    14.003074004430
         C            0.416613644119    -0.455496781334    -0.277088577900    12.000000000000
         C            1.884675644119    -0.636656781334    -0.525892577900    12.000000000000
         C           -0.051280355881     0.914772218666    -0.123707577900    12.000000000000
         C           -0.465665355881    -1.503126781334    -0.160725577900    12.000000000000
         C            2.717359644119    -0.351639781334     0.728390422100    12.000000000000
         C           -1.847570355881    -1.302018781334     0.106297422100    12.000000000000
         C           -2.301935355881    -0.022404781334     0.249663422100    12.000000000000
         H            2.066138644119    -1.658598781334    -0.878258577900     1.007825032230
         H            2.190124644119     0.050298218666    -1.322564577900     1.007825032230
         H           -0.092564355881    -2.519461781334    -0.281695577900     1.007825032230
         H            3.783014644119    -0.495160781334     0.526015422100     1.007825032230
         H            2.429566644119    -1.023755781334     1.542131422100     1.007825032230
         H            2.562249644119     0.679487218666     1.050746422100     1.007825032230
         H           -1.730885655881     1.930574618666     0.229551622100     1.007825032230
         H           -2.534105355881    -2.136049781334     0.195527422100     1.007825032230
         H           -3.335355355881     0.238324218666     0.453618422100     1.007825032230

  Basis Set: AUG-CC-PVTZ
    Blend: AUG-CC-PVTZ
  Basis Set: (AUG-CC-PVTZ AUX)
    Blend: AUG-CC-PVTZ-JKFIT
	 Reference Energy          =    -399.7792298613097728 [Eh]
	 Singles Energy            =      -0.0000000000000000 [Eh]
	 Same-Spin Energy          =      -0.4236068260775516 [Eh]
	 Opposite-Spin Energy      =      -1.3390324427565647 [Eh]
	 Correlation Energy        =      -1.7626392688341164 [Eh]
	 Total Energy              =    -401.5418691301438798 [Eh]

	 ================> DF-SCS-MP2 Energies <==================
	-----------------------------------------------------------
	 SCS Same-Spin Scale       =       0.3333333333333333 [-]
	 SCS Opposite-Spin Scale   =       1.2000000000000000 [-]
	 SCS Same-Spin Energy      =      -0.1412022753591838 [Eh]
	 SCS Opposite-Spin Energy  =      -1.6068389313078777 [Eh]
	 SCS Correlation Energy    =      -1.7480412066670616 [Eh]
	 SCS Total Energy          =    -401.5272710679768124 [Eh]
	-----------------------------------------------------------

  Dipole Moment: [D]
     X:    -2.9073      Y:    -2.2979      Z:     0.4708     Total:     3.7355

*** Psi4 exiting successfully. Buy a developer a beer!
