                               Psi4 1.3.2 release

  ==> Input File <==

--------------------------------------------------------------------------
#psi4
#
memory 32 gb

molecule  {
0 1
  O        0.6058420     1.9734460    -0.2200840
  N       -1.4635990     1.0552220     0.1204360
  C        0.3766720    -0.4191730    -0.2885420
  C        1.8447340    -0.6003330    -0.5373460
  C       -0.0912220     0.9510960    -0.1351610
  C       -0.5056070    -1.4668030    -0.1721790
  C        2.6774180    -0.3153160     0.7169370
  C       -1.8875120    -1.2656950     0.0948440
  C       -2.2307022    -0.0727949     0.2136314
  H        2.0261970    -1.6222750    -0.8897120
  H        2.1501830     0.0866220    -1.3340180
  H       -0.1325060    -2.4831380    -0.2931490
  H        3.7430730    -0.4588370     0.5145620
  H        2.3896250    -0.9874320     1.5306780
  H        2.5223080     0.7158110     1.0392930
  H       -1.7867130     2.0140380     0.2231480
  H       -2.5740470    -2.0997260     0.1840740
  H       -3.3752970     0.2746480     0.4421650
units angstrom
no_reorient  #important for SAPT in psi4, default
symmetry c1  #important for SAPT in psi4, default
}

set PROPERTIES_ORIGIN ["COM"]
properties('MP2/aug-cc-pvtz', properties = ['dipole'])
--------------------------------------------------------------------------

    Molecular point group: c1
  Charge       = 0
  Multiplicity = 1
  Basis Set: AUG-CC-PVTZ
    Blend: AUG-CC-PVTZ
  Basis Set: (AUG-CC-PVTZ AUX)
    Blend: AUG-CC-PVTZ-JKFIT

    Orbital Energies [Eh]
    ---------------------

    Doubly Occupied:

       1A    -20.511445     2A    -15.621184     3A    -11.351349
       4A    -11.300652     5A    -11.266583     6A    -11.245557
       7A    -11.228336     8A    -11.224751     9A    -11.206064
      10A     -1.371225    11A     -1.273478    12A     -1.127768
      13A     -1.071814    14A     -0.992869    15A     -0.886913
      16A     -0.865537    17A     -0.819870    18A     -0.736361
      19A     -0.706204    20A     -0.668272    21A     -0.627093
      22A     -0.614916    23A     -0.595781    24A     -0.592855
      25A     -0.554748    26A     -0.542372    27A     -0.512976
      28A     -0.498872    29A     -0.488757    30A     -0.477258
      31A     -0.419226    32A     -0.413967    33A     -0.320694

  @DF-RHF Final Energy:  -399.75305615075513

   => Energetics <=

    Nuclear Repulsion Energy =            435.0977695639853664
    One-Electron Energy =               -1405.4301563834712852
    Two-Electron Energy =                 570.5793306687307904
    Total Energy =                       -399.7530561507551283
  Basis Set: (AUG-CC-PVTZ AUX)
    Blend: AUG-CC-PVTZ-RI
    Molecular point group: c1

    Geometry (in Angstrom), charge = 0, multiplicity = 1:

       Center              X                  Y                   Z               Mass
    ------------   -----------------  -----------------  -----------------  -----------------
         O            0.635073441948     1.945191375483    -0.206275352250    15.994914619570
         N           -1.434367558052     1.026967375483     0.134244647750    14.003074004430
         C            0.405903441948    -0.447427624517    -0.274733352250    12.000000000000
         C            1.873965441948    -0.628587624517    -0.523537352250    12.000000000000
         C           -0.061990558052     0.922841375483    -0.121352352250    12.000000000000
         C           -0.476375558052    -1.495057624517    -0.158370352250    12.000000000000
         C            2.706649441948    -0.343570624517     0.730745647750    12.000000000000
         C           -1.858280558052    -1.293949624517     0.108652647750    12.000000000000
         C           -2.201470758052    -0.101049524517     0.227440047750    12.000000000000
         H            2.055428441948    -1.650529624517    -0.875903352250     1.007825032230
         H            2.179414441948     0.058367375483    -1.320209352250     1.007825032230
         H           -0.103274558052    -2.511392624517    -0.279340352250     1.007825032230
         H            3.772304441948    -0.487091624517     0.528370647750     1.007825032230
         H            2.418856441948    -1.015686624517     1.544486647750     1.007825032230
         H            2.551539441948     0.687556375483     1.053101647750     1.007825032230
         H           -1.757481558052     1.985783375483     0.236956647750     1.007825032230
         H           -2.544815558052    -2.127980624517     0.197882647750     1.007825032230
         H           -3.346065558052     0.246393375483     0.455973647750     1.007825032230

  Basis Set: AUG-CC-PVTZ
    Blend: AUG-CC-PVTZ
  Basis Set: (AUG-CC-PVTZ AUX)
    Blend: AUG-CC-PVTZ-JKFIT
	 Reference Energy          =    -399.7530561507551283 [Eh]
	 Singles Energy            =      -0.0000000000000000 [Eh]
	 Same-Spin Energy          =      -0.4227689413187183 [Eh]
	 Opposite-Spin Energy      =      -1.3386303433203672 [Eh]
	 Correlation Energy        =      -1.7613992846390856 [Eh]
	 Total Energy              =    -401.5144554353942112 [Eh]

	 ================> DF-SCS-MP2 Energies <==================
	-----------------------------------------------------------
	 SCS Same-Spin Scale       =       0.3333333333333333 [-]
	 SCS Opposite-Spin Scale   =       1.2000000000000000 [-]
	 SCS Same-Spin Energy      =      -0.1409229804395727 [Eh]
	 SCS Opposite-Spin Energy  =      -1.6063564119844407 [Eh]
	 SCS Correlation Energy    =      -1.7472793924240135 [Eh]
	 SCS Total Energy          =    -401.5003355431791192 [Eh]
	-----------------------------------------------------------

  Dipole Moment: [D]
     X:    -2.7565      Y:    -2.3372      Z:     0.4366     Total:     3.6402

*** Psi4 exiting successfully. Buy a developer a beer!
