                               Psi4 1.4a3.dev225

  ==> Input File <==

--------------------------------------------------------------------------
#psi4
#
memory 32 gb

molecule  {
0 1
  O        0.6058420     1.9734460    -0.2200840
  N       -1.4635990     1.0552220     0.1204360
  C        0.3766720    -0.4191730    -0.2885420
  C        1.8447340    -0.6003330    -0.5373460
  C       -0.1108294     0.9525837    -0.1315092
  C       -0.5056070    -1.4668030    -0.1721790
  C        2.6774180    -0.3153160     0.7169370
  C       -1.8875120    -1.2656950     0.0948440
  C       -2.3418770     0.0139190     0.2382100
  H        2.0261970    -1.6222750    -0.8897120
  H        2.1501830     0.0866220    -1.3340180
  H       -0.1325060    -2.4831380    -0.2931490
  H        3.7430730    -0.4588370     0.5145620
  H        2.3896250    -0.9874320     1.5306780
  H        2.5223080     0.7158110     1.0392930
  H       -1.7867130     2.0140380     0.2231480
  H       -2.5740470    -2.0997260     0.1840740
  H       -3.3752970     0.2746480     0.4421650
units angstrom
no_reorient  #important for SAPT in psi4, default
symmetry c1  #important for SAPT in psi4, default
}

set PROPERTIES_ORIGIN ["COM"]
properties('MP2/aug-cc-pvtz', properties = ['dipole'])
--------------------------------------------------------------------------

    Molecular point group: c1
  Charge       = 0
  Multiplicity = 1
  Basis Set: AUG-CC-PVTZ
    Blend: AUG-CC-PVTZ
  Basis Set: (AUG-CC-PVTZ AUX)
    Blend: AUG-CC-PVTZ-JKFIT

    Orbital Energies [Eh]
    ---------------------

    Doubly Occupied:

       1A    -20.506963     2A    -15.628364     3A    -11.352234
       4A    -11.309649     5A    -11.265044     6A    -11.246622
       7A    -11.244364     8A    -11.224347     9A    -11.205394
      10A     -1.366399    11A     -1.273027    12A     -1.118056
      13A     -1.055851    14A     -0.994436    15A     -0.889244
      16A     -0.869652    17A     -0.819460    18A     -0.738495
      19A     -0.703564    20A     -0.671930    21A     -0.626346
      22A     -0.611063    23A     -0.603464    24A     -0.590961
      25A     -0.565297    26A     -0.543934    27A     -0.514610
      28A     -0.494783    29A     -0.485066    30A     -0.472018
      31A     -0.420574    32A     -0.412074    33A     -0.307106

  @DF-RHF Final Energy:  -399.77900058857506

   => Energetics <=

    Nuclear Repulsion Energy =            432.6070936525946991
    One-Electron Energy =               -1400.5114066033638665
    Two-Electron Energy =                 568.1253123621941086
    Total Energy =                       -399.7790005885750588
  Basis Set: (AUG-CC-PVTZ AUX)
    Blend: AUG-CC-PVTZ-RI
    Molecular point group: c1

    Geometry (in Angstrom), charge = 0, multiplicity = 1:

       Center              X                  Y                   Z               Mass
    ------------   -----------------  -----------------  -----------------  -----------------
         O            0.647825588092     1.936591124888    -0.209028006561    15.994914619570
         N           -1.421615411908     1.018367124888     0.131491993439    14.003074004430
         C            0.418655588092    -0.456027875112    -0.277486006561    12.000000000000
         C            1.886717588092    -0.637187875112    -0.526290006561    12.000000000000
         C           -0.068845811908     0.915728824888    -0.120453206561    12.000000000000
         C           -0.463623411908    -1.503657875112    -0.161123006561    12.000000000000
         C            2.719401588092    -0.352170875112     0.727992993439    12.000000000000
         C           -1.845528411908    -1.302549875112     0.105899993439    12.000000000000
         C           -2.299893411908    -0.022935875112     0.249265993439    12.000000000000
         H            2.068180588092    -1.659129875112    -0.878656006561     1.007825032230
         H            2.192166588092     0.049767124888    -1.322962006561     1.007825032230
         H           -0.090522411908    -2.519992875112    -0.282093006561     1.007825032230
         H            3.785056588092    -0.495691875112     0.525617993439     1.007825032230
         H            2.431608588092    -1.024286875112     1.541733993439     1.007825032230
         H            2.564291588092     0.678956124888     1.050348993439     1.007825032230
         H           -1.744729411908     1.977183124888     0.234203993439     1.007825032230
         H           -2.532063411908    -2.136580875112     0.195129993439     1.007825032230
         H           -3.333313411908     0.237793124888     0.453220993439     1.007825032230

  Basis Set: AUG-CC-PVTZ
    Blend: AUG-CC-PVTZ
  Basis Set: (AUG-CC-PVTZ AUX)
    Blend: AUG-CC-PVTZ-JKFIT
	 Reference Energy          =    -399.7790005885750588 [Eh]
	 Singles Energy            =      -0.0000000000000000 [Eh]
	 Same-Spin Energy          =      -0.4240113561370867 [Eh]
	 Opposite-Spin Energy      =      -1.3399925706220517 [Eh]
	 Correlation Energy        =      -1.7640039267591385 [Eh]
	 Total Energy              =    -401.5430045153341894 [Eh]

	 ================> DF-SCS-MP2 Energies <==================
	-----------------------------------------------------------
	 SCS Same-Spin Scale       =       0.3333333333333333 [-]
	 SCS Opposite-Spin Scale   =       1.2000000000000000 [-]
	 SCS Same-Spin Energy      =      -0.1413371187123622 [Eh]
	 SCS Opposite-Spin Energy  =      -1.6079910847464620 [Eh]
	 SCS Correlation Energy    =      -1.7493282034588242 [Eh]
	 SCS Total Energy          =    -401.5283287920339035 [Eh]
	-----------------------------------------------------------

  Dipole Moment: [D]
     X:    -3.0262      Y:    -2.2998      Z:     0.4917     Total:     3.8326

*** Psi4 exiting successfully. Buy a developer a beer!
