                               Psi4 1.3.2 release

  ==> Input File <==

--------------------------------------------------------------------------
#psi4
#
memory 32 gb

molecule  {
0 1
  O        0.6058420     1.9734460    -0.2200840
  N       -1.4635990     1.0552220     0.1204360
  C        0.3766720    -0.4191730    -0.2885420
  C        1.8447340    -0.6003330    -0.5373460
  C       -0.0881240     0.9998378    -0.1337134
  C       -0.5056070    -1.4668030    -0.1721790
  C        2.6774180    -0.3153160     0.7169370
  C       -1.8875120    -1.2656950     0.0948440
  C       -2.3418770     0.0139190     0.2382100
  H        2.0261970    -1.6222750    -0.8897120
  H        2.1501830     0.0866220    -1.3340180
  H       -0.1325060    -2.4831380    -0.2931490
  H        3.7430730    -0.4588370     0.5145620
  H        2.3896250    -0.9874320     1.5306780
  H        2.5223080     0.7158110     1.0392930
  H       -1.7867130     2.0140380     0.2231480
  H       -2.5740470    -2.0997260     0.1840740
  H       -3.3752970     0.2746480     0.4421650
units angstrom
no_reorient  #important for SAPT in psi4, default
symmetry c1  #important for SAPT in psi4, default
}

set PROPERTIES_ORIGIN ["COM"]
properties('MP2/aug-cc-pvtz', properties = ['dipole'])
--------------------------------------------------------------------------

    Molecular point group: c1
  Charge       = 0
  Multiplicity = 1
  Basis Set: AUG-CC-PVTZ
    Blend: AUG-CC-PVTZ
  Basis Set: (AUG-CC-PVTZ AUX)
    Blend: AUG-CC-PVTZ-JKFIT

    Orbital Energies [Eh]
    ---------------------

    Doubly Occupied:

       1A    -20.519805     2A    -15.621528     3A    -11.354361
       4A    -11.305632     5A    -11.259975     6A    -11.245322
       7A    -11.239310     8A    -11.223236     9A    -11.206078
      10A     -1.396891    11A     -1.274996    12A     -1.111944
      13A     -1.052902    14A     -0.990188    15A     -0.885132
      16A     -0.861845    17A     -0.816678    18A     -0.732528
      19A     -0.700507    20A     -0.671349    21A     -0.629109
      22A     -0.619557    23A     -0.606408    24A     -0.588348
      25A     -0.565259    26A     -0.547678    27A     -0.513992
      28A     -0.501035    29A     -0.491209    30A     -0.478523
      31A     -0.423115    32A     -0.408807    33A     -0.303440

  @DF-RHF Final Energy:  -399.77916468229972

   => Energetics <=

    Nuclear Repulsion Energy =            432.4741042161430187
    One-Electron Energy =               -1400.2131674030640625
    Two-Electron Energy =                 567.9598985046212647
    Total Energy =                       -399.7791646822997791
  Basis Set: (AUG-CC-PVTZ AUX)
    Blend: AUG-CC-PVTZ-RI
    Molecular point group: c1

    Geometry (in Angstrom), charge = 0, multiplicity = 1:

       Center              X                  Y                   Z               Mass
    ------------   -----------------  -----------------  -----------------  -----------------
         O            0.645611658528     1.931983531583    -0.208813082201    15.994914619570
         N           -1.423829341472     1.013759531583     0.131706917799    14.003074004430
         C            0.416441658528    -0.460635468417    -0.277271082201    12.000000000000
         C            1.884503658528    -0.641795468417    -0.526075082201    12.000000000000
         C           -0.048354341472     0.958375331583    -0.122442482201    12.000000000000
         C           -0.465837341472    -1.508265468417    -0.160908082201    12.000000000000
         C            2.717187658528    -0.356778468417     0.728207917799    12.000000000000
         C           -1.847742341472    -1.307157468417     0.106114917799    12.000000000000
         C           -2.302107341472    -0.027543468417     0.249480917799    12.000000000000
         H            2.065966658528    -1.663737468417    -0.878441082201     1.007825032230
         H            2.189952658528     0.045159531583    -1.322747082201     1.007825032230
         H           -0.092736341472    -2.524600468417    -0.281878082201     1.007825032230
         H            3.782842658528    -0.500299468417     0.525832917799     1.007825032230
         H            2.429394658528    -1.028894468417     1.541948917799     1.007825032230
         H            2.562077658528     0.674348531583     1.050563917799     1.007825032230
         H           -1.746943341472     1.972575531583     0.234418917799     1.007825032230
         H           -2.534277341472    -2.141188468417     0.195344917799     1.007825032230
         H           -3.335527341472     0.233185531583     0.453435917799     1.007825032230

  Basis Set: AUG-CC-PVTZ
    Blend: AUG-CC-PVTZ
  Basis Set: (AUG-CC-PVTZ AUX)
    Blend: AUG-CC-PVTZ-JKFIT
	 Reference Energy          =    -399.7791646822997222 [Eh]
	 Singles Energy            =      -0.0000000000000000 [Eh]
	 Same-Spin Energy          =      -0.4228164184980067 [Eh]
	 Opposite-Spin Energy      =      -1.3382618496562422 [Eh]
	 Correlation Energy        =      -1.7610782681542489 [Eh]
	 Total Energy              =    -401.5402429504539441 [Eh]

	 ================> DF-SCS-MP2 Energies <==================
	-----------------------------------------------------------
	 SCS Same-Spin Scale       =       0.3333333333333333 [-]
	 SCS Opposite-Spin Scale   =       1.2000000000000000 [-]
	 SCS Same-Spin Energy      =      -0.1409388061660022 [Eh]
	 SCS Opposite-Spin Energy  =      -1.6059142195874905 [Eh]
	 SCS Correlation Energy    =      -1.7468530257534927 [Eh]
	 SCS Total Energy          =    -401.5260177080531889 [Eh]
	-----------------------------------------------------------

  Dipole Moment: [D]
     X:    -2.7353      Y:    -1.9176      Z:     0.4509     Total:     3.3709

*** Psi4 exiting successfully. Buy a developer a beer!
