                               Psi4 1.3.2 release

  ==> Input File <==

--------------------------------------------------------------------------
#psi4
#
memory 32 gb

molecule  {
0 1
  O        0.6058420     1.9734460    -0.2200840
  N       -1.4635990     1.0552220     0.1204360
  C        0.3766720    -0.4191730    -0.2885420
  C        1.8447340    -0.6003330    -0.5373460
  C       -0.0959920     0.9024810    -0.1362972
  C       -0.5056070    -1.4668030    -0.1721790
  C        2.6774180    -0.3153160     0.7169370
  C       -1.8875120    -1.2656950     0.0948440
  C       -2.3418770     0.0139190     0.2382100
  H        2.0261970    -1.6222750    -0.8897120
  H        2.1501830     0.0866220    -1.3340180
  H       -0.1325060    -2.4831380    -0.2931490
  H        3.7430730    -0.4588370     0.5145620
  H        2.3896250    -0.9874320     1.5306780
  H        2.5223080     0.7158110     1.0392930
  H       -1.7867130     2.0140380     0.2231480
  H       -2.5740470    -2.0997260     0.1840740
  H       -3.3752970     0.2746480     0.4421650
units angstrom
no_reorient  #important for SAPT in psi4, default
symmetry c1  #important for SAPT in psi4, default
}

set PROPERTIES_ORIGIN ["COM"]
properties('MP2/aug-cc-pvtz', properties = ['dipole'])
--------------------------------------------------------------------------

    Molecular point group: c1
  Charge       = 0
  Multiplicity = 1
  Basis Set: AUG-CC-PVTZ
    Blend: AUG-CC-PVTZ
  Basis Set: (AUG-CC-PVTZ AUX)
    Blend: AUG-CC-PVTZ-JKFIT

    Orbital Energies [Eh]
    ---------------------

    Doubly Occupied:

       1A    -20.499447     2A    -15.630955     3A    -11.350627
       4A    -11.313514     5A    -11.272076     6A    -11.246154
       7A    -11.243756     8A    -11.224874     9A    -11.205008
      10A     -1.349774    11A     -1.262802    12A     -1.123989
      13A     -1.057378    14A     -0.996914    15A     -0.894231
      16A     -0.872375    17A     -0.818944    18A     -0.742637
      19A     -0.705817    20A     -0.674058    21A     -0.627138
      22A     -0.606244    23A     -0.597559    24A     -0.591599
      25A     -0.563889    26A     -0.544043    27A     -0.514934
      28A     -0.492771    29A     -0.483843    30A     -0.464743
      31A     -0.417273    32A     -0.413727    33A     -0.309208

  @DF-RHF Final Energy:  -399.77257752358918

   => Energetics <=

    Nuclear Repulsion Energy =            432.7998249248388447
    One-Electron Energy =               -1400.9202012554101202
    Two-Electron Energy =                 568.3477988069820412
    Total Energy =                       -399.7725775235892343
  Basis Set: (AUG-CC-PVTZ AUX)
    Blend: AUG-CC-PVTZ-RI
    Molecular point group: c1

    Geometry (in Angstrom), charge = 0, multiplicity = 1:

       Center              X                  Y                   Z               Mass
    ------------   -----------------  -----------------  -----------------  -----------------
         O            0.646378841569     1.941476475896    -0.208561144283    15.994914619570
         N           -1.423062158431     1.023252475896     0.131958855717    14.003074004430
         C            0.417208841569    -0.451142524104    -0.277019144283    12.000000000000
         C            1.885270841569    -0.632302524104    -0.525823144283    12.000000000000
         C           -0.055455158431     0.870511475896    -0.124774344283    12.000000000000
         C           -0.465070158431    -1.498772524104    -0.160656144283    12.000000000000
         C            2.717954841569    -0.347285524104     0.728459855717    12.000000000000
         C           -1.846975158431    -1.297664524104     0.106366855717    12.000000000000
         C           -2.301340158431    -0.018050524104     0.249732855717    12.000000000000
         H            2.066733841569    -1.654244524104    -0.878189144283     1.007825032230
         H            2.190719841569     0.054652475896    -1.322495144283     1.007825032230
         H           -0.091969158431    -2.515107524104    -0.281626144283     1.007825032230
         H            3.783609841569    -0.490806524104     0.526084855717     1.007825032230
         H            2.430161841569    -1.019401524104     1.542200855717     1.007825032230
         H            2.562844841569     0.683841475896     1.050815855717     1.007825032230
         H           -1.746176158431     1.982068475896     0.234670855717     1.007825032230
         H           -2.533510158431    -2.131695524104     0.195596855717     1.007825032230
         H           -3.334760158431     0.242678475896     0.453687855717     1.007825032230

  Basis Set: AUG-CC-PVTZ
    Blend: AUG-CC-PVTZ
  Basis Set: (AUG-CC-PVTZ AUX)
    Blend: AUG-CC-PVTZ-JKFIT
	 Reference Energy          =    -399.7725775235891774 [Eh]
	 Singles Energy            =      -0.0000000000000000 [Eh]
	 Same-Spin Energy          =      -0.4253502605861643 [Eh]
	 Opposite-Spin Energy      =      -1.3417573300184025 [Eh]
	 Correlation Energy        =      -1.7671075906045668 [Eh]
	 Total Energy              =    -401.5396851141937304 [Eh]

	 ================> DF-SCS-MP2 Energies <==================
	-----------------------------------------------------------
	 SCS Same-Spin Scale       =       0.3333333333333333 [-]
	 SCS Opposite-Spin Scale   =       1.2000000000000000 [-]
	 SCS Same-Spin Energy      =      -0.1417834201953881 [Eh]
	 SCS Opposite-Spin Energy  =      -1.6101087960220830 [Eh]
	 SCS Correlation Energy    =      -1.7518922162174710 [Eh]
	 SCS Total Energy          =    -401.5244697398066478 [Eh]
	-----------------------------------------------------------

  Dipole Moment: [D]
     X:    -3.1369      Y:    -2.5548      Z:     0.5056     Total:     4.0771

*** Psi4 exiting successfully. Buy a developer a beer!
