                               Psi4 1.3.2 release

  ==> Input File <==

--------------------------------------------------------------------------
#psi4
#
memory 32 gb

molecule  {
0 1
  O        0.6058420     1.9734460    -0.2200840
  N       -1.4635990     1.0552220     0.1204360
  C        0.3766720    -0.4191730    -0.2885420
  C        1.8447340    -0.6003330    -0.5373460
  C       -0.2872963     0.9659727    -0.0986433
  C       -0.5056070    -1.4668030    -0.1721790
  C        2.6774180    -0.3153160     0.7169370
  C       -1.8875120    -1.2656950     0.0948440
  C       -2.3418770     0.0139190     0.2382100
  H        2.0261970    -1.6222750    -0.8897120
  H        2.1501830     0.0866220    -1.3340180
  H       -0.1325060    -2.4831380    -0.2931490
  H        3.7430730    -0.4588370     0.5145620
  H        2.3896250    -0.9874320     1.5306780
  H        2.5223080     0.7158110     1.0392930
  H       -1.7867130     2.0140380     0.2231480
  H       -2.5740470    -2.0997260     0.1840740
  H       -3.3752970     0.2746480     0.4421650
units angstrom
no_reorient  #important for SAPT in psi4, default
symmetry c1  #important for SAPT in psi4, default
}

set PROPERTIES_ORIGIN ["COM"]
properties('MP2/aug-cc-pvtz', properties = ['dipole'])
--------------------------------------------------------------------------

    Molecular point group: c1
  Charge       = 0
  Multiplicity = 1
  Basis Set: AUG-CC-PVTZ
    Blend: AUG-CC-PVTZ
  Basis Set: (AUG-CC-PVTZ AUX)
    Blend: AUG-CC-PVTZ-JKFIT

    Orbital Energies [Eh]
    ---------------------

    Doubly Occupied:

       1A    -20.479056     2A    -15.645243     3A    -11.342365
       4A    -11.310300     5A    -11.263484     6A    -11.262001
       7A    -11.257420     8A    -11.227197     9A    -11.204045
      10A     -1.391947    11A     -1.243533    12A     -1.126227
      13A     -1.062950    14A     -1.003861    15A     -0.906677
      16A     -0.880023    17A     -0.832180    18A     -0.750129
      19A     -0.708996    20A     -0.672604    21A     -0.643564
      22A     -0.629306    23A     -0.594710    24A     -0.588712
      25A     -0.567279    26A     -0.516406    27A     -0.508308
      28A     -0.492481    29A     -0.478814    30A     -0.452506
      31A     -0.410400    32A     -0.392490    33A     -0.313593

  @DF-RHF Final Energy:  -399.72290986432517

   => Energetics <=

    Nuclear Repulsion Energy =            432.8886457046395435
    One-Electron Energy =               -1400.9055036790846316
    Two-Electron Energy =                 568.2939481101199135
    Total Energy =                       -399.7229098643251746
  Basis Set: (AUG-CC-PVTZ AUX)
    Blend: AUG-CC-PVTZ-RI
    Molecular point group: c1

    Geometry (in Angstrom), charge = 0, multiplicity = 1:

       Center              X                  Y                   Z               Mass
    ------------   -----------------  -----------------  -----------------  -----------------
         O            0.665032300462     1.935285607129    -0.212232653370    15.994914619570
         N           -1.404408699538     1.017061607129     0.128287346630    14.003074004430
         C            0.435862300462    -0.457333392871    -0.280690653370    12.000000000000
         C            1.903924300462    -0.638493392871    -0.529494653370    12.000000000000
         C           -0.228105999538     0.927812307129    -0.090791953370    12.000000000000
         C           -0.446416699538    -1.504963392871    -0.164327653370    12.000000000000
         C            2.736608300462    -0.353476392871     0.724788346630    12.000000000000
         C           -1.828321699538    -1.303855392871     0.102695346630    12.000000000000
         C           -2.282686699538    -0.024241392871     0.246061346630    12.000000000000
         H            2.085387300462    -1.660435392871    -0.881860653370     1.007825032230
         H            2.209373300462     0.048461607129    -1.326166653370     1.007825032230
         H           -0.073315699538    -2.521298392871    -0.285297653370     1.007825032230
         H            3.802263300462    -0.496997392871     0.522413346630     1.007825032230
         H            2.448815300462    -1.025592392871     1.538529346630     1.007825032230
         H            2.581498300462     0.677650607129     1.047144346630     1.007825032230
         H           -1.727522699538     1.975877607129     0.230999346630     1.007825032230
         H           -2.514856699538    -2.137886392871     0.191925346630     1.007825032230
         H           -3.316106699538     0.236487607129     0.450016346630     1.007825032230

  Basis Set: AUG-CC-PVTZ
    Blend: AUG-CC-PVTZ
  Basis Set: (AUG-CC-PVTZ AUX)
    Blend: AUG-CC-PVTZ-JKFIT
	 Reference Energy          =    -399.7229098643251746 [Eh]
	 Singles Energy            =      -0.0000000000000000 [Eh]
	 Same-Spin Energy          =      -0.4241674117725275 [Eh]
	 Opposite-Spin Energy      =      -1.3416137977532983 [Eh]
	 Correlation Energy        =      -1.7657812095258258 [Eh]
	 Total Energy              =    -401.4886910738509869 [Eh]

	 ================> DF-SCS-MP2 Energies <==================
	-----------------------------------------------------------
	 SCS Same-Spin Scale       =       0.3333333333333333 [-]
	 SCS Opposite-Spin Scale   =       1.2000000000000000 [-]
	 SCS Same-Spin Energy      =      -0.1413891372575092 [Eh]
	 SCS Opposite-Spin Energy  =      -1.6099365573039579 [Eh]
	 SCS Correlation Energy    =      -1.7513256945614670 [Eh]
	 SCS Total Energy          =    -401.4742355588866189 [Eh]
	-----------------------------------------------------------

  Dipole Moment: [D]
     X:    -3.8605      Y:    -2.8819      Z:     0.6206     Total:     4.8574

*** Psi4 exiting successfully. Buy a developer a beer!
