                               Psi4 1.4a3.dev225

  ==> Input File <==

--------------------------------------------------------------------------
#psi4
#
memory 32 gb

molecule  {
0 1
  O        0.6058420     1.9734460    -0.2200840
  N       -1.4635990     1.0552220     0.1204360
  C        0.3766720    -0.4191730    -0.2885420
  C        1.8447340    -0.6003330    -0.5373460
  C       -0.0912220     0.9510960    -0.1351610
  C       -0.5056070    -1.4668030    -0.1721790
  C        2.6774180    -0.3153160     0.7169370
  C       -1.8875120    -1.2656950     0.0948440
  C       -2.3097602     0.0519973     0.2339032
  H        2.0261970    -1.6222750    -0.8897120
  H        2.1501830     0.0866220    -1.3340180
  H       -0.1325060    -2.4831380    -0.2931490
  H        3.7430730    -0.4588370     0.5145620
  H        2.3896250    -0.9874320     1.5306780
  H        2.5223080     0.7158110     1.0392930
  H       -1.7867130     2.0140380     0.2231480
  H       -2.5740470    -2.0997260     0.1840740
  H       -3.3752970     0.2746480     0.4421650
units angstrom
no_reorient  #important for SAPT in psi4, default
symmetry c1  #important for SAPT in psi4, default
}

set PROPERTIES_ORIGIN ["COM"]
properties('MP2/aug-cc-pvtz', properties = ['dipole'])
--------------------------------------------------------------------------

    Molecular point group: c1
  Charge       = 0
  Multiplicity = 1
  Basis Set: AUG-CC-PVTZ
    Blend: AUG-CC-PVTZ
  Basis Set: (AUG-CC-PVTZ AUX)
    Blend: AUG-CC-PVTZ-JKFIT

    Orbital Energies [Eh]
    ---------------------

    Doubly Occupied:

       1A    -20.510207     2A    -15.632396     3A    -11.353433
       4A    -11.313174     5A    -11.265149     6A    -11.241641
       7A    -11.241284     8A    -11.222730     9A    -11.204438
      10A     -1.374678    11A     -1.287541    12A     -1.117321
      13A     -1.050576    14A     -0.992649    15A     -0.889121
      16A     -0.871733    17A     -0.820089    18A     -0.744630
      19A     -0.705064    20A     -0.668055    21A     -0.627477
      22A     -0.614618    23A     -0.604987    24A     -0.588828
      25A     -0.563788    26A     -0.544244    27A     -0.514020
      28A     -0.495449    29A     -0.485925    30A     -0.474142
      31A     -0.422664    32A     -0.412746    33A     -0.300073

  @DF-RHF Final Energy:  -399.77611310522911

   => Energetics <=

    Nuclear Repulsion Energy =            433.2913877917424088
    One-Electron Energy =               -1401.8252613280203605
    Two-Electron Energy =                 568.7577604310488368
    Total Energy =                       -399.7761131052291148
  Basis Set: (AUG-CC-PVTZ AUX)
    Blend: AUG-CC-PVTZ-RI
    Molecular point group: c1

    Geometry (in Angstrom), charge = 0, multiplicity = 1:

       Center              X                  Y                   Z               Mass
    ------------   -----------------  -----------------  -----------------  -----------------
         O            0.642782129903     1.933023294719    -0.208251989409    15.994914619570
         N           -1.426658870097     1.014799294719     0.132268010591    14.003074004430
         C            0.413612129903    -0.459595705281    -0.276709989409    12.000000000000
         C            1.881674129903    -0.640755705281    -0.525513989409    12.000000000000
         C           -0.054281870097     0.910673294719    -0.123328989409    12.000000000000
         C           -0.468666870097    -1.507225705281    -0.160346989409    12.000000000000
         C            2.714358129903    -0.355738705281     0.728769010591    12.000000000000
         C           -1.850571870097    -1.306117705281     0.106676010591    12.000000000000
         C           -2.272820070097     0.011574594719     0.245735210591    12.000000000000
         H            2.063137129903    -1.662697705281    -0.877879989409     1.007825032230
         H            2.187123129903     0.046199294719    -1.322185989409     1.007825032230
         H           -0.095565870097    -2.523560705281    -0.281316989409     1.007825032230
         H            3.780013129903    -0.499259705281     0.526394010591     1.007825032230
         H            2.426565129903    -1.027854705281     1.542510010591     1.007825032230
         H            2.559248129903     0.675388294719     1.051125010591     1.007825032230
         H           -1.749772870097     1.973615294719     0.234980010591     1.007825032230
         H           -2.537106870097    -2.140148705281     0.195906010591     1.007825032230
         H           -3.338356870097     0.234225294719     0.453997010591     1.007825032230

  Basis Set: AUG-CC-PVTZ
    Blend: AUG-CC-PVTZ
  Basis Set: (AUG-CC-PVTZ AUX)
    Blend: AUG-CC-PVTZ-JKFIT
	 Reference Energy          =    -399.7761131052291148 [Eh]
	 Singles Energy            =      -0.0000000000000000 [Eh]
	 Same-Spin Energy          =      -0.4247630727765761 [Eh]
	 Opposite-Spin Energy      =      -1.3399434237607721 [Eh]
	 Correlation Energy        =      -1.7647064965373482 [Eh]
	 Total Energy              =    -401.5408196017664864 [Eh]

	 ================> DF-SCS-MP2 Energies <==================
	-----------------------------------------------------------
	 SCS Same-Spin Scale       =       0.3333333333333333 [-]
	 SCS Opposite-Spin Scale   =       1.2000000000000000 [-]
	 SCS Same-Spin Energy      =      -0.1415876909255254 [Eh]
	 SCS Opposite-Spin Energy  =      -1.6079321085129266 [Eh]
	 SCS Correlation Energy    =      -1.7495197994384519 [Eh]
	 SCS Total Energy          =    -401.5256329046675887 [Eh]
	-----------------------------------------------------------

  Dipole Moment: [D]
     X:    -2.9813      Y:    -2.1114      Z:     0.4873     Total:     3.6856

*** Psi4 exiting successfully. Buy a developer a beer!
