                               Psi4 1.3.2 release

  ==> Input File <==

--------------------------------------------------------------------------
#psi4
#
memory 32 gb

molecule  {
0 1
  O        0.6058420     1.9734460    -0.2200840
  N       -1.4635990     1.0552220     0.1204360
  C        0.3766720    -0.4191730    -0.2885420
  C        1.8447340    -0.6003330    -0.5373460
  C       -0.0912220     0.9510960    -0.1351610
  C       -0.5056070    -1.4668030    -0.1721790
  C        2.6774180    -0.3153160     0.7169370
  C       -1.8875120    -1.2656950     0.0948440
  C       -2.4107186     0.0781304     0.2538949
  H        2.0261970    -1.6222750    -0.8897120
  H        2.1501830     0.0866220    -1.3340180
  H       -0.1325060    -2.4831380    -0.2931490
  H        3.7430730    -0.4588370     0.5145620
  H        2.3896250    -0.9874320     1.5306780
  H        2.5223080     0.7158110     1.0392930
  H       -1.7867130     2.0140380     0.2231480
  H       -2.5740470    -2.0997260     0.1840740
  H       -3.3752970     0.2746480     0.4421650
units angstrom
no_reorient  #important for SAPT in psi4, default
symmetry c1  #important for SAPT in psi4, default
}

set PROPERTIES_ORIGIN ["COM"]
properties('MP2/aug-cc-pvtz', properties = ['dipole'])
--------------------------------------------------------------------------

    Molecular point group: c1
  Charge       = 0
  Multiplicity = 1
  Basis Set: AUG-CC-PVTZ
    Blend: AUG-CC-PVTZ
  Basis Set: (AUG-CC-PVTZ AUX)
    Blend: AUG-CC-PVTZ-JKFIT

    Orbital Energies [Eh]
    ---------------------

    Doubly Occupied:

       1A    -20.509115     2A    -15.631558     3A    -11.354415
       4A    -11.316578     5A    -11.266233     6A    -11.252334
       7A    -11.245050     8A    -11.224007     9A    -11.205514
      10A     -1.370230    11A     -1.271459    12A     -1.115229
      13A     -1.045513    14A     -0.995519    15A     -0.894008
      16A     -0.866524    17A     -0.817088    18A     -0.747377
      19A     -0.711084    20A     -0.668859    21A     -0.630348
      22A     -0.610147    23A     -0.605227    24A     -0.586699
      25A     -0.569595    26A     -0.537225    27A     -0.514678
      28A     -0.494777    29A     -0.485349    30A     -0.472000
      31A     -0.423795    32A     -0.410568    33A     -0.297009

  @DF-RHF Final Energy:  -399.76149649509262

   => Energetics <=

    Nuclear Repulsion Energy =            431.1510753440553572
    One-Electron Energy =               -1397.5349260335797226
    Two-Electron Energy =                 566.6223541944317503
    Total Energy =                       -399.7614964950926151
  Basis Set: (AUG-CC-PVTZ AUX)
    Blend: AUG-CC-PVTZ-RI
    Molecular point group: c1

    Geometry (in Angstrom), charge = 0, multiplicity = 1:

       Center              X                  Y                   Z               Mass
    ------------   -----------------  -----------------  -----------------  -----------------
         O            0.652626254496     1.930475141298    -0.210201314929    15.994914619570
         N           -1.416814745504     1.012251141298     0.130318685071    14.003074004430
         C            0.423456254496    -0.462143858702    -0.278659314929    12.000000000000
         C            1.891518254496    -0.643303858702    -0.527463314929    12.000000000000
         C           -0.044437745504     0.908125141298    -0.125278314929    12.000000000000
         C           -0.458822745504    -1.509773858702    -0.162296314929    12.000000000000
         C            2.724202254496    -0.358286858702     0.726819685071    12.000000000000
         C           -1.840727745504    -1.308665858702     0.104726685071    12.000000000000
         C           -2.363934345504     0.035159541298     0.263777585071    12.000000000000
         H            2.072981254496    -1.665245858702    -0.879829314929     1.007825032230
         H            2.196967254496     0.043651141298    -1.324135314929     1.007825032230
         H           -0.085721745504    -2.526108858702    -0.283266314929     1.007825032230
         H            3.789857254496    -0.501807858702     0.524444685071     1.007825032230
         H            2.436409254496    -1.030402858702     1.540560685071     1.007825032230
         H            2.569092254496     0.672840141298     1.049175685071     1.007825032230
         H           -1.739928745504     1.971067141298     0.233030685071     1.007825032230
         H           -2.527262745504    -2.142696858702     0.193956685071     1.007825032230
         H           -3.328512745504     0.231677141298     0.452047685071     1.007825032230

  Basis Set: AUG-CC-PVTZ
    Blend: AUG-CC-PVTZ
  Basis Set: (AUG-CC-PVTZ AUX)
    Blend: AUG-CC-PVTZ-JKFIT
	 Reference Energy          =    -399.7614964950926151 [Eh]
	 Singles Energy            =      -0.0000000000000000 [Eh]
	 Same-Spin Energy          =      -0.4257556577206130 [Eh]
	 Opposite-Spin Energy      =      -1.3428761643536022 [Eh]
	 Correlation Energy        =      -1.7686318220742152 [Eh]
	 Total Energy              =    -401.5301283171668274 [Eh]

	 ================> DF-SCS-MP2 Energies <==================
	-----------------------------------------------------------
	 SCS Same-Spin Scale       =       0.3333333333333333 [-]
	 SCS Opposite-Spin Scale   =       1.2000000000000000 [-]
	 SCS Same-Spin Energy      =      -0.1419185525735376 [Eh]
	 SCS Opposite-Spin Energy  =      -1.6114513972243227 [Eh]
	 SCS Correlation Energy    =      -1.7533699497978603 [Eh]
	 SCS Total Energy          =    -401.5148664448904583 [Eh]
	-----------------------------------------------------------

  Dipole Moment: [D]
     X:    -2.9595      Y:    -2.2122      Z:     0.4883     Total:     3.7271

*** Psi4 exiting successfully. Buy a developer a beer!
