                               Psi4 1.3.2 release

  ==> Input File <==

--------------------------------------------------------------------------
#psi4
#
memory 32 gb

molecule  {
0 1
  O        0.6058420     1.9734460    -0.2200840
  N       -1.4635990     1.0552220     0.1204360
  C        0.3766720    -0.4191730    -0.2885420
  C        1.8568007    -0.4439427    -0.5304798
  C       -0.0912220     0.9510960    -0.1351610
  C       -0.5056070    -1.4668030    -0.1721790
  C        2.6774180    -0.3153160     0.7169370
  C       -1.8875120    -1.2656950     0.0948440
  C       -2.3418770     0.0139190     0.2382100
  H        2.0261970    -1.6222750    -0.8897120
  H        2.1501830     0.0866220    -1.3340180
  H       -0.1325060    -2.4831380    -0.2931490
  H        3.7430730    -0.4588370     0.5145620
  H        2.3896250    -0.9874320     1.5306780
  H        2.5223080     0.7158110     1.0392930
  H       -1.7867130     2.0140380     0.2231480
  H       -2.5740470    -2.0997260     0.1840740
  H       -3.3752970     0.2746480     0.4421650
units angstrom
no_reorient  #important for SAPT in psi4, default
symmetry c1  #important for SAPT in psi4, default
}

set PROPERTIES_ORIGIN ["COM"]
properties('MP2/aug-cc-pvtz', properties = ['dipole'])
--------------------------------------------------------------------------

    Molecular point group: c1
  Charge       = 0
  Multiplicity = 1
  Basis Set: AUG-CC-PVTZ
    Blend: AUG-CC-PVTZ
  Basis Set: (AUG-CC-PVTZ AUX)
    Blend: AUG-CC-PVTZ-JKFIT

    Orbital Energies [Eh]
    ---------------------

    Doubly Occupied:

       1A    -20.510574     2A    -15.625815     3A    -11.351088
       4A    -11.311025     5A    -11.269458     6A    -11.246186
       7A    -11.244082     8A    -11.229426     9A    -11.205712
      10A     -1.371274    11A     -1.271769    12A     -1.118577
      13A     -1.058613    14A     -0.998696    15A     -0.893363
      16A     -0.864914    17A     -0.819790    18A     -0.738204
      19A     -0.701965    20A     -0.672959    21A     -0.636282
      22A     -0.614270    23A     -0.605624    24A     -0.580412
      25A     -0.570674    26A     -0.547486    27A     -0.532586
      28A     -0.496747    29A     -0.483591    30A     -0.446988
      31A     -0.419710    32A     -0.412871    33A     -0.308472

  @DF-RHF Final Energy:  -399.75363476857081

   => Energetics <=

    Nuclear Repulsion Energy =            433.3811887203764854
    One-Electron Energy =               -1401.9512434772220786
    Two-Electron Energy =                 568.8164199882747880
    Total Energy =                       -399.7536347685708051
  Basis Set: (AUG-CC-PVTZ AUX)
    Blend: AUG-CC-PVTZ-RI
    Molecular point group: c1

    Geometry (in Angstrom), charge = 0, multiplicity = 1:

       Center              X                  Y                   Z               Mass
    ------------   -----------------  -----------------  -----------------  -----------------
         O            0.644737149817     1.921487077140    -0.209341432230    15.994914619570
         N           -1.424703850183     1.003263077140     0.131178567770    14.003074004430
         C            0.415567149817    -0.471131922860    -0.277799432230    12.000000000000
         C            1.895695849817    -0.495901622860    -0.519737232230    12.000000000000
         C           -0.052326850183     0.899137077140    -0.124418432230    12.000000000000
         C           -0.466711850183    -1.518761922860    -0.161436432230    12.000000000000
         C            2.716313149817    -0.367274922860     0.727679567770    12.000000000000
         C           -1.848616850183    -1.317653922860     0.105586567770    12.000000000000
         C           -2.302981850183    -0.038039922860     0.248952567770    12.000000000000
         H            2.065092149817    -1.674233922860    -0.878969432230     1.007825032230
         H            2.189078149817     0.034663077140    -1.323275432230     1.007825032230
         H           -0.093610850183    -2.535096922860    -0.282406432230     1.007825032230
         H            3.781968149817    -0.510795922860     0.525304567770     1.007825032230
         H            2.428520149817    -1.039390922860     1.541420567770     1.007825032230
         H            2.561203149817     0.663852077140     1.050035567770     1.007825032230
         H           -1.747817850183     1.962079077140     0.233890567770     1.007825032230
         H           -2.535151850183    -2.151684922860     0.194816567770     1.007825032230
         H           -3.336401850183     0.222689077140     0.452907567770     1.007825032230

  Basis Set: AUG-CC-PVTZ
    Blend: AUG-CC-PVTZ
  Basis Set: (AUG-CC-PVTZ AUX)
    Blend: AUG-CC-PVTZ-JKFIT
	 Reference Energy          =    -399.7536347685708051 [Eh]
	 Singles Energy            =      -0.0000000000000000 [Eh]
	 Same-Spin Energy          =      -0.4247175259684025 [Eh]
	 Opposite-Spin Energy      =      -1.3415529569247000 [Eh]
	 Correlation Energy        =      -1.7662704828931024 [Eh]
	 Total Energy              =    -401.5199052514639106 [Eh]

	 ================> DF-SCS-MP2 Energies <==================
	-----------------------------------------------------------
	 SCS Same-Spin Scale       =       0.3333333333333333 [-]
	 SCS Opposite-Spin Scale   =       1.2000000000000000 [-]
	 SCS Same-Spin Energy      =      -0.1415725086561342 [Eh]
	 SCS Opposite-Spin Energy  =      -1.6098635483096400 [Eh]
	 SCS Correlation Energy    =      -1.7514360569657741 [Eh]
	 SCS Total Energy          =    -401.5050708255365635 [Eh]
	-----------------------------------------------------------

  Dipole Moment: [D]
     X:    -3.0127      Y:    -2.1123      Z:     0.5386     Total:     3.7187

*** Psi4 exiting successfully. Buy a developer a beer!
