                               Psi4 1.3.2 release

  ==> Input File <==

--------------------------------------------------------------------------
#psi4
#
memory 32 gb

molecule  {
0 1
  O        0.6058420     1.9734460    -0.2200840
  N       -1.4635990     1.0552220     0.1204360
  C        0.3766720    -0.4191730    -0.2885420
  C        1.8165829    -0.7547385    -0.5414862
  C       -0.0912220     0.9510960    -0.1351610
  C       -0.5056070    -1.4668030    -0.1721790
  C        2.6774180    -0.3153160     0.7169370
  C       -1.8875120    -1.2656950     0.0948440
  C       -2.3418770     0.0139190     0.2382100
  H        2.0261970    -1.6222750    -0.8897120
  H        2.1501830     0.0866220    -1.3340180
  H       -0.1325060    -2.4831380    -0.2931490
  H        3.7430730    -0.4588370     0.5145620
  H        2.3896250    -0.9874320     1.5306780
  H        2.5223080     0.7158110     1.0392930
  H       -1.7867130     2.0140380     0.2231480
  H       -2.5740470    -2.0997260     0.1840740
  H       -3.3752970     0.2746480     0.4421650
units angstrom
no_reorient  #important for SAPT in psi4, default
symmetry c1  #important for SAPT in psi4, default
}

set PROPERTIES_ORIGIN ["COM"]
properties('MP2/aug-cc-pvtz', properties = ['dipole'])
--------------------------------------------------------------------------

    Molecular point group: c1
  Charge       = 0
  Multiplicity = 1
  Basis Set: AUG-CC-PVTZ
    Blend: AUG-CC-PVTZ
  Basis Set: (AUG-CC-PVTZ AUX)
    Blend: AUG-CC-PVTZ-JKFIT

    Orbital Energies [Eh]
    ---------------------

    Doubly Occupied:

       1A    -20.510550     2A    -15.627245     3A    -11.356208
       4A    -11.308406     5A    -11.263257     6A    -11.247257
       7A    -11.241650     8A    -11.225645     9A    -11.209629
      10A     -1.370743    11A     -1.271710    12A     -1.118638
      13A     -1.053225    14A     -0.989264    15A     -0.886031
      16A     -0.874166    17A     -0.823961    18A     -0.742075
      19A     -0.702725    20A     -0.672849    21A     -0.628045
      22A     -0.611046    23A     -0.605214    24A     -0.594253
      25A     -0.561829    26A     -0.548915    27A     -0.524103
      28A     -0.495374    29A     -0.480759    30A     -0.462020
      31A     -0.424836    32A     -0.404683    33A     -0.304161

  @DF-RHF Final Energy:  -399.74910482142798

   => Energetics <=

    Nuclear Repulsion Energy =            431.9276651604723725
    One-Electron Energy =               -1399.0726006476954808
    Two-Electron Energy =                 567.3958306657951880
    Total Energy =                       -399.7491048214279772
  Basis Set: (AUG-CC-PVTZ AUX)
    Blend: AUG-CC-PVTZ-RI
    Molecular point group: c1

    Geometry (in Angstrom), charge = 0, multiplicity = 1:

       Center              X                  Y                   Z               Mass
    ------------   -----------------  -----------------  -----------------  -----------------
         O            0.648658656438     1.951791762814    -0.208268234032    15.994914619570
         N           -1.420782343562     1.033567762814     0.132251765968    14.003074004430
         C            0.419488656438    -0.440827237186    -0.276726234032    12.000000000000
         C            1.859399556438    -0.776392737186    -0.529670434032    12.000000000000
         C           -0.048405343562     0.929441762814    -0.123345234032    12.000000000000
         C           -0.462790343562    -1.488457237186    -0.160363234032    12.000000000000
         C            2.720234656438    -0.336970237186     0.728752765968    12.000000000000
         C           -1.844695343562    -1.287349237186     0.106659765968    12.000000000000
         C           -2.299060343562    -0.007735237186     0.250025765968    12.000000000000
         H            2.069013656438    -1.643929237186    -0.877896234032     1.007825032230
         H            2.192999656438     0.064967762814    -1.322202234032     1.007825032230
         H           -0.089689343562    -2.504792237186    -0.281333234032     1.007825032230
         H            3.785889656438    -0.480491237186     0.526377765968     1.007825032230
         H            2.432441656438    -1.009086237186     1.542493765968     1.007825032230
         H            2.565124656438     0.694156762814     1.051108765968     1.007825032230
         H           -1.743896343562     1.992383762814     0.234963765968     1.007825032230
         H           -2.531230343562    -2.121380237186     0.195889765968     1.007825032230
         H           -3.332480343562     0.252993762814     0.453980765968     1.007825032230

  Basis Set: AUG-CC-PVTZ
    Blend: AUG-CC-PVTZ
  Basis Set: (AUG-CC-PVTZ AUX)
    Blend: AUG-CC-PVTZ-JKFIT
	 Reference Energy          =    -399.7491048214279772 [Eh]
	 Singles Energy            =      -0.0000000000000000 [Eh]
	 Same-Spin Energy          =      -0.4244697404715287 [Eh]
	 Opposite-Spin Energy      =      -1.3413955652674825 [Eh]
	 Correlation Energy        =      -1.7658653057390112 [Eh]
	 Total Energy              =    -401.5149701271669755 [Eh]

	 ================> DF-SCS-MP2 Energies <==================
	-----------------------------------------------------------
	 SCS Same-Spin Scale       =       0.3333333333333333 [-]
	 SCS Opposite-Spin Scale   =       1.2000000000000000 [-]
	 SCS Same-Spin Energy      =      -0.1414899134905096 [Eh]
	 SCS Opposite-Spin Energy  =      -1.6096746783209790 [Eh]
	 SCS Correlation Energy    =      -1.7511645918114886 [Eh]
	 SCS Total Energy          =    -401.5002694132394936 [Eh]
	-----------------------------------------------------------

  Dipole Moment: [D]
     X:    -2.8981      Y:    -2.2989      Z:     0.4946     Total:     3.7320

*** Psi4 exiting successfully. Buy a developer a beer!
