                               Psi4 1.3.2 release

  ==> Input File <==

--------------------------------------------------------------------------
#psi4
#
memory 32 gb

molecule  {
0 1
  O        0.6058420     1.9734460    -0.2200840
  N       -1.4635990     1.0552220     0.1204360
  C        0.3766720    -0.4191730    -0.2885420
  C        1.8447340    -0.6003330    -0.5373460
  C       -0.0912220     0.9510960    -0.1351610
  C       -0.5056070    -1.4668030    -0.1721790
  C        2.6774180    -0.3153160     0.7169370
  C       -1.8875120    -1.2656950     0.0948440
  C       -2.3418770     0.0139190     0.2382100
  H        2.0261970    -1.6222750    -0.8897120
  H        2.1501830     0.0866220    -1.3340180
  H       -0.1325060    -2.4831380    -0.2931490
  H        3.7430730    -0.4588370     0.5145620
  H        2.3896250    -0.9874320     1.5306780
  H        2.5223080     0.7158110     1.0392930
  H       -1.7867130     2.0140380     0.2231480
  H       -2.5740470    -2.0997260     0.1840740
  H       -3.3752970     0.2746480     0.4421650
units angstrom
no_reorient  #important for SAPT in psi4, default
symmetry c1  #important for SAPT in psi4, default
}

set PROPERTIES_ORIGIN ["COM"]
properties('MP2/aug-cc-pvtz', properties = ['dipole'])
--------------------------------------------------------------------------

    Molecular point group: c1
  Charge       = 0
  Multiplicity = 1
  Basis Set: AUG-CC-PVTZ
    Blend: AUG-CC-PVTZ
  Basis Set: (AUG-CC-PVTZ AUX)
    Blend: AUG-CC-PVTZ-JKFIT

    Orbital Energies [Eh]
    ---------------------

    Doubly Occupied:

       1A    -20.509913     2A    -15.626059     3A    -11.352943
       4A    -11.309412     5A    -11.265930     6A    -11.244976
       7A    -11.242602     8A    -11.224097     9A    -11.205586
      10A     -1.370279    11A     -1.271246    12A     -1.117667
      13A     -1.055118    14A     -0.993570    15A     -0.888817
      16A     -0.868019    17A     -0.817828    18A     -0.737083
      19A     -0.702966    20A     -0.671947    21A     -0.625663
      22A     -0.612165    23A     -0.603006    24A     -0.590610
      25A     -0.564924    26A     -0.546244    27A     -0.514451
      28A     -0.495630    29A     -0.486196    30A     -0.474135
      31A     -0.422423    32A     -0.411298    33A     -0.306447

  @DF-RHF Final Energy:  -399.77947075302524

   => Energetics <=

    Nuclear Repulsion Energy =            432.6137195758016674
    One-Electron Energy =               -1400.5278841554390965
    Two-Electron Energy =                 568.1346938266121924
    Total Energy =                       -399.7794707530251799
  Basis Set: (AUG-CC-PVTZ AUX)
    Blend: AUG-CC-PVTZ-RI
    Molecular point group: c1

    Geometry (in Angstrom), charge = 0, multiplicity = 1:

       Center              X                  Y                   Z               Mass
    ------------   -----------------  -----------------  -----------------  -----------------
         O            0.645913734413     1.936736185667    -0.208671931443    15.994914619570
         N           -1.423527265587     1.018512185667     0.131848068557    14.003074004430
         C            0.416743734413    -0.455882814333    -0.277129931443    12.000000000000
         C            1.884805734413    -0.637042814333    -0.525933931443    12.000000000000
         C           -0.051150265587     0.914386185667    -0.123748931443    12.000000000000
         C           -0.465535265587    -1.503512814333    -0.160766931443    12.000000000000
         C            2.717489734413    -0.352025814333     0.728349068557    12.000000000000
         C           -1.847440265587    -1.302404814333     0.106256068557    12.000000000000
         C           -2.301805265587    -0.022790814333     0.249622068557    12.000000000000
         H            2.066268734413    -1.658984814333    -0.878299931443     1.007825032230
         H            2.190254734413     0.049912185667    -1.322605931443     1.007825032230
         H           -0.092434265587    -2.519847814333    -0.281736931443     1.007825032230
         H            3.783144734413    -0.495546814333     0.525974068557     1.007825032230
         H            2.429696734413    -1.024141814333     1.542090068557     1.007825032230
         H            2.562379734413     0.679101185667     1.050705068557     1.007825032230
         H           -1.746641265587     1.977328185667     0.234560068557     1.007825032230
         H           -2.533975265587    -2.136435814333     0.195486068557     1.007825032230
         H           -3.335225265587     0.237938185667     0.453577068557     1.007825032230

  Basis Set: AUG-CC-PVTZ
    Blend: AUG-CC-PVTZ
  Basis Set: (AUG-CC-PVTZ AUX)
    Blend: AUG-CC-PVTZ-JKFIT
	 Reference Energy          =    -399.7794707530252367 [Eh]
	 Singles Energy            =      -0.0000000000000000 [Eh]
	 Same-Spin Energy          =      -0.4240427136142992 [Eh]
	 Opposite-Spin Energy      =      -1.3399271192665707 [Eh]
	 Correlation Energy        =      -1.7639698328808699 [Eh]
	 Total Energy              =    -401.5434405859061258 [Eh]

	 ================> DF-SCS-MP2 Energies <==================
	-----------------------------------------------------------
	 SCS Same-Spin Scale       =       0.3333333333333333 [-]
	 SCS Opposite-Spin Scale   =       1.2000000000000000 [-]
	 SCS Same-Spin Energy      =      -0.1413475712047664 [Eh]
	 SCS Opposite-Spin Energy  =      -1.6079125431198849 [Eh]
	 SCS Correlation Energy    =      -1.7492601143246513 [Eh]
	 SCS Total Energy          =    -401.5287308673499069 [Eh]
	-----------------------------------------------------------

  Dipole Moment: [D]
     X:    -2.9334      Y:    -2.2426      Z:     0.4775     Total:     3.7232

*** Psi4 exiting successfully. Buy a developer a beer!
