                               Psi4 1.3.2 release

  ==> Input File <==

--------------------------------------------------------------------------
#psi4
#
memory 32 gb

molecule  {
0 1
  O        0.6058420     1.9734460    -0.2200840
  N       -1.4635990     1.0552220     0.1204360
  C        0.3766720    -0.4191730    -0.2885420
  C        1.8447340    -0.6003330    -0.5373460
  C       -0.0894637     0.9754548    -0.1344760
  C       -0.5056070    -1.4668030    -0.1721790
  C        2.6774180    -0.3153160     0.7169370
  C       -1.8875120    -1.2656950     0.0948440
  C       -2.3418770     0.0139190     0.2382100
  H        2.0261970    -1.6222750    -0.8897120
  H        2.1501830     0.0866220    -1.3340180
  H       -0.1325060    -2.4831380    -0.2931490
  H        3.7430730    -0.4588370     0.5145620
  H        2.3896250    -0.9874320     1.5306780
  H        2.5223080     0.7158110     1.0392930
  H       -1.7867130     2.0140380     0.2231480
  H       -2.5740470    -2.0997260     0.1840740
  H       -3.3752970     0.2746480     0.4421650
units angstrom
no_reorient  #important for SAPT in psi4, default
symmetry c1  #important for SAPT in psi4, default
}

set PROPERTIES_ORIGIN ["COM"]
properties('MP2/aug-cc-pvtz', properties = ['dipole'])
--------------------------------------------------------------------------

    Molecular point group: c1
  Charge       = 0
  Multiplicity = 1
  Basis Set: AUG-CC-PVTZ
    Blend: AUG-CC-PVTZ
  Basis Set: (AUG-CC-PVTZ AUX)
    Blend: AUG-CC-PVTZ-JKFIT

    Orbital Energies [Eh]
    ---------------------

    Doubly Occupied:

       1A    -20.514926     2A    -15.623738     3A    -11.353740
       4A    -11.307482     5A    -11.262931     6A    -11.245268
       7A    -11.240921     8A    -11.223679     9A    -11.205845
      10A     -1.382985    11A     -1.273563    12A     -1.114732
      13A     -1.054000    14A     -0.991879    15A     -0.886766
      16A     -0.865135    17A     -0.817259    18A     -0.734674
      19A     -0.701662    20A     -0.671379    21A     -0.626224
      22A     -0.616777    23A     -0.604715    24A     -0.589511
      25A     -0.565178    26A     -0.546884    27A     -0.514211
      28A     -0.497947    29A     -0.488478    30A     -0.477005
      31A     -0.423370    32A     -0.410047    33A     -0.304968

  @DF-RHF Final Energy:  -399.78025323339290

   => Energetics <=

    Nuclear Repulsion Energy =            432.5382239498061381
    One-Electron Energy =               -1400.3611980334083000
    Two-Electron Energy =                 568.0427208502093208
    Total Energy =                       -399.7802532333928411
  Basis Set: (AUG-CC-PVTZ AUX)
    Blend: AUG-CC-PVTZ-RI
    Molecular point group: c1

    Geometry (in Angstrom), charge = 0, multiplicity = 1:

       Center              X                  Y                   Z               Mass
    ------------   -----------------  -----------------  -----------------  -----------------
         O            0.645742288309     1.934361038457    -0.208738723560    15.994914619570
         N           -1.423698711691     1.016137038457     0.131781276440    14.003074004430
         C            0.416572288309    -0.458257961543    -0.277196723560    12.000000000000
         C            1.884634288309    -0.639417961543    -0.526000723560    12.000000000000
         C           -0.049563411691     0.936369838457    -0.123130723560    12.000000000000
         C           -0.465706711691    -1.505887961543    -0.160833723560    12.000000000000
         C            2.717318288309    -0.354400961543     0.728282276440    12.000000000000
         C           -1.847611711691    -1.304779961543     0.106189276440    12.000000000000
         C           -2.301976711691    -0.025165961543     0.249555276440    12.000000000000
         H            2.066097288309    -1.661359961543    -0.878366723560     1.007825032230
         H            2.190083288309     0.047537038457    -1.322672723560     1.007825032230
         H           -0.092605711691    -2.522222961543    -0.281803723560     1.007825032230
         H            3.782973288309    -0.497921961543     0.525907276440     1.007825032230
         H            2.429525288309    -1.026516961543     1.542023276440     1.007825032230
         H            2.562208288309     0.676726038457     1.050638276440     1.007825032230
         H           -1.746812711691     1.974953038457     0.234493276440     1.007825032230
         H           -2.534146711691    -2.138810961543     0.195419276440     1.007825032230
         H           -3.335396711691     0.235563038457     0.453510276440     1.007825032230

  Basis Set: AUG-CC-PVTZ
    Blend: AUG-CC-PVTZ
  Basis Set: (AUG-CC-PVTZ AUX)
    Blend: AUG-CC-PVTZ-JKFIT
	 Reference Energy          =    -399.7802532333928980 [Eh]
	 Singles Energy            =      -0.0000000000000000 [Eh]
	 Same-Spin Energy          =      -0.4234140034067724 [Eh]
	 Opposite-Spin Energy      =      -1.3390663605229010 [Eh]
	 Correlation Energy        =      -1.7624803639296733 [Eh]
	 Total Energy              =    -401.5427335973225809 [Eh]

	 ================> DF-SCS-MP2 Energies <==================
	-----------------------------------------------------------
	 SCS Same-Spin Scale       =       0.3333333333333333 [-]
	 SCS Opposite-Spin Scale   =       1.2000000000000000 [-]
	 SCS Same-Spin Energy      =      -0.1411380011355908 [Eh]
	 SCS Opposite-Spin Energy  =      -1.6068796326274810 [Eh]
	 SCS Correlation Energy    =      -1.7480176337630717 [Eh]
	 SCS Total Energy          =    -401.5282708671559817 [Eh]
	-----------------------------------------------------------

  Dipole Moment: [D]
     X:    -2.8336      Y:    -2.0819      Z:     0.4640     Total:     3.5466

*** Psi4 exiting successfully. Buy a developer a beer!
