                               Psi4 1.3.2 release

  ==> Input File <==

--------------------------------------------------------------------------
#psi4
#
memory 32 gb

molecule  {
0 1
  O        0.6058420     1.9734460    -0.2200840
  N       -1.4635990     1.0552220     0.1204360
  C        0.3766720    -0.4191730    -0.2885420
  C        1.8447340    -0.6003330    -0.5373460
  C       -0.0912220     0.9510960    -0.1351610
  C       -0.5056070    -1.4668030    -0.1721790
  C        2.6774180    -0.3153160     0.7169370
  C       -1.8875120    -1.2656950     0.0948440
  C       -2.3595020     0.0295080     0.2421881
  H        2.0261970    -1.6222750    -0.8897120
  H        2.1501830     0.0866220    -1.3340180
  H       -0.1325060    -2.4831380    -0.2931490
  H        3.7430730    -0.4588370     0.5145620
  H        2.3896250    -0.9874320     1.5306780
  H        2.5223080     0.7158110     1.0392930
  H       -1.7867130     2.0140380     0.2231480
  H       -2.5740470    -2.0997260     0.1840740
  H       -3.3752970     0.2746480     0.4421650
units angstrom
no_reorient  #important for SAPT in psi4, default
symmetry c1  #important for SAPT in psi4, default
}

set PROPERTIES_ORIGIN ["COM"]
properties('MP2/aug-cc-pvtz', properties = ['dipole'])
--------------------------------------------------------------------------

    Molecular point group: c1
  Charge       = 0
  Multiplicity = 1
  Basis Set: AUG-CC-PVTZ
    Blend: AUG-CC-PVTZ
  Basis Set: (AUG-CC-PVTZ AUX)
    Blend: AUG-CC-PVTZ-JKFIT

    Orbital Energies [Eh]
    ---------------------

    Doubly Occupied:

       1A    -20.509704     2A    -15.627278     3A    -11.353292
       4A    -11.311140     5A    -11.265972     6A    -11.245080
       7A    -11.244964     8A    -11.224055     9A    -11.205555
      10A     -1.370232    11A     -1.271191    12A     -1.116840
      13A     -1.052491    14A     -0.993911    15A     -0.889856
      16A     -0.867828    17A     -0.817602    18A     -0.738543
      19A     -0.704629    20A     -0.671735    21A     -0.626654
      22A     -0.611709    23A     -0.603863    24A     -0.589757
      25A     -0.566551    26A     -0.544360    27A     -0.514519
      28A     -0.495364    29A     -0.485918    30A     -0.473556
      31A     -0.422804    32A     -0.411047    33A     -0.304059

  @DF-RHF Final Energy:  -399.77760183152509

   => Energetics <=

    Nuclear Repulsion Energy =            432.2330888976082406
    One-Electron Energy =               -1399.7572605456900874
    Two-Electron Energy =                 567.7465698165567574
    Total Energy =                       -399.7776018315250894
  Basis Set: (AUG-CC-PVTZ AUX)
    Blend: AUG-CC-PVTZ-RI
    Molecular point group: c1

    Geometry (in Angstrom), charge = 0, multiplicity = 1:

       Center              X                  Y                   Z               Mass
    ------------   -----------------  -----------------  -----------------  -----------------
         O            0.647632290728     1.935216153077    -0.209059823010    15.994914619570
         N           -1.421808709272     1.016992153077     0.131460176990    14.003074004430
         C            0.418462290728    -0.457402846923    -0.277517823010    12.000000000000
         C            1.886524290728    -0.638562846923    -0.526321823010    12.000000000000
         C           -0.049431709272     0.912866153077    -0.124136823010    12.000000000000
         C           -0.463816709272    -1.505032846923    -0.161154823010    12.000000000000
         C            2.719208290728    -0.353545846923     0.727961176990    12.000000000000
         C           -1.845721709272    -1.303924846923     0.105868176990    12.000000000000
         C           -2.317711709272    -0.008721846923     0.253212276990    12.000000000000
         H            2.067987290728    -1.660504846923    -0.878687823010     1.007825032230
         H            2.191973290728     0.048392153077    -1.322993823010     1.007825032230
         H           -0.090715709272    -2.521367846923    -0.282124823010     1.007825032230
         H            3.784863290728    -0.497066846923     0.525586176990     1.007825032230
         H            2.431415290728    -1.025661846923     1.541702176990     1.007825032230
         H            2.564098290728     0.677581153077     1.050317176990     1.007825032230
         H           -1.744922709272     1.975808153077     0.234172176990     1.007825032230
         H           -2.532256709272    -2.137955846923     0.195098176990     1.007825032230
         H           -3.333506709272     0.236418153077     0.453189176990     1.007825032230

  Basis Set: AUG-CC-PVTZ
    Blend: AUG-CC-PVTZ
  Basis Set: (AUG-CC-PVTZ AUX)
    Blend: AUG-CC-PVTZ-JKFIT
	 Reference Energy          =    -399.7776018315250894 [Eh]
	 Singles Energy            =      -0.0000000000000000 [Eh]
	 Same-Spin Energy          =      -0.4244080911838499 [Eh]
	 Opposite-Spin Energy      =      -1.3405037776833746 [Eh]
	 Correlation Energy        =      -1.7649118688672245 [Eh]
	 Total Energy              =    -401.5425137003923055 [Eh]

	 ================> DF-SCS-MP2 Energies <==================
	-----------------------------------------------------------
	 SCS Same-Spin Scale       =       0.3333333333333333 [-]
	 SCS Opposite-Spin Scale   =       1.2000000000000000 [-]
	 SCS Same-Spin Energy      =      -0.1414693637279500 [Eh]
	 SCS Opposite-Spin Energy  =      -1.6086045332200494 [Eh]
	 SCS Correlation Energy    =      -1.7500738969479994 [Eh]
	 SCS Total Energy          =    -401.5276757284730706 [Eh]
	-----------------------------------------------------------

  Dipole Moment: [D]
     X:    -2.9464      Y:    -2.2326      Z:     0.4813     Total:     3.7279

*** Psi4 exiting successfully. Buy a developer a beer!
