                               Psi4 1.3.2 release

  ==> Input File <==

--------------------------------------------------------------------------
#psi4
#
memory 32 gb

molecule  {
0 1
  O        0.6058420     1.9734460    -0.2200840
  N       -1.4635990     1.0552220     0.1204360
  C        0.3766720    -0.4191730    -0.2885420
  C        1.8447340    -0.6003330    -0.5373460
  C       -0.0912220     0.9510960    -0.1351610
  C       -0.5056070    -1.4668030    -0.1721790
  C        2.6774180    -0.3153160     0.7169370
  C       -1.8875120    -1.2656950     0.0948440
  C       -2.4061107    -0.0622377     0.2468235
  H        2.0261970    -1.6222750    -0.8897120
  H        2.1501830     0.0866220    -1.3340180
  H       -0.1325060    -2.4831380    -0.2931490
  H        3.7430730    -0.4588370     0.5145620
  H        2.3896250    -0.9874320     1.5306780
  H        2.5223080     0.7158110     1.0392930
  H       -1.7867130     2.0140380     0.2231480
  H       -2.5740470    -2.0997260     0.1840740
  H       -3.3752970     0.2746480     0.4421650
units angstrom
no_reorient  #important for SAPT in psi4, default
symmetry c1  #important for SAPT in psi4, default
}

set PROPERTIES_ORIGIN ["COM"]
properties('MP2/aug-cc-pvtz', properties = ['dipole'])
--------------------------------------------------------------------------

    Molecular point group: c1
  Charge       = 0
  Multiplicity = 1
  Basis Set: AUG-CC-PVTZ
    Blend: AUG-CC-PVTZ
  Basis Set: (AUG-CC-PVTZ AUX)
    Blend: AUG-CC-PVTZ-JKFIT

    Orbital Energies [Eh]
    ---------------------

    Doubly Occupied:

       1A    -20.509258     2A    -15.613503     3A    -11.351492
       4A    -11.303638     5A    -11.267209     6A    -11.251428
       7A    -11.244609     8A    -11.226447     9A    -11.207553
      10A     -1.364820    11A     -1.243449    12A     -1.117585
      13A     -1.064338    14A     -0.996285    15A     -0.890851
      16A     -0.861411    17A     -0.814952    18A     -0.724691
      19A     -0.697933    20A     -0.680684    21A     -0.620968
      22A     -0.614898    23A     -0.596311    24A     -0.591945
      25A     -0.566940    26A     -0.542593    27A     -0.515089
      28A     -0.496750    29A     -0.486770    30A     -0.474411
      31A     -0.421089    32A     -0.406643    33A     -0.318749

  @DF-RHF Final Energy:  -399.76892258724649

   => Energetics <=

    Nuclear Repulsion Energy =            431.3729555242608740
    One-Electron Energy =               -1398.1131720452017362
    Two-Electron Energy =                 566.9712939336943691
    Total Energy =                       -399.7689225872464931
  Basis Set: (AUG-CC-PVTZ AUX)
    Blend: AUG-CC-PVTZ-RI
    Molecular point group: c1

    Geometry (in Angstrom), charge = 0, multiplicity = 1:

       Center              X                  Y                   Z               Mass
    ------------   -----------------  -----------------  -----------------  -----------------
         O            0.652176953182     1.944161977314    -0.209511805759    15.994914619570
         N           -1.417264046818     1.025937977314     0.131008194241    14.003074004430
         C            0.423006953182    -0.448457022686    -0.277969805759    12.000000000000
         C            1.891068953182    -0.629617022686    -0.526773805759    12.000000000000
         C           -0.044887046818     0.921811977314    -0.124588805759    12.000000000000
         C           -0.459272046818    -1.496087022686    -0.161606805759    12.000000000000
         C            2.723752953182    -0.344600022686     0.727509194241    12.000000000000
         C           -1.841177046818    -1.294979022686     0.105416194241    12.000000000000
         C           -2.359775746818    -0.091521722686     0.257395694241    12.000000000000
         H            2.072531953182    -1.651559022686    -0.879139805759     1.007825032230
         H            2.196517953182     0.057337977314    -1.323445805759     1.007825032230
         H           -0.086171046818    -2.512422022686    -0.282576805759     1.007825032230
         H            3.789407953182    -0.488121022686     0.525134194241     1.007825032230
         H            2.435959953182    -1.016716022686     1.541250194241     1.007825032230
         H            2.568642953182     0.686526977314     1.049865194241     1.007825032230
         H           -1.740378046818     1.984753977314     0.233720194241     1.007825032230
         H           -2.527712046818    -2.129010022686     0.194646194241     1.007825032230
         H           -3.328962046818     0.245363977314     0.452737194241     1.007825032230

  Basis Set: AUG-CC-PVTZ
    Blend: AUG-CC-PVTZ
  Basis Set: (AUG-CC-PVTZ AUX)
    Blend: AUG-CC-PVTZ-JKFIT
	 Reference Energy          =    -399.7689225872464931 [Eh]
	 Singles Energy            =      -0.0000000000000000 [Eh]
	 Same-Spin Energy          =      -0.4228164174057121 [Eh]
	 Opposite-Spin Energy      =      -1.3403626371548034 [Eh]
	 Correlation Energy        =      -1.7631790545605155 [Eh]
	 Total Energy              =    -401.5321016418070030 [Eh]

	 ================> DF-SCS-MP2 Energies <==================
	-----------------------------------------------------------
	 SCS Same-Spin Scale       =       0.3333333333333333 [-]
	 SCS Opposite-Spin Scale   =       1.2000000000000000 [-]
	 SCS Same-Spin Energy      =      -0.1409388058019040 [Eh]
	 SCS Opposite-Spin Energy  =      -1.6084351645857640 [Eh]
	 SCS Correlation Energy    =      -1.7493739703876681 [Eh]
	 SCS Total Energy          =    -401.5182965576341871 [Eh]
	-----------------------------------------------------------

  Dipole Moment: [D]
     X:    -2.8790      Y:    -2.4981      Z:     0.4646     Total:     3.8399

*** Psi4 exiting successfully. Buy a developer a beer!
