                               Psi4 1.3.2 release

  ==> Input File <==

--------------------------------------------------------------------------
#psi4
#
memory 32 gb

molecule  {
0 1
  O        0.6058420     1.9734460    -0.2200840
  N       -1.4635990     1.0552220     0.1204360
  C        0.3766720    -0.4191730    -0.2885420
  C        1.8172829    -0.7549199    -0.5372237
  C       -0.0912220     0.9510960    -0.1351610
  C       -0.5056070    -1.4668030    -0.1721790
  C        2.6774180    -0.3153160     0.7169370
  C       -1.8875120    -1.2656950     0.0948440
  C       -2.3418770     0.0139190     0.2382100
  H        2.0261970    -1.6222750    -0.8897120
  H        2.1501830     0.0866220    -1.3340180
  H       -0.1325060    -2.4831380    -0.2931490
  H        3.7430730    -0.4588370     0.5145620
  H        2.3896250    -0.9874320     1.5306780
  H        2.5223080     0.7158110     1.0392930
  H       -1.7867130     2.0140380     0.2231480
  H       -2.5740470    -2.0997260     0.1840740
  H       -3.3752970     0.2746480     0.4421650
units angstrom
no_reorient  #important for SAPT in psi4, default
symmetry c1  #important for SAPT in psi4, default
}

set PROPERTIES_ORIGIN ["COM"]
properties('MP2/aug-cc-pvtz', properties = ['dipole'])
--------------------------------------------------------------------------

    Molecular point group: c1
  Charge       = 0
  Multiplicity = 1
  Basis Set: AUG-CC-PVTZ
    Blend: AUG-CC-PVTZ
  Basis Set: (AUG-CC-PVTZ AUX)
    Blend: AUG-CC-PVTZ-JKFIT

    Orbital Energies [Eh]
    ---------------------

    Doubly Occupied:

       1A    -20.510550     2A    -15.627254     3A    -11.356204
       4A    -11.308442     5A    -11.263297     6A    -11.247243
       7A    -11.241663     8A    -11.225792     9A    -11.209514
      10A     -1.370743    11A     -1.271722    12A     -1.118696
      13A     -1.053350    14A     -0.989600    15A     -0.886096
      16A     -0.874150    17A     -0.823746    18A     -0.742031
      19A     -0.702693    20A     -0.672863    21A     -0.628084
      22A     -0.611105    23A     -0.605106    24A     -0.594063
      25A     -0.562169    26A     -0.548910    27A     -0.524220
      28A     -0.495807    29A     -0.480787    30A     -0.461356
      31A     -0.424826    32A     -0.404706    33A     -0.304225

  @DF-RHF Final Energy:  -399.74923841020382

   => Energetics <=

    Nuclear Repulsion Energy =            431.9524130881375186
    One-Electron Energy =               -1399.1212778200817866
    Two-Electron Energy =                 567.4196263217404521
    Total Energy =                       -399.7492384102038159
  Basis Set: (AUG-CC-PVTZ AUX)
    Blend: AUG-CC-PVTZ-RI
    Molecular point group: c1

    Geometry (in Angstrom), charge = 0, multiplicity = 1:

       Center              X                  Y                   Z               Mass
    ------------   -----------------  -----------------  -----------------  -----------------
         O            0.648590401719     1.951809450537    -0.208683856517    15.994914619570
         N           -1.420850598281     1.033585450537     0.131836143483    14.003074004430
         C            0.419420401719    -0.440809549463    -0.277141856517    12.000000000000
         C            1.860031301719    -0.776556449463    -0.525823556517    12.000000000000
         C           -0.048473598281     0.929459450537    -0.123760856517    12.000000000000
         C           -0.462858598281    -1.488439549463    -0.160778856517    12.000000000000
         C            2.720166401719    -0.336952549463     0.728337143483    12.000000000000
         C           -1.844763598281    -1.287331549463     0.106244143483    12.000000000000
         C           -2.299128598281    -0.007717549463     0.249610143483    12.000000000000
         H            2.068945401719    -1.643911549463    -0.878311856517     1.007825032230
         H            2.192931401719     0.064985450537    -1.322617856517     1.007825032230
         H           -0.089757598281    -2.504774549463    -0.281748856517     1.007825032230
         H            3.785821401719    -0.480473549463     0.525962143483     1.007825032230
         H            2.432373401719    -1.009068549463     1.542078143483     1.007825032230
         H            2.565056401719     0.694174450537     1.050693143483     1.007825032230
         H           -1.743964598281     1.992401450537     0.234548143483     1.007825032230
         H           -2.531298598281    -2.121362549463     0.195474143483     1.007825032230
         H           -3.332548598281     0.253011450537     0.453565143483     1.007825032230

  Basis Set: AUG-CC-PVTZ
    Blend: AUG-CC-PVTZ
  Basis Set: (AUG-CC-PVTZ AUX)
    Blend: AUG-CC-PVTZ-JKFIT
	 Reference Energy          =    -399.7492384102038159 [Eh]
	 Singles Energy            =      -0.0000000000000000 [Eh]
	 Same-Spin Energy          =      -0.4244819202578300 [Eh]
	 Opposite-Spin Energy      =      -1.3414049870793034 [Eh]
	 Correlation Energy        =      -1.7658869073371335 [Eh]
	 Total Energy              =    -401.5151253175409352 [Eh]

	 ================> DF-SCS-MP2 Energies <==================
	-----------------------------------------------------------
	 SCS Same-Spin Scale       =       0.3333333333333333 [-]
	 SCS Opposite-Spin Scale   =       1.2000000000000000 [-]
	 SCS Same-Spin Energy      =      -0.1414939734192767 [Eh]
	 SCS Opposite-Spin Energy  =      -1.6096859844951641 [Eh]
	 SCS Correlation Energy    =      -1.7511799579144407 [Eh]
	 SCS Total Energy          =    -401.5004183681182326 [Eh]
	-----------------------------------------------------------

  Dipole Moment: [D]
     X:    -2.8996      Y:    -2.2992      Z:     0.4969     Total:     3.7338

*** Psi4 exiting successfully. Buy a developer a beer!
