                               Psi4 1.3.2 release

  ==> Input File <==

--------------------------------------------------------------------------
#psi4
#
memory 32 gb

molecule  {
0 1
  O        0.6058420     1.9734460    -0.2200840
  N       -1.4635990     1.0552220     0.1204360
  C        0.3766720    -0.4191730    -0.2885420
  C        1.8447340    -0.6003330    -0.5373460
  C       -0.0912220     0.9510960    -0.1351610
  C       -0.5056070    -1.4668030    -0.1721790
  C        2.6774180    -0.3153160     0.7169370
  C       -1.8875120    -1.2656950     0.0948440
  C       -2.2687565    -0.0452192     0.2219513
  H        2.0261970    -1.6222750    -0.8897120
  H        2.1501830     0.0866220    -1.3340180
  H       -0.1325060    -2.4831380    -0.2931490
  H        3.7430730    -0.4588370     0.5145620
  H        2.3896250    -0.9874320     1.5306780
  H        2.5223080     0.7158110     1.0392930
  H       -1.7867130     2.0140380     0.2231480
  H       -2.5740470    -2.0997260     0.1840740
  H       -3.3752970     0.2746480     0.4421650
units angstrom
no_reorient  #important for SAPT in psi4, default
symmetry c1  #important for SAPT in psi4, default
}

set PROPERTIES_ORIGIN ["COM"]
properties('MP2/aug-cc-pvtz', properties = ['dipole'])
--------------------------------------------------------------------------

    Molecular point group: c1
  Charge       = 0
  Multiplicity = 1
  Basis Set: AUG-CC-PVTZ
    Blend: AUG-CC-PVTZ
  Basis Set: (AUG-CC-PVTZ AUX)
    Blend: AUG-CC-PVTZ-JKFIT

    Orbital Energies [Eh]
    ---------------------

    Doubly Occupied:

       1A    -20.510864     2A    -15.622318     3A    -11.351760
       4A    -11.303166     5A    -11.266144     6A    -11.245237
       7A    -11.232863     8A    -11.224439     9A    -11.205838
      10A     -1.370761    11A     -1.272332    12A     -1.123195
      13A     -1.066354    14A     -0.992895    15A     -0.886791
      16A     -0.866980    17A     -0.819045    18A     -0.735568
      19A     -0.703160    20A     -0.669487    21A     -0.625479
      22A     -0.613686    23A     -0.597497    24A     -0.592903
      25A     -0.553956    26A     -0.550808    27A     -0.513884
      28A     -0.497355    29A     -0.487798    30A     -0.476412
      31A     -0.420527    32A     -0.412838    33A     -0.316003

  @DF-RHF Final Energy:  -399.76908779290352

   => Energetics <=

    Nuclear Repulsion Energy =            434.2331844881329062
    One-Electron Energy =               -1403.7478592039251453
    Two-Electron Energy =                 569.7455869228887195
    Total Energy =                       -399.7690877929035196
  Basis Set: (AUG-CC-PVTZ AUX)
    Blend: AUG-CC-PVTZ-RI
    Molecular point group: c1

    Geometry (in Angstrom), charge = 0, multiplicity = 1:

       Center              X                  Y                   Z               Mass
    ------------   -----------------  -----------------  -----------------  -----------------
         O            0.638783992734     1.942502558837    -0.207086598588    15.994914619570
         N           -1.430657007266     1.024278558837     0.133433401412    14.003074004430
         C            0.409613992734    -0.450116441163    -0.275544598588    12.000000000000
         C            1.877675992734    -0.631276441163    -0.524348598588    12.000000000000
         C           -0.058280007266     0.920152558837    -0.122163598588    12.000000000000
         C           -0.472665007266    -1.497746441163    -0.159181598588    12.000000000000
         C            2.710359992734    -0.346259441163     0.729934401412    12.000000000000
         C           -1.854570007266    -1.296638441163     0.107841401412    12.000000000000
         C           -2.235814507266    -0.076162641163     0.234948701412    12.000000000000
         H            2.059138992734    -1.653218441163    -0.876714598588     1.007825032230
         H            2.183124992734     0.055678558837    -1.321020598588     1.007825032230
         H           -0.099564007266    -2.514081441163    -0.280151598588     1.007825032230
         H            3.776014992734    -0.489780441163     0.527559401412     1.007825032230
         H            2.422566992734    -1.018375441163     1.543675401412     1.007825032230
         H            2.555249992734     0.684867558837     1.052290401412     1.007825032230
         H           -1.753771007266     1.983094558837     0.236145401412     1.007825032230
         H           -2.541105007266    -2.130669441163     0.197071401412     1.007825032230
         H           -3.342355007266     0.243704558837     0.455162401412     1.007825032230

  Basis Set: AUG-CC-PVTZ
    Blend: AUG-CC-PVTZ
  Basis Set: (AUG-CC-PVTZ AUX)
    Blend: AUG-CC-PVTZ-JKFIT
	 Reference Energy          =    -399.7690877929035196 [Eh]
	 Singles Energy            =      -0.0000000000000000 [Eh]
	 Same-Spin Energy          =      -0.4230151264311403 [Eh]
	 Opposite-Spin Energy      =      -1.3386678759617996 [Eh]
	 Correlation Energy        =      -1.7616830023929397 [Eh]
	 Total Energy              =    -401.5307707952964620 [Eh]

	 ================> DF-SCS-MP2 Energies <==================
	-----------------------------------------------------------
	 SCS Same-Spin Scale       =       0.3333333333333333 [-]
	 SCS Opposite-Spin Scale   =       1.2000000000000000 [-]
	 SCS Same-Spin Energy      =      -0.1410050421437134 [Eh]
	 SCS Opposite-Spin Energy  =      -1.6064014511541596 [Eh]
	 SCS Correlation Energy    =      -1.7474064932978730 [Eh]
	 SCS Total Energy          =    -401.5164942862014072 [Eh]
	-----------------------------------------------------------

  Dipole Moment: [D]
     X:    -2.8357      Y:    -2.2991      Z:     0.4538     Total:     3.6788

*** Psi4 exiting successfully. Buy a developer a beer!
