                               Psi4 1.3.2 release

  ==> Input File <==

--------------------------------------------------------------------------
#psi4
#
memory 32 gb

molecule  {
0 1
  O        0.6058420     1.9734460    -0.2200840
  N       -1.4635990     1.0552220     0.1204360
  C        0.3766720    -0.4191730    -0.2885420
  C        1.8447340    -0.6003330    -0.5373460
  C       -0.0912220     0.9510960    -0.1351610
  C       -0.5056070    -1.4668030    -0.1721790
  C        2.6774180    -0.3153160     0.7169370
  C       -1.8875120    -1.2656950     0.0948440
  C       -2.3239844    -0.0013529     0.2341961
  H        2.0261970    -1.6222750    -0.8897120
  H        2.1501830     0.0866220    -1.3340180
  H       -0.1325060    -2.4831380    -0.2931490
  H        3.7430730    -0.4588370     0.5145620
  H        2.3896250    -0.9874320     1.5306780
  H        2.5223080     0.7158110     1.0392930
  H       -1.7867130     2.0140380     0.2231480
  H       -2.5740470    -2.0997260     0.1840740
  H       -3.3752970     0.2746480     0.4421650
units angstrom
no_reorient  #important for SAPT in psi4, default
symmetry c1  #important for SAPT in psi4, default
}

set PROPERTIES_ORIGIN ["COM"]
properties('MP2/aug-cc-pvtz', properties = ['dipole'])
--------------------------------------------------------------------------

    Molecular point group: c1
  Charge       = 0
  Multiplicity = 1
  Basis Set: AUG-CC-PVTZ
    Blend: AUG-CC-PVTZ
  Basis Set: (AUG-CC-PVTZ AUX)
    Blend: AUG-CC-PVTZ-JKFIT

    Orbital Energies [Eh]
    ---------------------

    Doubly Occupied:

       1A    -20.510132     2A    -15.624950     3A    -11.352612
       4A    -11.307739     5A    -11.265920     6A    -11.245003
       7A    -11.240128     8A    -11.224154     9A    -11.205629
      10A     -1.370352    11A     -1.271382    12A     -1.118682
      13A     -1.057856    14A     -0.993307    15A     -0.887985
      16A     -0.868037    17A     -0.818083    18A     -0.736161
      19A     -0.701978    20A     -0.671710    21A     -0.625014
      22A     -0.612554    23A     -0.601865    24A     -0.591361
      25A     -0.562836    26A     -0.547917    27A     -0.514368
      28A     -0.495947    29A     -0.486524    30A     -0.474725
      31A     -0.422010    32A     -0.411599    33A     -0.308842

  @DF-RHF Final Energy:  -399.77956581279386

   => Energetics <=

    Nuclear Repulsion Energy =            433.0042149764447004
    One-Electron Energy =               -1401.3128374023622200
    Two-Electron Energy =                 568.5290566131236574
    Total Energy =                       -399.7795658127938623
  Basis Set: (AUG-CC-PVTZ AUX)
    Blend: AUG-CC-PVTZ-RI
    Molecular point group: c1

    Geometry (in Angstrom), charge = 0, multiplicity = 1:

       Center              X                  Y                   Z               Mass
    ------------   -----------------  -----------------  -----------------  -----------------
         O            0.644169085293     1.938225298870    -0.208280549134    15.994914619570
         N           -1.425271914707     1.020001298870     0.132239450866    14.003074004430
         C            0.414999085293    -0.454393701130    -0.276738549134    12.000000000000
         C            1.883061085293    -0.635553701130    -0.525542549134    12.000000000000
         C           -0.052894914707     0.915875298870    -0.123357549134    12.000000000000
         C           -0.467279914707    -1.502023701130    -0.160375549134    12.000000000000
         C            2.715745085293    -0.350536701130     0.728740450866    12.000000000000
         C           -1.849184914707    -1.300915701130     0.106647450866    12.000000000000
         C           -2.285657314707    -0.036573601130     0.245999550866    12.000000000000
         H            2.064524085293    -1.657495701130    -0.877908549134     1.007825032230
         H            2.188510085293     0.051401298870    -1.322214549134     1.007825032230
         H           -0.094178914707    -2.518358701130    -0.281345549134     1.007825032230
         H            3.781400085293    -0.494057701130     0.526365450866     1.007825032230
         H            2.427952085293    -1.022652701130     1.542481450866     1.007825032230
         H            2.560635085293     0.680590298870     1.051096450866     1.007825032230
         H           -1.748385914707     1.978817298870     0.234951450866     1.007825032230
         H           -2.535719914707    -2.134946701130     0.195877450866     1.007825032230
         H           -3.336969914707     0.239427298870     0.453968450866     1.007825032230

  Basis Set: AUG-CC-PVTZ
    Blend: AUG-CC-PVTZ
  Basis Set: (AUG-CC-PVTZ AUX)
    Blend: AUG-CC-PVTZ-JKFIT
	 Reference Energy          =    -399.7795658127938623 [Eh]
	 Singles Energy            =      -0.0000000000000000 [Eh]
	 Same-Spin Energy          =      -0.4237201652606571 [Eh]
	 Opposite-Spin Energy      =      -1.3394571300195355 [Eh]
	 Correlation Energy        =      -1.7631772952801925 [Eh]
	 Total Energy              =    -401.5427431080740348 [Eh]

	 ================> DF-SCS-MP2 Energies <==================
	-----------------------------------------------------------
	 SCS Same-Spin Scale       =       0.3333333333333333 [-]
	 SCS Opposite-Spin Scale   =       1.2000000000000000 [-]
	 SCS Same-Spin Energy      =      -0.1412400550868857 [Eh]
	 SCS Opposite-Spin Energy  =      -1.6073485560234426 [Eh]
	 SCS Correlation Energy    =      -1.7485886111103284 [Eh]
	 SCS Total Energy          =    -401.5281544239041978 [Eh]
	-----------------------------------------------------------

  Dipole Moment: [D]
     X:    -2.9160      Y:    -2.2543      Z:     0.4728     Total:     3.7160

*** Psi4 exiting successfully. Buy a developer a beer!
