                               Psi4 1.3.2 release

  ==> Input File <==

--------------------------------------------------------------------------
#psi4
#
memory 32 gb

molecule  {
0 1
  O        0.6058420     1.9734460    -0.2200840
  N       -1.4635990     1.0552220     0.1204360
  C        0.3601967    -0.4456869    -0.3884770
  C        1.8447340    -0.6003330    -0.5373460
  C       -0.0912220     0.9510960    -0.1351610
  C       -0.5056070    -1.4668030    -0.1721790
  C        2.6774180    -0.3153160     0.7169370
  C       -1.8875120    -1.2656950     0.0948440
  C       -2.3418770     0.0139190     0.2382100
  H        2.0261970    -1.6222750    -0.8897120
  H        2.1501830     0.0866220    -1.3340180
  H       -0.1325060    -2.4831380    -0.2931490
  H        3.7430730    -0.4588370     0.5145620
  H        2.3896250    -0.9874320     1.5306780
  H        2.5223080     0.7158110     1.0392930
  H       -1.7867130     2.0140380     0.2231480
  H       -2.5740470    -2.0997260     0.1840740
  H       -3.3752970     0.2746480     0.4421650
units angstrom
no_reorient  #important for SAPT in psi4, default
symmetry c1  #important for SAPT in psi4, default
}

set PROPERTIES_ORIGIN ["COM"]
properties('MP2/aug-cc-pvtz', properties = ['dipole'])
--------------------------------------------------------------------------

    Molecular point group: c1
  Charge       = 0
  Multiplicity = 1
  Basis Set: AUG-CC-PVTZ
    Blend: AUG-CC-PVTZ
  Basis Set: (AUG-CC-PVTZ AUX)
    Blend: AUG-CC-PVTZ-JKFIT

    Orbital Energies [Eh]
    ---------------------

    Doubly Occupied:

       1A    -20.513478     2A    -15.624958     3A    -11.356401
       4A    -11.308754     5A    -11.262237     6A    -11.245856
       7A    -11.241860     8A    -11.224167     9A    -11.207662
      10A     -1.371168    11A     -1.271223    12A     -1.118688
      13A     -1.053639    14A     -0.993372    15A     -0.887993
      16A     -0.866121    17A     -0.819538    18A     -0.735166
      19A     -0.701605    20A     -0.671209    21A     -0.624683
      22A     -0.613057    23A     -0.602133    24A     -0.589167
      25A     -0.565346    26A     -0.543949    27A     -0.520009
      28A     -0.494241    29A     -0.486434    30A     -0.475758
      31A     -0.420837    32A     -0.413042    33A     -0.307517

  @DF-RHF Final Energy:  -399.77574148578708

   => Energetics <=

    Nuclear Repulsion Energy =            432.0895573186942897
    One-Electron Energy =               -1399.4680623238486987
    Two-Electron Energy =                 567.6027635193673859
    Total Energy =                       -399.7757414857870799
  Basis Set: (AUG-CC-PVTZ AUX)
    Blend: AUG-CC-PVTZ-RI
    Molecular point group: c1

    Geometry (in Angstrom), charge = 0, multiplicity = 1:

       Center              X                  Y                   Z               Mass
    ------------   -----------------  -----------------  -----------------  -----------------
         O            0.647520187228     1.939321469656    -0.198927595249    15.994914619570
         N           -1.421920812772     1.021097469656     0.141592404751    14.003074004430
         C            0.401874887228    -0.479811430344    -0.367320595249    12.000000000000
         C            1.886412187228    -0.634457530344    -0.516189595249    12.000000000000
         C           -0.049543812772     0.916971469656    -0.114004595249    12.000000000000
         C           -0.463928812772    -1.500927530344    -0.151022595249    12.000000000000
         C            2.719096187228    -0.349440530344     0.738093404751    12.000000000000
         C           -1.845833812772    -1.299819530344     0.116000404751    12.000000000000
         C           -2.300198812772    -0.020205530344     0.259366404751    12.000000000000
         H            2.067875187228    -1.656399530344    -0.868555595249     1.007825032230
         H            2.191861187228     0.052497469656    -1.312861595249     1.007825032230
         H           -0.090827812772    -2.517262530344    -0.271992595249     1.007825032230
         H            3.784751187228    -0.492961530344     0.535718404751     1.007825032230
         H            2.431303187228    -1.021556530344     1.551834404751     1.007825032230
         H            2.563986187228     0.681686469656     1.060449404751     1.007825032230
         H           -1.745034812772     1.979913469656     0.244304404751     1.007825032230
         H           -2.532368812772    -2.133850530344     0.205230404751     1.007825032230
         H           -3.333618812772     0.240523469656     0.463321404751     1.007825032230

  Basis Set: AUG-CC-PVTZ
    Blend: AUG-CC-PVTZ
  Basis Set: (AUG-CC-PVTZ AUX)
    Blend: AUG-CC-PVTZ-JKFIT
	 Reference Energy          =    -399.7757414857870799 [Eh]
	 Singles Energy            =      -0.0000000000000000 [Eh]
	 Same-Spin Energy          =      -0.4235249512057663 [Eh]
	 Opposite-Spin Energy      =      -1.3396524393122635 [Eh]
	 Correlation Energy        =      -1.7631773905180297 [Eh]
	 Total Energy              =    -401.5389188763051038 [Eh]

	 ================> DF-SCS-MP2 Energies <==================
	-----------------------------------------------------------
	 SCS Same-Spin Scale       =       0.3333333333333333 [-]
	 SCS Opposite-Spin Scale   =       1.2000000000000000 [-]
	 SCS Same-Spin Energy      =      -0.1411749837352554 [Eh]
	 SCS Opposite-Spin Energy  =      -1.6075829271747162 [Eh]
	 SCS Correlation Energy    =      -1.7487579109099716 [Eh]
	 SCS Total Energy          =    -401.5244993966970242 [Eh]
	-----------------------------------------------------------

  Dipole Moment: [D]
     X:    -2.8850      Y:    -2.1507      Z:     0.5191     Total:     3.6357

*** Psi4 exiting successfully. Buy a developer a beer!
