                               Psi4 1.3.2 release

  ==> Input File <==

--------------------------------------------------------------------------
#psi4
#
memory 32 gb

molecule  {
0 1
  O        0.6058420     1.9734460    -0.2200840
  N       -1.4635990     1.0552220     0.1204360
  C        0.3777846    -0.4375752    -0.2699551
  C        1.8447340    -0.6003330    -0.5373460
  C       -0.0912220     0.9510960    -0.1351610
  C       -0.5056070    -1.4668030    -0.1721790
  C        2.6774180    -0.3153160     0.7169370
  C       -1.8875120    -1.2656950     0.0948440
  C       -2.3418770     0.0139190     0.2382100
  H        2.0261970    -1.6222750    -0.8897120
  H        2.1501830     0.0866220    -1.3340180
  H       -0.1325060    -2.4831380    -0.2931490
  H        3.7430730    -0.4588370     0.5145620
  H        2.3896250    -0.9874320     1.5306780
  H        2.5223080     0.7158110     1.0392930
  H       -1.7867130     2.0140380     0.2231480
  H       -2.5740470    -2.0997260     0.1840740
  H       -3.3752970     0.2746480     0.4421650
units angstrom
no_reorient  #important for SAPT in psi4, default
symmetry c1  #important for SAPT in psi4, default
}

set PROPERTIES_ORIGIN ["COM"]
properties('MP2/aug-cc-pvtz', properties = ['dipole'])
--------------------------------------------------------------------------

    Molecular point group: c1
  Charge       = 0
  Multiplicity = 1
  Basis Set: AUG-CC-PVTZ
    Blend: AUG-CC-PVTZ
  Basis Set: (AUG-CC-PVTZ AUX)
    Blend: AUG-CC-PVTZ-JKFIT

    Orbital Energies [Eh]
    ---------------------

    Doubly Occupied:

       1A    -20.512008     2A    -15.625304     3A    -11.354940
       4A    -11.308446     5A    -11.262914     6A    -11.245052
       7A    -11.242045     8A    -11.224384     9A    -11.205683
      10A     -1.370877    11A     -1.271187    12A     -1.119036
      13A     -1.054563    14A     -0.993779    15A     -0.887130
      16A     -0.867476    17A     -0.818524    18A     -0.736261
      19A     -0.702662    20A     -0.671718    21A     -0.626651
      22A     -0.612373    23A     -0.603171    24A     -0.589970
      25A     -0.565908    26A     -0.545184    27A     -0.514244
      28A     -0.495579    29A     -0.487904    30A     -0.474562
      31A     -0.422078    32A     -0.412779    33A     -0.307069

  @DF-RHF Final Energy:  -399.77963033395366

   => Energetics <=

    Nuclear Repulsion Energy =            432.5734888920083563
    One-Electron Energy =               -1400.4433165312350411
    Two-Electron Energy =                 568.0901973052730227
    Total Energy =                       -399.7796303339537189
  Basis Set: (AUG-CC-PVTZ AUX)
    Blend: AUG-CC-PVTZ-RI
    Molecular point group: c1

    Geometry (in Angstrom), charge = 0, multiplicity = 1:

       Center              X                  Y                   Z               Mass
    ------------   -----------------  -----------------  -----------------  -----------------
         O            0.645805248412     1.938530524222    -0.210484279493    15.994914619570
         N           -1.423635751588     1.020306524222     0.130035720507    14.003074004430
         C            0.417747848412    -0.472490675778    -0.260355379493    12.000000000000
         C            1.884697248412    -0.635248475778    -0.527746279493    12.000000000000
         C           -0.051258751588     0.916180524222    -0.125561279493    12.000000000000
         C           -0.465643751588    -1.501718475778    -0.162579279493    12.000000000000
         C            2.717381248412    -0.350231475778     0.726536720507    12.000000000000
         C           -1.847548751588    -1.300610475778     0.104443720507    12.000000000000
         C           -2.301913751588    -0.020996475778     0.247809720507    12.000000000000
         H            2.066160248412    -1.657190475778    -0.880112279493     1.007825032230
         H            2.190146248412     0.051706524222    -1.324418279493     1.007825032230
         H           -0.092542751588    -2.518053475778    -0.283549279493     1.007825032230
         H            3.783036248412    -0.493752475778     0.524161720507     1.007825032230
         H            2.429588248412    -1.022347475778     1.540277720507     1.007825032230
         H            2.562271248412     0.680895524222     1.048892720507     1.007825032230
         H           -1.746749751588     1.979122524222     0.232747720507     1.007825032230
         H           -2.534083751588    -2.134641475778     0.193673720507     1.007825032230
         H           -3.335333751588     0.239732524222     0.451764720507     1.007825032230

  Basis Set: AUG-CC-PVTZ
    Blend: AUG-CC-PVTZ
  Basis Set: (AUG-CC-PVTZ AUX)
    Blend: AUG-CC-PVTZ-JKFIT
	 Reference Energy          =    -399.7796303339536621 [Eh]
	 Singles Energy            =      -0.0000000000000000 [Eh]
	 Same-Spin Energy          =      -0.4237005365635238 [Eh]
	 Opposite-Spin Energy      =      -1.3396352408308370 [Eh]
	 Correlation Energy        =      -1.7633357773943608 [Eh]
	 Total Energy              =    -401.5429661113480506 [Eh]

	 ================> DF-SCS-MP2 Energies <==================
	-----------------------------------------------------------
	 SCS Same-Spin Scale       =       0.3333333333333333 [-]
	 SCS Opposite-Spin Scale   =       1.2000000000000000 [-]
	 SCS Same-Spin Energy      =      -0.1412335121878412 [Eh]
	 SCS Opposite-Spin Energy  =      -1.6075622889970043 [Eh]
	 SCS Correlation Energy    =      -1.7487958011848455 [Eh]
	 SCS Total Energy          =    -401.5284261351384885 [Eh]
	-----------------------------------------------------------

  Dipole Moment: [D]
     X:    -2.9061      Y:    -2.2000      Z:     0.4674     Total:     3.6747

*** Psi4 exiting successfully. Buy a developer a beer!
