                               Psi4 1.3.2 release

  ==> Input File <==

--------------------------------------------------------------------------
#psi4
#
memory 32 gb

molecule  {
0 1
  O        0.6058420     1.9734460    -0.2200840
  N       -1.4635990     1.0552220     0.1204360
  C        0.3766720    -0.4191730    -0.2885420
  C        1.8411530    -0.6262511    -0.5382269
  C       -0.0912220     0.9510960    -0.1351610
  C       -0.5056070    -1.4668030    -0.1721790
  C        2.6774180    -0.3153160     0.7169370
  C       -1.8875120    -1.2656950     0.0948440
  C       -2.3418770     0.0139190     0.2382100
  H        2.0261970    -1.6222750    -0.8897120
  H        2.1501830     0.0866220    -1.3340180
  H       -0.1325060    -2.4831380    -0.2931490
  H        3.7430730    -0.4588370     0.5145620
  H        2.3896250    -0.9874320     1.5306780
  H        2.5223080     0.7158110     1.0392930
  H       -1.7867130     2.0140380     0.2231480
  H       -2.5740470    -2.0997260     0.1840740
  H       -3.3752970     0.2746480     0.4421650
units angstrom
no_reorient  #important for SAPT in psi4, default
symmetry c1  #important for SAPT in psi4, default
}

set PROPERTIES_ORIGIN ["COM"]
properties('MP2/aug-cc-pvtz', properties = ['dipole'])
--------------------------------------------------------------------------

    Molecular point group: c1
  Charge       = 0
  Multiplicity = 1
  Basis Set: AUG-CC-PVTZ
    Blend: AUG-CC-PVTZ
  Basis Set: (AUG-CC-PVTZ AUX)
    Blend: AUG-CC-PVTZ-JKFIT

    Orbital Energies [Eh]
    ---------------------

    Doubly Occupied:

       1A    -20.509941     2A    -15.626196     3A    -11.353399
       4A    -11.309204     5A    -11.265420     6A    -11.245107
       7A    -11.242408     8A    -11.223898     9A    -11.205993
      10A     -1.370267    11A     -1.271261    12A     -1.117694
      13A     -1.054680    14A     -0.992750    15A     -0.888233
      16A     -0.868810    17A     -0.818234    18A     -0.737503
      19A     -0.703062    20A     -0.671938    21A     -0.624743
      22A     -0.611770    23A     -0.602483    24A     -0.592678
      25A     -0.564206    26A     -0.546572    27A     -0.511847
      28A     -0.500026    29A     -0.484642    30A     -0.473958
      31A     -0.422806    32A     -0.410518    33A     -0.306098

  @DF-RHF Final Energy:  -399.77878313934241

   => Energetics <=

    Nuclear Repulsion Energy =            432.4916763276610823
    One-Electron Energy =               -1400.2842317110689692
    Two-Electron Energy =                 568.0137722440655352
    Total Energy =                       -399.7787831393424085
  Basis Set: (AUG-CC-PVTZ AUX)
    Blend: AUG-CC-PVTZ-RI
    Molecular point group: c1

    Geometry (in Angstrom), charge = 0, multiplicity = 1:

       Center              X                  Y                   Z               Mass
    ------------   -----------------  -----------------  -----------------  -----------------
         O            0.646262906053     1.939263375139    -0.208586037754    15.994914619570
         N           -1.423178093947     1.021039375139     0.131933962246    14.003074004430
         C            0.417092906053    -0.453355624861    -0.277044037754    12.000000000000
         C            1.881573906053    -0.660433724861    -0.526728937754    12.000000000000
         C           -0.050801093947     0.916913375139    -0.123663037754    12.000000000000
         C           -0.465186093947    -1.500985624861    -0.160681037754    12.000000000000
         C            2.717838906053    -0.349498624861     0.728434962246    12.000000000000
         C           -1.847091093947    -1.299877624861     0.106341962246    12.000000000000
         C           -2.301456093947    -0.020263624861     0.249707962246    12.000000000000
         H            2.066617906053    -1.656457624861    -0.878214037754     1.007825032230
         H            2.190603906053     0.052439375139    -1.322520037754     1.007825032230
         H           -0.092085093947    -2.517320624861    -0.281651037754     1.007825032230
         H            3.783493906053    -0.493019624861     0.526059962246     1.007825032230
         H            2.430045906053    -1.021614624861     1.542175962246     1.007825032230
         H            2.562728906053     0.681628375139     1.050790962246     1.007825032230
         H           -1.746292093947     1.979855375139     0.234645962246     1.007825032230
         H           -2.533626093947    -2.133908624861     0.195571962246     1.007825032230
         H           -3.334876093947     0.240465375139     0.453662962246     1.007825032230

  Basis Set: AUG-CC-PVTZ
    Blend: AUG-CC-PVTZ
  Basis Set: (AUG-CC-PVTZ AUX)
    Blend: AUG-CC-PVTZ-JKFIT
	 Reference Energy          =    -399.7787831393424085 [Eh]
	 Singles Energy            =      -0.0000000000000000 [Eh]
	 Same-Spin Energy          =      -0.4240338420158111 [Eh]
	 Opposite-Spin Energy      =      -1.3399429824152707 [Eh]
	 Correlation Energy        =      -1.7639768244310816 [Eh]
	 Total Energy              =    -401.5427599637735057 [Eh]

	 ================> DF-SCS-MP2 Energies <==================
	-----------------------------------------------------------
	 SCS Same-Spin Scale       =       0.3333333333333333 [-]
	 SCS Opposite-Spin Scale   =       1.2000000000000000 [-]
	 SCS Same-Spin Energy      =      -0.1413446140052703 [Eh]
	 SCS Opposite-Spin Energy  =      -1.6079315788983248 [Eh]
	 SCS Correlation Energy    =      -1.7492761929035952 [Eh]
	 SCS Total Energy          =    -401.5280593322460163 [Eh]
	-----------------------------------------------------------

  Dipole Moment: [D]
     X:    -2.9244      Y:    -2.2569      Z:     0.4749     Total:     3.7244

*** Psi4 exiting successfully. Buy a developer a beer!
