                               Psi4 1.3.2 release

  ==> Input File <==

--------------------------------------------------------------------------
#psi4
#
memory 32 gb

molecule  {
0 1
  O        0.6058420     1.9734460    -0.2200840
  N       -1.4635990     1.0552220     0.1204360
  C        0.3766720    -0.4191730    -0.2885420
  C        1.8447340    -0.6003330    -0.5373460
  C       -0.0933983     0.9267689    -0.1357681
  C       -0.5056070    -1.4668030    -0.1721790
  C        2.6774180    -0.3153160     0.7169370
  C       -1.8875120    -1.2656950     0.0948440
  C       -2.3418770     0.0139190     0.2382100
  H        2.0261970    -1.6222750    -0.8897120
  H        2.1501830     0.0866220    -1.3340180
  H       -0.1325060    -2.4831380    -0.2931490
  H        3.7430730    -0.4588370     0.5145620
  H        2.3896250    -0.9874320     1.5306780
  H        2.5223080     0.7158110     1.0392930
  H       -1.7867130     2.0140380     0.2231480
  H       -2.5740470    -2.0997260     0.1840740
  H       -3.3752970     0.2746480     0.4421650
units angstrom
no_reorient  #important for SAPT in psi4, default
symmetry c1  #important for SAPT in psi4, default
}

set PROPERTIES_ORIGIN ["COM"]
properties('MP2/aug-cc-pvtz', properties = ['dipole'])
--------------------------------------------------------------------------

    Molecular point group: c1
  Charge       = 0
  Multiplicity = 1
  Basis Set: AUG-CC-PVTZ
    Blend: AUG-CC-PVTZ
  Basis Set: (AUG-CC-PVTZ AUX)
    Blend: AUG-CC-PVTZ-JKFIT

    Orbital Energies [Eh]
    ---------------------

    Doubly Occupied:

       1A    -20.504755     2A    -15.628471     3A    -11.351920
       4A    -11.311424     5A    -11.268978     6A    -11.244469
       7A    -11.244345     8A    -11.224494     9A    -11.205307
      10A     -1.359104    11A     -1.267750    12A     -1.120753
      13A     -1.056248    14A     -0.995251    15A     -0.891316
      16A     -0.870431    17A     -0.818388    18A     -0.739743
      19A     -0.704366    20A     -0.672879    21A     -0.626188
      22A     -0.608138    23A     -0.600592    24A     -0.591500
      25A     -0.564475    26A     -0.545450    27A     -0.514701
      28A     -0.493957    29A     -0.484734    30A     -0.469868
      31A     -0.420327    32A     -0.412552    33A     -0.307865

  @DF-RHF Final Energy:  -399.77688922639197

   => Energetics <=

    Nuclear Repulsion Energy =            432.7008631765604605
    One-Electron Energy =               -1400.7140282337668395
    Two-Electron Energy =                 568.2362758308144066
    Total Energy =                       -399.7768892263919724
  Basis Set: (AUG-CC-PVTZ AUX)
    Blend: AUG-CC-PVTZ-RI
    Molecular point group: c1

    Geometry (in Angstrom), charge = 0, multiplicity = 1:

       Center              X                  Y                   Z               Mass
    ------------   -----------------  -----------------  -----------------  -----------------
         O            0.646125938334     1.939108241914    -0.208612735100    15.994914619570
         N           -1.423315061666     1.020884241914     0.131907264900    14.003074004430
         C            0.416955938334    -0.453510758086    -0.277070735100    12.000000000000
         C            1.885017938334    -0.634670758086    -0.525874735100    12.000000000000
         C           -0.053114361666     0.892431141914    -0.124296835100    12.000000000000
         C           -0.465323061666    -1.501140758086    -0.160707735100    12.000000000000
         C            2.717701938334    -0.349653758086     0.728408264900    12.000000000000
         C           -1.847228061666    -1.300032758086     0.106315264900    12.000000000000
         C           -2.301593061666    -0.020418758086     0.249681264900    12.000000000000
         H            2.066480938334    -1.656612758086    -0.878240735100     1.007825032230
         H            2.190466938334     0.052284241914    -1.322546735100     1.007825032230
         H           -0.092222061666    -2.517475758086    -0.281677735100     1.007825032230
         H            3.783356938334    -0.493174758086     0.526033264900     1.007825032230
         H            2.429908938334    -1.021769758086     1.542149264900     1.007825032230
         H            2.562591938334     0.681473241914     1.050764264900     1.007825032230
         H           -1.746429061666     1.979700241914     0.234619264900     1.007825032230
         H           -2.533763061666    -2.134063758086     0.195545264900     1.007825032230
         H           -3.335013061666     0.240310241914     0.453636264900     1.007825032230

  Basis Set: AUG-CC-PVTZ
    Blend: AUG-CC-PVTZ
  Basis Set: (AUG-CC-PVTZ AUX)
    Blend: AUG-CC-PVTZ-JKFIT
	 Reference Energy          =    -399.7768892263919724 [Eh]
	 Singles Energy            =      -0.0000000000000000 [Eh]
	 Same-Spin Energy          =      -0.4246920501775135 [Eh]
	 Opposite-Spin Energy      =      -1.3408294399882597 [Eh]
	 Correlation Energy        =      -1.7655214901657732 [Eh]
	 Total Energy              =    -401.5424107165577539 [Eh]

	 ================> DF-SCS-MP2 Energies <==================
	-----------------------------------------------------------
	 SCS Same-Spin Scale       =       0.3333333333333333 [-]
	 SCS Opposite-Spin Scale   =       1.2000000000000000 [-]
	 SCS Same-Spin Energy      =      -0.1415640167258378 [Eh]
	 SCS Opposite-Spin Energy  =      -1.6089953279859115 [Eh]
	 SCS Correlation Energy    =      -1.7505593447117493 [Eh]
	 SCS Total Energy          =    -401.5274485711037187 [Eh]
	-----------------------------------------------------------

  Dipole Moment: [D]
     X:    -3.0345      Y:    -2.4002      Z:     0.4914     Total:     3.9001

*** Psi4 exiting successfully. Buy a developer a beer!
