                               Psi4 1.3.2 release

  ==> Input File <==

--------------------------------------------------------------------------
#psi4
#
memory 32 gb

molecule  {
0 1
  O        0.6058420     1.9734460    -0.2200840
  N       -1.4635990     1.0552220     0.1204360
  C        0.3838016    -0.4930566    -0.2147057
  C        1.8447340    -0.6003330    -0.5373460
  C       -0.0912220     0.9510960    -0.1351610
  C       -0.5056070    -1.4668030    -0.1721790
  C        2.6774180    -0.3153160     0.7169370
  C       -1.8875120    -1.2656950     0.0948440
  C       -2.3418770     0.0139190     0.2382100
  H        2.0261970    -1.6222750    -0.8897120
  H        2.1501830     0.0866220    -1.3340180
  H       -0.1325060    -2.4831380    -0.2931490
  H        3.7430730    -0.4588370     0.5145620
  H        2.3896250    -0.9874320     1.5306780
  H        2.5223080     0.7158110     1.0392930
  H       -1.7867130     2.0140380     0.2231480
  H       -2.5740470    -2.0997260     0.1840740
  H       -3.3752970     0.2746480     0.4421650
units angstrom
no_reorient  #important for SAPT in psi4, default
symmetry c1  #important for SAPT in psi4, default
}

set PROPERTIES_ORIGIN ["COM"]
properties('MP2/aug-cc-pvtz', properties = ['dipole'])
--------------------------------------------------------------------------

    Molecular point group: c1
  Charge       = 0
  Multiplicity = 1
  Basis Set: AUG-CC-PVTZ
    Blend: AUG-CC-PVTZ
  Basis Set: (AUG-CC-PVTZ AUX)
    Blend: AUG-CC-PVTZ-JKFIT

    Orbital Energies [Eh]
    ---------------------

    Doubly Occupied:

       1A    -20.517596     2A    -15.623181     3A    -11.360052
       4A    -11.306228     5A    -11.254585     6A    -11.245243
       7A    -11.240626     8A    -11.225302     9A    -11.205845
      10A     -1.372384    11A     -1.270871    12A     -1.123219
      13A     -1.053161    14A     -0.994641    15A     -0.883026
      16A     -0.864796    17A     -0.820154    18A     -0.734286
      19A     -0.700940    20A     -0.670898    21A     -0.630059
      22A     -0.613112    23A     -0.602973    24A     -0.588006
      25A     -0.569116    26A     -0.541804    27A     -0.513769
      28A     -0.495232    29A     -0.492328    30A     -0.475454
      31A     -0.419149    32A     -0.417137    33A     -0.308886

  @DF-RHF Final Energy:  -399.77387276180730

   => Energetics <=

    Nuclear Repulsion Energy =            432.3982294639731094
    One-Electron Energy =               -1400.0760859922318105
    Two-Electron Energy =                 567.9039837664513470
    Total Energy =                       -399.7738727618072971
  Basis Set: (AUG-CC-PVTZ AUX)
    Blend: AUG-CC-PVTZ-RI
    Molecular point group: c1

    Geometry (in Angstrom), charge = 0, multiplicity = 1:

       Center              X                  Y                   Z               Mass
    ------------   -----------------  -----------------  -----------------  -----------------
         O            0.645218550350     1.943940334740    -0.215871468447    15.994914619570
         N           -1.424222449650     1.025716334740     0.124648531553    14.003074004430
         C            0.423178150350    -0.522562265260    -0.210493168447    12.000000000000
         C            1.884110550350    -0.629838665260    -0.533133468447    12.000000000000
         C           -0.051845449650     0.921590334740    -0.130948468447    12.000000000000
         C           -0.466230449650    -1.496308665260    -0.167966468447    12.000000000000
         C            2.716794550350    -0.344821665260     0.721149531553    12.000000000000
         C           -1.848135449650    -1.295200665260     0.099056531553    12.000000000000
         C           -2.302500449650    -0.015586665260     0.242422531553    12.000000000000
         H            2.065573550350    -1.651780665260    -0.885499468447     1.007825032230
         H            2.189559550350     0.057116334740    -1.329805468447     1.007825032230
         H           -0.093129449650    -2.512643665260    -0.288936468447     1.007825032230
         H            3.782449550350    -0.488342665260     0.518774531553     1.007825032230
         H            2.429001550350    -1.016937665260     1.534890531553     1.007825032230
         H            2.561684550350     0.686305334740     1.043505531553     1.007825032230
         H           -1.747336449650     1.984532334740     0.227360531553     1.007825032230
         H           -2.534670449650    -2.129231665260     0.188286531553     1.007825032230
         H           -3.335920449650     0.245142334740     0.446377531553     1.007825032230

  Basis Set: AUG-CC-PVTZ
    Blend: AUG-CC-PVTZ
  Basis Set: (AUG-CC-PVTZ AUX)
    Blend: AUG-CC-PVTZ-JKFIT
	 Reference Energy          =    -399.7738727618072971 [Eh]
	 Singles Energy            =      -0.0000000000000000 [Eh]
	 Same-Spin Energy          =      -0.4228807887579237 [Eh]
	 Opposite-Spin Energy      =      -1.3391794243634527 [Eh]
	 Correlation Energy        =      -1.7620602131213765 [Eh]
	 Total Energy              =    -401.5359329749286985 [Eh]

	 ================> DF-SCS-MP2 Energies <==================
	-----------------------------------------------------------
	 SCS Same-Spin Scale       =       0.3333333333333333 [-]
	 SCS Opposite-Spin Scale   =       1.2000000000000000 [-]
	 SCS Same-Spin Energy      =      -0.1409602629193079 [Eh]
	 SCS Opposite-Spin Energy  =      -1.6070153092361432 [Eh]
	 SCS Correlation Energy    =      -1.7479755721554511 [Eh]
	 SCS Total Energy          =    -401.5218483339627369 [Eh]
	-----------------------------------------------------------

  Dipole Moment: [D]
     X:    -2.8265      Y:    -2.0687      Z:     0.4360     Total:     3.5297

*** Psi4 exiting successfully. Buy a developer a beer!
