                               Psi4 1.3.2 release

  ==> Input File <==

--------------------------------------------------------------------------
#psi4
#
memory 32 gb

molecule  {
0 1
  O        0.6058420     1.9734460    -0.2200840
  N       -1.4635990     1.0552220     0.1204360
  C        0.3766720    -0.4191730    -0.2885420
  C        1.8447340    -0.6003330    -0.5373460
  C       -0.1025006     0.8540693    -0.1375165
  C       -0.5056070    -1.4668030    -0.1721790
  C        2.6774180    -0.3153160     0.7169370
  C       -1.8875120    -1.2656950     0.0948440
  C       -2.3418770     0.0139190     0.2382100
  H        2.0261970    -1.6222750    -0.8897120
  H        2.1501830     0.0866220    -1.3340180
  H       -0.1325060    -2.4831380    -0.2931490
  H        3.7430730    -0.4588370     0.5145620
  H        2.3896250    -0.9874320     1.5306780
  H        2.5223080     0.7158110     1.0392930
  H       -1.7867130     2.0140380     0.2231480
  H       -2.5740470    -2.0997260     0.1840740
  H       -3.3752970     0.2746480     0.4421650
units angstrom
no_reorient  #important for SAPT in psi4, default
symmetry c1  #important for SAPT in psi4, default
}

set PROPERTIES_ORIGIN ["COM"]
properties('MP2/aug-cc-pvtz', properties = ['dipole'])
--------------------------------------------------------------------------

    Molecular point group: c1
  Charge       = 0
  Multiplicity = 1
  Basis Set: AUG-CC-PVTZ
    Blend: AUG-CC-PVTZ
  Basis Set: (AUG-CC-PVTZ AUX)
    Blend: AUG-CC-PVTZ-JKFIT

    Orbital Energies [Eh]
    ---------------------

    Doubly Occupied:

       1A    -20.488434     2A    -15.636064     3A    -11.347096
       4A    -11.317906     5A    -11.278411     6A    -11.249911
       7A    -11.241817     8A    -11.225590     9A    -11.204365
      10A     -1.337144    11A     -1.248250    12A     -1.130875
      13A     -1.059576    14A     -1.000145    15A     -0.900926
      16A     -0.875122    17A     -0.820045    18A     -0.749029
      19A     -0.708737    20A     -0.676869    21A     -0.629583
      22A     -0.605952    23A     -0.597005    24A     -0.586976
      25A     -0.563221    26A     -0.537322    27A     -0.515090
      28A     -0.491273    29A     -0.482640    30A     -0.453792
      31A     -0.416769    32A     -0.407989    33A     -0.311595

  @DF-RHF Final Energy:  -399.75901228019984

   => Energetics <=

    Nuclear Repulsion Energy =            433.0329762872027004
    One-Electron Energy =               -1401.3929407006662586
    Two-Electron Energy =                 568.6009521332637178
    Total Energy =                       -399.7590122801998405
  Basis Set: (AUG-CC-PVTZ AUX)
    Blend: AUG-CC-PVTZ-RI
    Molecular point group: c1

    Geometry (in Angstrom), charge = 0, multiplicity = 1:

       Center              X                  Y                   Z               Mass
    ------------   -----------------  -----------------  -----------------  -----------------
         O            0.647013473945     1.946196943005    -0.208442254313    15.994914619570
         N           -1.422427526055     1.027972943005     0.132077745687    14.003074004430
         C            0.417843473945    -0.446422056995    -0.276900254313    12.000000000000
         C            1.885905473945    -0.627582056995    -0.525704254313    12.000000000000
         C           -0.061329126055     0.826820243005    -0.125874754313    12.000000000000
         C           -0.464435526055    -1.494052056995    -0.160537254313    12.000000000000
         C            2.718589473945    -0.342565056995     0.728578745687    12.000000000000
         C           -1.846340526055    -1.292944056995     0.106485745687    12.000000000000
         C           -2.300705526055    -0.013330056995     0.249851745687    12.000000000000
         H            2.067368473945    -1.649524056995    -0.878070254313     1.007825032230
         H            2.191354473945     0.059372943005    -1.322376254313     1.007825032230
         H           -0.091334526055    -2.510387056995    -0.281507254313     1.007825032230
         H            3.784244473945    -0.486086056995     0.526203745687     1.007825032230
         H            2.430796473945    -1.014681056995     1.542319745687     1.007825032230
         H            2.563479473945     0.688561943005     1.050934745687     1.007825032230
         H           -1.745541526055     1.986788943005     0.234789745687     1.007825032230
         H           -2.532875526055    -2.126975056995     0.195715745687     1.007825032230
         H           -3.334125526055     0.247398943005     0.453806745687     1.007825032230

  Basis Set: AUG-CC-PVTZ
    Blend: AUG-CC-PVTZ
  Basis Set: (AUG-CC-PVTZ AUX)
    Blend: AUG-CC-PVTZ-JKFIT
	 Reference Energy          =    -399.7590122801998405 [Eh]
	 Singles Energy            =      -0.0000000000000000 [Eh]
	 Same-Spin Energy          =      -0.4266425531029116 [Eh]
	 Opposite-Spin Energy      =      -1.3436243571542701 [Eh]
	 Correlation Energy        =      -1.7702669102571817 [Eh]
	 Total Energy              =    -401.5292791904570322 [Eh]

	 ================> DF-SCS-MP2 Energies <==================
	-----------------------------------------------------------
	 SCS Same-Spin Scale       =       0.3333333333333333 [-]
	 SCS Opposite-Spin Scale   =       1.2000000000000000 [-]
	 SCS Same-Spin Energy      =      -0.1422141843676372 [Eh]
	 SCS Opposite-Spin Energy  =      -1.6123492285851240 [Eh]
	 SCS Correlation Energy    =      -1.7545634129527612 [Eh]
	 SCS Total Energy          =    -401.5135756931525748 [Eh]
	-----------------------------------------------------------

  Dipole Moment: [D]
     X:    -3.3461      Y:    -2.8584      Z:     0.5350     Total:     4.4332

*** Psi4 exiting successfully. Buy a developer a beer!
