                               Psi4 1.3.2 release

  ==> Input File <==

--------------------------------------------------------------------------
#psi4
#
memory 32 gb

molecule  {
0 1
  O        0.6058420     1.9734460    -0.2200840
  N       -1.4635990     1.0552220     0.1204360
  C        0.3900390    -0.5302170    -0.1783548
  C        1.8447340    -0.6003330    -0.5373460
  C       -0.0912220     0.9510960    -0.1351610
  C       -0.5056070    -1.4668030    -0.1721790
  C        2.6774180    -0.3153160     0.7169370
  C       -1.8875120    -1.2656950     0.0948440
  C       -2.3418770     0.0139190     0.2382100
  H        2.0261970    -1.6222750    -0.8897120
  H        2.1501830     0.0866220    -1.3340180
  H       -0.1325060    -2.4831380    -0.2931490
  H        3.7430730    -0.4588370     0.5145620
  H        2.3896250    -0.9874320     1.5306780
  H        2.5223080     0.7158110     1.0392930
  H       -1.7867130     2.0140380     0.2231480
  H       -2.5740470    -2.0997260     0.1840740
  H       -3.3752970     0.2746480     0.4421650
units angstrom
no_reorient  #important for SAPT in psi4, default
symmetry c1  #important for SAPT in psi4, default
}

set PROPERTIES_ORIGIN ["COM"]
properties('MP2/aug-cc-pvtz', properties = ['dipole'])
--------------------------------------------------------------------------

    Molecular point group: c1
  Charge       = 0
  Multiplicity = 1
  Basis Set: AUG-CC-PVTZ
    Blend: AUG-CC-PVTZ
  Basis Set: (AUG-CC-PVTZ AUX)
    Blend: AUG-CC-PVTZ-JKFIT

    Orbital Energies [Eh]
    ---------------------

    Doubly Occupied:

       1A    -20.520712     2A    -15.621887     3A    -11.362645
       4A    -11.305297     5A    -11.249928     6A    -11.245365
       7A    -11.239895     8A    -11.225996     9A    -11.205852
      10A     -1.373106    11A     -1.270551    12A     -1.126009
      13A     -1.052469    14A     -0.995408    15A     -0.881251
      16A     -0.862181    17A     -0.820722    18A     -0.733406
      19A     -0.699130    20A     -0.670297    21A     -0.632626
      22A     -0.613583    23A     -0.602403    24A     -0.586691
      25A     -0.571341    26A     -0.539542    27A     -0.513609
      28A     -0.496200    29A     -0.493328    30A     -0.475846
      31A     -0.419945    32A     -0.415434    33A     -0.310047

  @DF-RHF Final Energy:  -399.76509969664858

   => Energetics <=

    Nuclear Repulsion Energy =            432.2341682830700620
    One-Electron Energy =               -1399.7331316721795247
    Two-Electron Energy =                 567.7338636924608863
    Total Energy =                       -399.7650996966485764
  Basis Set: (AUG-CC-PVTZ AUX)
    Blend: AUG-CC-PVTZ-RI
    Molecular point group: c1

    Geometry (in Angstrom), charge = 0, multiplicity = 1:

       Center              X                  Y                   Z               Mass
    ------------   -----------------  -----------------  -----------------  -----------------
         O            0.644610361801     1.947563724250    -0.219415926250    15.994914619570
         N           -1.424830638199     1.029339724250     0.121104073750    14.003074004430
         C            0.428807361801    -0.556099275750    -0.177686726250    12.000000000000
         C            1.883502361801    -0.626215275750    -0.536677926250    12.000000000000
         C           -0.052453638199     0.925213724250    -0.134492926250    12.000000000000
         C           -0.466838638199    -1.492685275750    -0.171510926250    12.000000000000
         C            2.716186361801    -0.341198275750     0.717605073750    12.000000000000
         C           -1.848743638199    -1.291577275750     0.095512073750    12.000000000000
         C           -2.303108638199    -0.011963275750     0.238878073750    12.000000000000
         H            2.064965361801    -1.648157275750    -0.889043926250     1.007825032230
         H            2.188951361801     0.060739724250    -1.333349926250     1.007825032230
         H           -0.093737638199    -2.509020275750    -0.292480926250     1.007825032230
         H            3.781841361801    -0.484719275750     0.515230073750     1.007825032230
         H            2.428393361801    -1.013314275750     1.531346073750     1.007825032230
         H            2.561076361801     0.689928724250     1.039961073750     1.007825032230
         H           -1.747944638199     1.988155724250     0.223816073750     1.007825032230
         H           -2.535278638199    -2.125608275750     0.184742073750     1.007825032230
         H           -3.336528638199     0.248765724250     0.442833073750     1.007825032230

  Basis Set: AUG-CC-PVTZ
    Blend: AUG-CC-PVTZ
  Basis Set: (AUG-CC-PVTZ AUX)
    Blend: AUG-CC-PVTZ-JKFIT
	 Reference Energy          =    -399.7650996966485764 [Eh]
	 Singles Energy            =      -0.0000000000000000 [Eh]
	 Same-Spin Energy          =      -0.4225403738061446 [Eh]
	 Opposite-Spin Energy      =      -1.3392534548975128 [Eh]
	 Correlation Energy        =      -1.7617938287036574 [Eh]
	 Total Energy              =    -401.5268935253522500 [Eh]

	 ================> DF-SCS-MP2 Energies <==================
	-----------------------------------------------------------
	 SCS Same-Spin Scale       =       0.3333333333333333 [-]
	 SCS Opposite-Spin Scale   =       1.2000000000000000 [-]
	 SCS Same-Spin Energy      =      -0.1408467912687149 [Eh]
	 SCS Opposite-Spin Energy  =      -1.6071041458770152 [Eh]
	 SCS Correlation Energy    =      -1.7479509371457300 [Eh]
	 SCS Total Energy          =    -401.5130506337943075 [Eh]
	-----------------------------------------------------------

  Dipole Moment: [D]
     X:    -2.7784      Y:    -1.9825      Z:     0.4148     Total:     3.4384

*** Psi4 exiting successfully. Buy a developer a beer!
