                               Psi4 1.3.2 release

  ==> Input File <==

--------------------------------------------------------------------------
#psi4
#
memory 32 gb

molecule  {
0 1
  O        0.6058420     1.9734460    -0.2200840
  N       -1.4635990     1.0552220     0.1204360
  C        0.3766720    -0.4191730    -0.2885420
  C        1.8447340    -0.6003330    -0.5373460
  C       -0.0912220     0.9510960    -0.1351610
  C       -0.5056070    -1.4668030    -0.1721790
  C        2.6774180    -0.3153160     0.7169370
  C       -1.8875120    -1.2656950     0.0948440
  C       -2.4703444    -0.1383944     0.2554370
  H        2.0261970    -1.6222750    -0.8897120
  H        2.1501830     0.0866220    -1.3340180
  H       -0.1325060    -2.4831380    -0.2931490
  H        3.7430730    -0.4588370     0.5145620
  H        2.3896250    -0.9874320     1.5306780
  H        2.5223080     0.7158110     1.0392930
  H       -1.7867130     2.0140380     0.2231480
  H       -2.5740470    -2.0997260     0.1840740
  H       -3.3752970     0.2746480     0.4421650
units angstrom
no_reorient  #important for SAPT in psi4, default
symmetry c1  #important for SAPT in psi4, default
}

set PROPERTIES_ORIGIN ["COM"]
properties('MP2/aug-cc-pvtz', properties = ['dipole'])
--------------------------------------------------------------------------

    Molecular point group: c1
  Charge       = 0
  Multiplicity = 1
  Basis Set: AUG-CC-PVTZ
    Blend: AUG-CC-PVTZ
  Basis Set: (AUG-CC-PVTZ AUX)
    Blend: AUG-CC-PVTZ-JKFIT

    Orbital Energies [Eh]
    ---------------------

    Doubly Occupied:

       1A    -20.508030     2A    -15.600509     3A    -11.349154
       4A    -11.301376     5A    -11.268238     6A    -11.256824
       7A    -11.247338     8A    -11.228326     9A    -11.209099
      10A     -1.360872    11A     -1.222763    12A     -1.116444
      13A     -1.073695    14A     -0.999401    15A     -0.893879
      16A     -0.856840    17A     -0.815368    18A     -0.718458
      19A     -0.693188    20A     -0.689051    21A     -0.618594
      22A     -0.613675    23A     -0.597702    24A     -0.586379
      25A     -0.567174    26A     -0.530632    27A     -0.514804
      28A     -0.498105    29A     -0.487468    30A     -0.476201
      31A     -0.418302    32A     -0.399748    33A     -0.329892

  @DF-RHF Final Energy:  -399.74134524781675

   => Energetics <=

    Nuclear Repulsion Energy =            430.2384887270051763
    One-Electron Energy =               -1395.8646079431632643
    Two-Electron Energy =                 565.8847739683412783
    Total Energy =                       -399.7413452478167528
  Basis Set: (AUG-CC-PVTZ AUX)
    Blend: AUG-CC-PVTZ-RI
    Molecular point group: c1

    Geometry (in Angstrom), charge = 0, multiplicity = 1:

       Center              X                  Y                   Z               Mass
    ------------   -----------------  -----------------  -----------------  -----------------
         O            0.658440171952     1.951587768960    -0.210351680075    15.994914619570
         N           -1.411000828048     1.033363768960     0.130168319925    14.003074004430
         C            0.429270171952    -0.441031231040    -0.278809680075    12.000000000000
         C            1.897332171952    -0.622191231040    -0.527613680075    12.000000000000
         C           -0.038623828048     0.929237768960    -0.125428680075    12.000000000000
         C           -0.453008828048    -1.488661231040    -0.162446680075    12.000000000000
         C            2.730016171952    -0.337174231040     0.726669319925    12.000000000000
         C           -1.834913828048    -1.287553231040     0.104576319925    12.000000000000
         C           -2.417746228048    -0.160252631040     0.265169319925    12.000000000000
         H            2.078795171952    -1.644133231040    -0.879979680075     1.007825032230
         H            2.202781171952     0.064763768960    -1.324285680075     1.007825032230
         H           -0.079907828048    -2.504996231040    -0.283416680075     1.007825032230
         H            3.795671171952    -0.480695231040     0.524294319925     1.007825032230
         H            2.442223171952    -1.009290231040     1.540410319925     1.007825032230
         H            2.574906171952     0.693952768960     1.049025319925     1.007825032230
         H           -1.734114828048     1.992179768960     0.232880319925     1.007825032230
         H           -2.521448828048    -2.121584231040     0.193806319925     1.007825032230
         H           -3.322698828048     0.252789768960     0.451897319925     1.007825032230

  Basis Set: AUG-CC-PVTZ
    Blend: AUG-CC-PVTZ
  Basis Set: (AUG-CC-PVTZ AUX)
    Blend: AUG-CC-PVTZ-JKFIT
	 Reference Energy          =    -399.7413452478167528 [Eh]
	 Singles Energy            =      -0.0000000000000000 [Eh]
	 Same-Spin Energy          =      -0.4221471340576291 [Eh]
	 Opposite-Spin Energy      =      -1.3415545777239581 [Eh]
	 Correlation Energy        =      -1.7637017117815872 [Eh]
	 Total Energy              =    -401.5050469595983600 [Eh]

	 ================> DF-SCS-MP2 Energies <==================
	-----------------------------------------------------------
	 SCS Same-Spin Scale       =       0.3333333333333333 [-]
	 SCS Opposite-Spin Scale   =       1.2000000000000000 [-]
	 SCS Same-Spin Energy      =      -0.1407157113525430 [Eh]
	 SCS Opposite-Spin Energy  =      -1.6098654932687497 [Eh]
	 SCS Correlation Energy    =      -1.7505812046212927 [Eh]
	 SCS Total Energy          =    -401.4919264524380651 [Eh]
	-----------------------------------------------------------

  Dipole Moment: [D]
     X:    -2.8766      Y:    -2.7533      Z:     0.4601     Total:     4.0084

*** Psi4 exiting successfully. Buy a developer a beer!
