                               Psi4 1.3.2 release

  ==> Input File <==

--------------------------------------------------------------------------
#psi4
#
memory 32 gb

molecule  {
0 1
  O        0.6058420     1.9734460    -0.2200840
  N       -1.4635990     1.0552220     0.1204360
  C        0.3875981    -0.4062391    -0.2389988
  C        1.8447340    -0.6003330    -0.5373460
  C       -0.0912220     0.9510960    -0.1351610
  C       -0.5056070    -1.4668030    -0.1721790
  C        2.6774180    -0.3153160     0.7169370
  C       -1.8875120    -1.2656950     0.0948440
  C       -2.3418770     0.0139190     0.2382100
  H        2.0261970    -1.6222750    -0.8897120
  H        2.1501830     0.0866220    -1.3340180
  H       -0.1325060    -2.4831380    -0.2931490
  H        3.7430730    -0.4588370     0.5145620
  H        2.3896250    -0.9874320     1.5306780
  H        2.5223080     0.7158110     1.0392930
  H       -1.7867130     2.0140380     0.2231480
  H       -2.5740470    -2.0997260     0.1840740
  H       -3.3752970     0.2746480     0.4421650
units angstrom
no_reorient  #important for SAPT in psi4, default
symmetry c1  #important for SAPT in psi4, default
}

set PROPERTIES_ORIGIN ["COM"]
properties('MP2/aug-cc-pvtz', properties = ['dipole'])
--------------------------------------------------------------------------

    Molecular point group: c1
  Charge       = 0
  Multiplicity = 1
  Basis Set: AUG-CC-PVTZ
    Blend: AUG-CC-PVTZ
  Basis Set: (AUG-CC-PVTZ AUX)
    Blend: AUG-CC-PVTZ-JKFIT

    Orbital Energies [Eh]
    ---------------------

    Doubly Occupied:

       1A    -20.508051     2A    -15.626724     3A    -11.351263
       4A    -11.310257     5A    -11.268649     6A    -11.245008
       7A    -11.243095     8A    -11.223950     9A    -11.204471
      10A     -1.369745    11A     -1.271268    12A     -1.116655
      13A     -1.055934    14A     -0.993386    15A     -0.889547
      16A     -0.867935    17A     -0.816692    18A     -0.738227
      19A     -0.703021    20A     -0.672277    21A     -0.626107
      22A     -0.611497    23A     -0.603528    24A     -0.591112
      25A     -0.564917    26A     -0.546847    27A     -0.512047
      28A     -0.495800    29A     -0.485427    30A     -0.473199
      31A     -0.422527    32A     -0.409847    33A     -0.305838

  @DF-RHF Final Energy:  -399.77774572026044

   => Energetics <=

    Nuclear Repulsion Energy =            432.7672020867324818
    One-Electron Energy =               -1400.8402039261527534
    Two-Electron Energy =                 568.2952561191598306
    Total Energy =                       -399.7777457202604410
  Basis Set: (AUG-CC-PVTZ AUX)
    Blend: AUG-CC-PVTZ-RI
    Molecular point group: c1

    Geometry (in Angstrom), charge = 0, multiplicity = 1:

       Center              X                  Y                   Z               Mass
    ------------   -----------------  -----------------  -----------------  -----------------
         O            0.644848366006     1.935475043226    -0.213502727429    15.994914619570
         N           -1.424592633994     1.017251043226     0.127017272571    14.003074004430
         C            0.426604466006    -0.444210056774    -0.232417527429    12.000000000000
         C            1.883740366006    -0.638303956774    -0.530764727429    12.000000000000
         C           -0.052215633994     0.913125043226    -0.128579727429    12.000000000000
         C           -0.466600633994    -1.504773956774    -0.165597727429    12.000000000000
         C            2.716424366006    -0.353286956774     0.723518272571    12.000000000000
         C           -1.848505633994    -1.303665956774     0.101425272571    12.000000000000
         C           -2.302870633994    -0.024051956774     0.244791272571    12.000000000000
         H            2.065203366006    -1.660245956774    -0.883130727429     1.007825032230
         H            2.189189366006     0.048651043226    -1.327436727429     1.007825032230
         H           -0.093499633994    -2.521108956774    -0.286567727429     1.007825032230
         H            3.782079366006    -0.496807956774     0.521143272571     1.007825032230
         H            2.428631366006    -1.025402956774     1.537259272571     1.007825032230
         H            2.561314366006     0.677840043226     1.045874272571     1.007825032230
         H           -1.747706633994     1.976067043226     0.229729272571     1.007825032230
         H           -2.535040633994    -2.137696956774     0.190655272571     1.007825032230
         H           -3.336290633994     0.236677043226     0.448746272571     1.007825032230

  Basis Set: AUG-CC-PVTZ
    Blend: AUG-CC-PVTZ
  Basis Set: (AUG-CC-PVTZ AUX)
    Blend: AUG-CC-PVTZ-JKFIT
	 Reference Energy          =    -399.7777457202604410 [Eh]
	 Singles Energy            =      -0.0000000000000000 [Eh]
	 Same-Spin Energy          =      -0.4244510429499000 [Eh]
	 Opposite-Spin Energy      =      -1.3404277805346578 [Eh]
	 Correlation Energy        =      -1.7648788234845578 [Eh]
	 Total Energy              =    -401.5426245437449779 [Eh]

	 ================> DF-SCS-MP2 Energies <==================
	-----------------------------------------------------------
	 SCS Same-Spin Scale       =       0.3333333333333333 [-]
	 SCS Opposite-Spin Scale   =       1.2000000000000000 [-]
	 SCS Same-Spin Energy      =      -0.1414836809833000 [Eh]
	 SCS Opposite-Spin Energy  =      -1.6085133366415894 [Eh]
	 SCS Correlation Energy    =      -1.7499970176248894 [Eh]
	 SCS Total Energy          =    -401.5277427378853190 [Eh]
	-----------------------------------------------------------

  Dipole Moment: [D]
     X:    -2.9652      Y:    -2.2815      Z:     0.4605     Total:     3.7696

*** Psi4 exiting successfully. Buy a developer a beer!
