                               Psi4 1.3.2 release

  ==> Input File <==

--------------------------------------------------------------------------
#psi4
#
memory 32 gb

molecule  {
0 1
  O        0.6058420     1.9734460    -0.2200840
  N       -1.4635990     1.0552220     0.1204360
  C        0.3766720    -0.4191730    -0.2885420
  C        1.8545774    -0.4961878    -0.5330674
  C       -0.0912220     0.9510960    -0.1351610
  C       -0.5056070    -1.4668030    -0.1721790
  C        2.6774180    -0.3153160     0.7169370
  C       -1.8875120    -1.2656950     0.0948440
  C       -2.3418770     0.0139190     0.2382100
  H        2.0261970    -1.6222750    -0.8897120
  H        2.1501830     0.0866220    -1.3340180
  H       -0.1325060    -2.4831380    -0.2931490
  H        3.7430730    -0.4588370     0.5145620
  H        2.3896250    -0.9874320     1.5306780
  H        2.5223080     0.7158110     1.0392930
  H       -1.7867130     2.0140380     0.2231480
  H       -2.5740470    -2.0997260     0.1840740
  H       -3.3752970     0.2746480     0.4421650
units angstrom
no_reorient  #important for SAPT in psi4, default
symmetry c1  #important for SAPT in psi4, default
}

set PROPERTIES_ORIGIN ["COM"]
properties('MP2/aug-cc-pvtz', properties = ['dipole'])
--------------------------------------------------------------------------

    Molecular point group: c1
  Charge       = 0
  Multiplicity = 1
  Basis Set: AUG-CC-PVTZ
    Blend: AUG-CC-PVTZ
  Basis Set: (AUG-CC-PVTZ AUX)
    Blend: AUG-CC-PVTZ-JKFIT

    Orbital Energies [Eh]
    ---------------------

    Doubly Occupied:

       1A    -20.510183     2A    -15.625782     3A    -11.351529
       4A    -11.310419     5A    -11.268200     6A    -11.245414
       7A    -11.243528     8A    -11.226836     9A    -11.205172
      10A     -1.370750    11A     -1.271472    12A     -1.118076
      13A     -1.057303    14A     -0.996986    15A     -0.891646
      16A     -0.865658    17A     -0.818383    18A     -0.737199
      19A     -0.702267    20A     -0.672461    21A     -0.632264
      22A     -0.613590    23A     -0.604789    24A     -0.583239
      25A     -0.568486    26A     -0.546090    27A     -0.527300
      28A     -0.494126    29A     -0.483967    30A     -0.459636
      31A     -0.420749    32A     -0.413273    33A     -0.307801

  @DF-RHF Final Energy:  -399.76737389592427

   => Energetics <=

    Nuclear Repulsion Energy =            433.1211581602423735
    One-Electron Energy =               -1401.4879168158481662
    Two-Electron Energy =                 568.5993847596814703
    Total Energy =                       -399.7673738959242655
  Basis Set: (AUG-CC-PVTZ AUX)
    Blend: AUG-CC-PVTZ-RI
    Molecular point group: c1

    Geometry (in Angstrom), charge = 0, multiplicity = 1:

       Center              X                  Y                   Z               Mass
    ------------   -----------------  -----------------  -----------------  -----------------
         O            0.644953936555     1.926581326591    -0.209089123786    15.994914619570
         N           -1.424487063445     1.008357326591     0.131430876214    14.003074004430
         C            0.415783936555    -0.466037673409    -0.277547123786    12.000000000000
         C            1.893689336555    -0.543052473409    -0.522072523786    12.000000000000
         C           -0.052110063445     0.904231326591    -0.124166123786    12.000000000000
         C           -0.466495063445    -1.513667673409    -0.161184123786    12.000000000000
         C            2.716529936555    -0.362180673409     0.727931876214    12.000000000000
         C           -1.848400063445    -1.312559673409     0.105838876214    12.000000000000
         C           -2.302765063445    -0.032945673409     0.249204876214    12.000000000000
         H            2.065308936555    -1.669139673409    -0.878717123786     1.007825032230
         H            2.189294936555     0.039757326591    -1.323023123786     1.007825032230
         H           -0.093394063445    -2.530002673409    -0.282154123786     1.007825032230
         H            3.782184936555    -0.505701673409     0.525556876214     1.007825032230
         H            2.428736936555    -1.034296673409     1.541672876214     1.007825032230
         H            2.561419936555     0.668946326591     1.050287876214     1.007825032230
         H           -1.747601063445     1.967173326591     0.234142876214     1.007825032230
         H           -2.534935063445    -2.146590673409     0.195068876214     1.007825032230
         H           -3.336185063445     0.227783326591     0.453159876214     1.007825032230

  Basis Set: AUG-CC-PVTZ
    Blend: AUG-CC-PVTZ
  Basis Set: (AUG-CC-PVTZ AUX)
    Blend: AUG-CC-PVTZ-JKFIT
	 Reference Energy          =    -399.7673738959242655 [Eh]
	 Singles Energy            =      -0.0000000000000000 [Eh]
	 Same-Spin Energy          =      -0.4243769389866868 [Eh]
	 Opposite-Spin Energy      =      -1.3406986364198019 [Eh]
	 Correlation Energy        =      -1.7650755754064886 [Eh]
	 Total Energy              =    -401.5324494713307786 [Eh]

	 ================> DF-SCS-MP2 Energies <==================
	-----------------------------------------------------------
	 SCS Same-Spin Scale       =       0.3333333333333333 [-]
	 SCS Opposite-Spin Scale   =       1.2000000000000000 [-]
	 SCS Same-Spin Energy      =      -0.1414589796622289 [Eh]
	 SCS Opposite-Spin Energy  =      -1.6088383637037622 [Eh]
	 SCS Correlation Energy    =      -1.7502973433659912 [Eh]
	 SCS Total Energy          =    -401.5176712392902800 [Eh]
	-----------------------------------------------------------

  Dipole Moment: [D]
     X:    -2.9816      Y:    -2.1643      Z:     0.5099     Total:     3.7195

*** Psi4 exiting successfully. Buy a developer a beer!
