                               Psi4 1.4a3.dev225

  ==> Input File <==

--------------------------------------------------------------------------
#psi4
#
memory 32 gb

molecule  {
0 1
  O        0.6058420     1.9734460    -0.2200840
  N       -1.4635990     1.0552220     0.1204360
  C        0.3766720    -0.4191730    -0.2885420
  C        1.8447340    -0.6003330    -0.5373460
  C       -0.0422034     0.9473768    -0.1442904
  C       -0.5056070    -1.4668030    -0.1721790
  C        2.6774180    -0.3153160     0.7169370
  C       -1.8875120    -1.2656950     0.0948440
  C       -2.3418770     0.0139190     0.2382100
  H        2.0261970    -1.6222750    -0.8897120
  H        2.1501830     0.0866220    -1.3340180
  H       -0.1325060    -2.4831380    -0.2931490
  H        3.7430730    -0.4588370     0.5145620
  H        2.3896250    -0.9874320     1.5306780
  H        2.5223080     0.7158110     1.0392930
  H       -1.7867130     2.0140380     0.2231480
  H       -2.5740470    -2.0997260     0.1840740
  H       -3.3752970     0.2746480     0.4421650
units angstrom
no_reorient  #important for SAPT in psi4, default
symmetry c1  #important for SAPT in psi4, default
}

set PROPERTIES_ORIGIN ["COM"]
properties('MP2/aug-cc-pvtz', properties = ['dipole'])
--------------------------------------------------------------------------

    Molecular point group: c1
  Charge       = 0
  Multiplicity = 1
  Basis Set: AUG-CC-PVTZ
    Blend: AUG-CC-PVTZ
  Basis Set: (AUG-CC-PVTZ AUX)
    Blend: AUG-CC-PVTZ-JKFIT

    Orbital Energies [Eh]
    ---------------------

    Doubly Occupied:

       1A    -20.517199     2A    -15.619812     3A    -11.354683
       4A    -11.308633     5A    -11.268190     6A    -11.241152
       7A    -11.238375     8A    -11.223588     9A    -11.206131
      10A     -1.383489    11A     -1.264317    12A     -1.117126
      13A     -1.053411    14A     -0.991594    15A     -0.888890
      16A     -0.863823    17A     -0.813566    18A     -0.733509
      19A     -0.701654    20A     -0.672493    21A     -0.624182
      22A     -0.617330    23A     -0.600662    24A     -0.589803
      25A     -0.564030    26A     -0.550683    27A     -0.514096
      28A     -0.498809    29A     -0.489648    30A     -0.477852
      31A     -0.425483    32A     -0.409046    33A     -0.304834

  @DF-RHF Final Energy:  -399.77686195166012

   => Energetics <=

    Nuclear Repulsion Energy =            432.6523938719843727
    One-Electron Energy =               -1400.6023272951990748
    Two-Electron Energy =                 568.1730714715546355
    Total Energy =                       -399.7768619516600666
  Basis Set: (AUG-CC-PVTZ AUX)
    Blend: AUG-CC-PVTZ-RI
    Molecular point group: c1

    Geometry (in Angstrom), charge = 0, multiplicity = 1:

       Center              X                  Y                   Z               Mass
    ------------   -----------------  -----------------  -----------------  -----------------
         O            0.641134090463     1.937098832739    -0.207781753398    15.994914619570
         N           -1.428306909537     1.018874832739     0.132738246602    14.003074004430
         C            0.411964090463    -0.455520167261    -0.276239753398    12.000000000000
         C            1.880026090463    -0.636680167261    -0.525043753398    12.000000000000
         C           -0.006911309537     0.911029632739    -0.131988153398    12.000000000000
         C           -0.470314909537    -1.503150167261    -0.159876753398    12.000000000000
         C            2.712710090463    -0.351663167261     0.729239246602    12.000000000000
         C           -1.852219909537    -1.302042167261     0.107146246602    12.000000000000
         C           -2.306584909537    -0.022428167261     0.250512246602    12.000000000000
         H            2.061489090463    -1.658622167261    -0.877409753398     1.007825032230
         H            2.185475090463     0.050274832739    -1.321715753398     1.007825032230
         H           -0.097213909537    -2.519485167261    -0.280846753398     1.007825032230
         H            3.778365090463    -0.495184167261     0.526864246602     1.007825032230
         H            2.424917090463    -1.023779167261     1.542980246602     1.007825032230
         H            2.557600090463     0.679463832739     1.051595246602     1.007825032230
         H           -1.751420909537     1.977690832739     0.235450246602     1.007825032230
         H           -2.538754909537    -2.136073167261     0.196376246602     1.007825032230
         H           -3.340004909537     0.238300832739     0.454467246602     1.007825032230

  Basis Set: AUG-CC-PVTZ
    Blend: AUG-CC-PVTZ
  Basis Set: (AUG-CC-PVTZ AUX)
    Blend: AUG-CC-PVTZ-JKFIT
	 Reference Energy          =    -399.7768619516601234 [Eh]
	 Singles Energy            =      -0.0000000000000000 [Eh]
	 Same-Spin Energy          =      -0.4242218996339487 [Eh]
	 Opposite-Spin Energy      =      -1.3399465753503901 [Eh]
	 Correlation Energy        =      -1.7641684749843387 [Eh]
	 Total Energy              =    -401.5410304266444541 [Eh]

	 ================> DF-SCS-MP2 Energies <==================
	-----------------------------------------------------------
	 SCS Same-Spin Scale       =       0.3333333333333333 [-]
	 SCS Opposite-Spin Scale   =       1.2000000000000000 [-]
	 SCS Same-Spin Energy      =      -0.1414072998779829 [Eh]
	 SCS Opposite-Spin Energy  =      -1.6079358904204681 [Eh]
	 SCS Correlation Energy    =      -1.7493431902984511 [Eh]
	 SCS Total Energy          =    -401.5262051419585987 [Eh]
	-----------------------------------------------------------

  Dipole Moment: [D]
     X:    -2.6967      Y:    -2.1026      Z:     0.4414     Total:     3.4479

*** Psi4 exiting successfully. Buy a developer a beer!
