                               Psi4 1.3.2 release

  ==> Input File <==

--------------------------------------------------------------------------
#psi4
#
memory 32 gb

molecule  {
0 1
  O        0.6058420     1.9734460    -0.2200840
  N       -1.4635990     1.0552220     0.1204360
  C        0.4147608    -0.3810962    -0.1410629
  C        1.8447340    -0.6003330    -0.5373460
  C       -0.0912220     0.9510960    -0.1351610
  C       -0.5056070    -1.4668030    -0.1721790
  C        2.6774180    -0.3153160     0.7169370
  C       -1.8875120    -1.2656950     0.0948440
  C       -2.3418770     0.0139190     0.2382100
  H        2.0261970    -1.6222750    -0.8897120
  H        2.1501830     0.0866220    -1.3340180
  H       -0.1325060    -2.4831380    -0.2931490
  H        3.7430730    -0.4588370     0.5145620
  H        2.3896250    -0.9874320     1.5306780
  H        2.5223080     0.7158110     1.0392930
  H       -1.7867130     2.0140380     0.2231480
  H       -2.5740470    -2.0997260     0.1840740
  H       -3.3752970     0.2746480     0.4421650
units angstrom
no_reorient  #important for SAPT in psi4, default
symmetry c1  #important for SAPT in psi4, default
}

set PROPERTIES_ORIGIN ["COM"]
properties('MP2/aug-cc-pvtz', properties = ['dipole'])
--------------------------------------------------------------------------

    Molecular point group: c1
  Charge       = 0
  Multiplicity = 1
  Basis Set: AUG-CC-PVTZ
    Blend: AUG-CC-PVTZ
  Basis Set: (AUG-CC-PVTZ AUX)
    Blend: AUG-CC-PVTZ-JKFIT

    Orbital Energies [Eh]
    ---------------------

    Doubly Occupied:

       1A    -20.504364     2A    -15.628232     3A    -11.348282
       4A    -11.312932     5A    -11.275377     6A    -11.245914
       7A    -11.244259     8A    -11.223378     9A    -11.202133
      10A     -1.368587    11A     -1.271363    12A     -1.113774
      13A     -1.057638    14A     -0.992361    15A     -0.891038
      16A     -0.866134    17A     -0.814052    18A     -0.740718
      19A     -0.702089    20A     -0.672741    21A     -0.626853
      22A     -0.609868    23A     -0.604593    24A     -0.591663
      25A     -0.565858    26A     -0.546221    27A     -0.508504
      28A     -0.495224    29A     -0.481948    30A     -0.471102
      31A     -0.421618    32A     -0.406060    33A     -0.304455

  @DF-RHF Final Energy:  -399.76700985877693

   => Energetics <=

    Nuclear Repulsion Energy =            432.8596583544408531
    One-Electron Energy =               -1401.0346701025412131
    Two-Electron Energy =                 568.4080018893234865
    Total Energy =                       -399.7670098587768734
  Basis Set: (AUG-CC-PVTZ AUX)
    Blend: AUG-CC-PVTZ-RI
    Molecular point group: c1

    Geometry (in Angstrom), charge = 0, multiplicity = 1:

       Center              X                  Y                   Z               Mass
    ------------   -----------------  -----------------  -----------------  -----------------
         O            0.642199819644     1.933023440979    -0.223052137896    15.994914619570
         N           -1.427241180356     1.014799440979     0.117467862104    14.003074004430
         C            0.451118619644    -0.421518759021    -0.144031037896    12.000000000000
         C            1.881091819644    -0.640755559021    -0.540314137896    12.000000000000
         C           -0.054864180356     0.910673440979    -0.138129137896    12.000000000000
         C           -0.469249180356    -1.507225559021    -0.175147137896    12.000000000000
         C            2.713775819644    -0.355738559021     0.713968862104    12.000000000000
         C           -1.851154180356    -1.306117559021     0.091875862104    12.000000000000
         C           -2.305519180356    -0.026503559021     0.235241862104    12.000000000000
         H            2.062554819644    -1.662697559021    -0.892680137896     1.007825032230
         H            2.186540819644     0.046199440979    -1.336986137896     1.007825032230
         H           -0.096148180356    -2.523560559021    -0.296117137896     1.007825032230
         H            3.779430819644    -0.499259559021     0.511593862104     1.007825032230
         H            2.425982819644    -1.027854559021     1.527709862104     1.007825032230
         H            2.558665819644     0.675388440979     1.036324862104     1.007825032230
         H           -1.750355180356     1.973615440979     0.220179862104     1.007825032230
         H           -2.537689180356    -2.140148559021     0.181105862104     1.007825032230
         H           -3.338939180356     0.234225440979     0.439196862104     1.007825032230

  Basis Set: AUG-CC-PVTZ
    Blend: AUG-CC-PVTZ
  Basis Set: (AUG-CC-PVTZ AUX)
    Blend: AUG-CC-PVTZ-JKFIT
	 Reference Energy          =    -399.7670098587769303 [Eh]
	 Singles Energy            =      -0.0000000000000000 [Eh]
	 Same-Spin Energy          =      -0.4255128775422757 [Eh]
	 Opposite-Spin Energy      =      -1.3421053366560094 [Eh]
	 Correlation Energy        =      -1.7676182141982850 [Eh]
	 Total Energy              =    -401.5346280729752380 [Eh]

	 ================> DF-SCS-MP2 Energies <==================
	-----------------------------------------------------------
	 SCS Same-Spin Scale       =       0.3333333333333333 [-]
	 SCS Opposite-Spin Scale   =       1.2000000000000000 [-]
	 SCS Same-Spin Energy      =      -0.1418376258474252 [Eh]
	 SCS Opposite-Spin Energy  =      -1.6105264039872111 [Eh]
	 SCS Correlation Energy    =      -1.7523640298346363 [Eh]
	 SCS Total Energy          =    -401.5193738886115398 [Eh]
	-----------------------------------------------------------

  Dipole Moment: [D]
     X:    -3.0376      Y:    -2.3384      Z:     0.4335     Total:     3.8579

*** Psi4 exiting successfully. Buy a developer a beer!
