                               Psi4 1.3.2 release

  ==> Input File <==

--------------------------------------------------------------------------
#psi4
#
memory 32 gb

molecule  {
0 1
  O        0.6058420     1.9734460    -0.2200840
  N       -1.4635990     1.0552220     0.1204360
  C        0.3766720    -0.4191730    -0.2885420
  C        1.8447340    -0.6003330    -0.5373460
  C        0.1048523     0.9362193    -0.1716787
  C       -0.5056070    -1.4668030    -0.1721790
  C        2.6774180    -0.3153160     0.7169370
  C       -1.8875120    -1.2656950     0.0948440
  C       -2.3418770     0.0139190     0.2382100
  H        2.0261970    -1.6222750    -0.8897120
  H        2.1501830     0.0866220    -1.3340180
  H       -0.1325060    -2.4831380    -0.2931490
  H        3.7430730    -0.4588370     0.5145620
  H        2.3896250    -0.9874320     1.5306780
  H        2.5223080     0.7158110     1.0392930
  H       -1.7867130     2.0140380     0.2231480
  H       -2.5740470    -2.0997260     0.1840740
  H       -3.3752970     0.2746480     0.4421650
units angstrom
no_reorient  #important for SAPT in psi4, default
symmetry c1  #important for SAPT in psi4, default
}

set PROPERTIES_ORIGIN ["COM"]
properties('MP2/aug-cc-pvtz', properties = ['dipole'])
--------------------------------------------------------------------------

    Molecular point group: c1
  Charge       = 0
  Multiplicity = 1
  Basis Set: AUG-CC-PVTZ
    Blend: AUG-CC-PVTZ
  Basis Set: (AUG-CC-PVTZ AUX)
    Blend: AUG-CC-PVTZ-JKFIT

    Orbital Energies [Eh]
    ---------------------

    Doubly Occupied:

       1A    -20.539816     2A    -15.595934     3A    -11.361303
       4A    -11.304219     5A    -11.274975     6A    -11.232628
       7A    -11.227033     8A    -11.223545     9A    -11.208552
      10A     -1.434455    11A     -1.237841    12A     -1.118774
      13A     -1.049367    14A     -0.987260    15A     -0.893725
      16A     -0.854060    17A     -0.800369    18A     -0.722903
      19A     -0.699750    20A     -0.683487    21A     -0.629083
      22A     -0.621512    23A     -0.603191    24A     -0.588114
      25A     -0.563434    26A     -0.556670    27A     -0.515091
      28A     -0.508553    29A     -0.498076    30A     -0.483375
      31A     -0.420893    32A     -0.400837    33A     -0.299964

  @DF-RHF Final Energy:  -399.74419964731231

   => Energetics <=

    Nuclear Repulsion Energy =            432.8782869620383735
    One-Electron Energy =               -1400.9673895088046720
    Two-Electron Energy =                 568.3449028994539276
    Total Energy =                       -399.7441996473123709
  Basis Set: (AUG-CC-PVTZ AUX)
    Blend: AUG-CC-PVTZ-RI
    Molecular point group: c1

    Geometry (in Angstrom), charge = 0, multiplicity = 1:

       Center              X                  Y                   Z               Mass
    ------------   -----------------  -----------------  -----------------  -----------------
         O            0.626795168363     1.938186764206    -0.205111209515    15.994914619570
         N           -1.442645831637     1.019962764206     0.135408790485    14.003074004430
         C            0.397625168363    -0.454432235794    -0.273569209515    12.000000000000
         C            1.865687168363    -0.635592235794    -0.522373209515    12.000000000000
         C            0.125805468363     0.900960064206    -0.156705909515    12.000000000000
         C           -0.484653831637    -1.502062235794    -0.157206209515    12.000000000000
         C            2.698371168363    -0.350575235794     0.731909790485    12.000000000000
         C           -1.866558831637    -1.300954235794     0.109816790485    12.000000000000
         C           -2.320923831637    -0.021340235794     0.253182790485    12.000000000000
         H            2.047150168363    -1.657534235794    -0.874739209515     1.007825032230
         H            2.171136168363     0.051362764206    -1.319045209515     1.007825032230
         H           -0.111552831637    -2.518397235794    -0.278176209515     1.007825032230
         H            3.764026168363    -0.494096235794     0.529534790485     1.007825032230
         H            2.410578168363    -1.022691235794     1.545650790485     1.007825032230
         H            2.543261168363     0.680551764206     1.054265790485     1.007825032230
         H           -1.765759831637     1.978778764206     0.238120790485     1.007825032230
         H           -2.553093831637    -2.134985235794     0.199046790485     1.007825032230
         H           -3.354343831637     0.239388764206     0.457137790485     1.007825032230

  Basis Set: AUG-CC-PVTZ
    Blend: AUG-CC-PVTZ
  Basis Set: (AUG-CC-PVTZ AUX)
    Blend: AUG-CC-PVTZ-JKFIT
	 Reference Energy          =    -399.7441996473123140 [Eh]
	 Singles Energy            =      -0.0000000000000000 [Eh]
	 Same-Spin Energy          =      -0.4257224604420198 [Eh]
	 Opposite-Spin Energy      =      -1.3415753168114464 [Eh]
	 Correlation Energy        =      -1.7672977772534662 [Eh]
	 Total Energy              =    -401.5114974245657891 [Eh]

	 ================> DF-SCS-MP2 Energies <==================
	-----------------------------------------------------------
	 SCS Same-Spin Scale       =       0.3333333333333333 [-]
	 SCS Opposite-Spin Scale   =       1.2000000000000000 [-]
	 SCS Same-Spin Energy      =      -0.1419074868140066 [Eh]
	 SCS Opposite-Spin Energy  =      -1.6098903801737356 [Eh]
	 SCS Correlation Energy    =      -1.7517978669877423 [Eh]
	 SCS Total Energy          =    -401.4959975143000293 [Eh]
	-----------------------------------------------------------

  Dipole Moment: [D]
     X:    -1.9232      Y:    -1.6884      Z:     0.3257     Total:     2.5798

*** Psi4 exiting successfully. Buy a developer a beer!
