                               Psi4 1.3.2 release

  ==> Input File <==

--------------------------------------------------------------------------
#psi4
#
memory 32 gb

molecule  {
0 1
  O        0.6058420     1.9734460    -0.2200840
  N       -1.4635990     1.0552220     0.1204360
  C        0.3766720    -0.4191730    -0.2885420
  C        1.8447340    -0.6003330    -0.5373460
  C       -0.0912220     0.9510960    -0.1351610
  C       -0.5056070    -1.4668030    -0.1721790
  C        2.6774180    -0.3153160     0.7169370
  C       -1.8875120    -1.2656950     0.0948440
  C       -2.2776433     0.0900757     0.2295965
  H        2.0261970    -1.6222750    -0.8897120
  H        2.1501830     0.0866220    -1.3340180
  H       -0.1325060    -2.4831380    -0.2931490
  H        3.7430730    -0.4588370     0.5145620
  H        2.3896250    -0.9874320     1.5306780
  H        2.5223080     0.7158110     1.0392930
  H       -1.7867130     2.0140380     0.2231480
  H       -2.5740470    -2.0997260     0.1840740
  H       -3.3752970     0.2746480     0.4421650
units angstrom
no_reorient  #important for SAPT in psi4, default
symmetry c1  #important for SAPT in psi4, default
}

set PROPERTIES_ORIGIN ["COM"]
properties('MP2/aug-cc-pvtz', properties = ['dipole'])
--------------------------------------------------------------------------

    Molecular point group: c1
  Charge       = 0
  Multiplicity = 1
  Basis Set: AUG-CC-PVTZ
    Blend: AUG-CC-PVTZ
  Basis Set: (AUG-CC-PVTZ AUX)
    Blend: AUG-CC-PVTZ-JKFIT

    Orbital Energies [Eh]
    ---------------------

    Doubly Occupied:

       1A    -20.510582     2A    -15.638778     3A    -11.353814
       4A    -11.317153     5A    -11.264250     6A    -11.240642
       7A    -11.237306     8A    -11.221250     9A    -11.203194
      10A     -1.381495    11A     -1.304416    12A     -1.116747
      13A     -1.046091    14A     -0.992266    15A     -0.891196
      16A     -0.875067    17A     -0.822516    18A     -0.752325
      19A     -0.706674    20A     -0.664471    21A     -0.630088
      22A     -0.620857    23A     -0.603963    24A     -0.586937
      25A     -0.562875    26A     -0.539870    27A     -0.513544
      28A     -0.495702    29A     -0.485504    30A     -0.473907
      31A     -0.422629    32A     -0.413650    33A     -0.293714

  @DF-RHF Final Energy:  -399.76551790637944

   => Energetics <=

    Nuclear Repulsion Energy =            434.0174410772285682
    One-Electron Energy =               -1403.1989762315383814
    Two-Electron Energy =                 569.4160172479303128
    Total Energy =                       -399.7655179063795003
  Basis Set: (AUG-CC-PVTZ AUX)
    Blend: AUG-CC-PVTZ-RI
    Molecular point group: c1

    Geometry (in Angstrom), charge = 0, multiplicity = 1:

       Center              X                  Y                   Z               Mass
    ------------   -----------------  -----------------  -----------------  -----------------
         O            0.639650515643     1.929310394021    -0.207832057126    15.994914619570
         N           -1.429790484357     1.011086394021     0.132687942874    14.003074004430
         C            0.410480515643    -0.463308605979    -0.276290057126    12.000000000000
         C            1.878542515643    -0.644468605979    -0.525094057126    12.000000000000
         C           -0.057413484357     0.906960394021    -0.122909057126    12.000000000000
         C           -0.471798484357    -1.510938605979    -0.159927057126    12.000000000000
         C            2.711226515643    -0.359451605979     0.729188942874    12.000000000000
         C           -1.853703484357    -1.309830605979     0.107095942874    12.000000000000
         C           -2.243834784357     0.045940094021     0.241848442874    12.000000000000
         H            2.060005515643    -1.666410605979    -0.877460057126     1.007825032230
         H            2.183991515643     0.042486394021    -1.321766057126     1.007825032230
         H           -0.098697484357    -2.527273605979    -0.280897057126     1.007825032230
         H            3.776881515643    -0.502972605979     0.526813942874     1.007825032230
         H            2.423433515643    -1.031567605979     1.542929942874     1.007825032230
         H            2.556116515643     0.671675394021     1.051544942874     1.007825032230
         H           -1.752904484357     1.969902394021     0.235399942874     1.007825032230
         H           -2.540238484357    -2.143861605979     0.196325942874     1.007825032230
         H           -3.341488484357     0.230512394021     0.454416942874     1.007825032230

  Basis Set: AUG-CC-PVTZ
    Blend: AUG-CC-PVTZ
  Basis Set: (AUG-CC-PVTZ AUX)
    Blend: AUG-CC-PVTZ-JKFIT
	 Reference Energy          =    -399.7655179063794435 [Eh]
	 Singles Energy            =      -0.0000000000000000 [Eh]
	 Same-Spin Energy          =      -0.4254686563803924 [Eh]
	 Opposite-Spin Energy      =      -1.3400626752463101 [Eh]
	 Correlation Energy        =      -1.7655313316267025 [Eh]
	 Total Energy              =    -401.5310492380061191 [Eh]

	 ================> DF-SCS-MP2 Energies <==================
	-----------------------------------------------------------
	 SCS Same-Spin Scale       =       0.3333333333333333 [-]
	 SCS Opposite-Spin Scale   =       1.2000000000000000 [-]
	 SCS Same-Spin Energy      =      -0.1418228854601308 [Eh]
	 SCS Opposite-Spin Energy  =      -1.6080752102955720 [Eh]
	 SCS Correlation Energy    =      -1.7498980957557029 [Eh]
	 SCS Total Energy          =    -401.5154160021351686 [Eh]
	-----------------------------------------------------------

  Dipole Moment: [D]
     X:    -3.0453      Y:    -1.9751      Z:     0.4997     Total:     3.6639

*** Psi4 exiting successfully. Buy a developer a beer!
