                               Psi4 1.3.2 release

  ==> Input File <==

--------------------------------------------------------------------------
#psi4
#
memory 32 gb

molecule  {
0 1
  O        0.6058420     1.9734460    -0.2200840
  N       -1.4635990     1.0552220     0.1204360
  C        0.3766720    -0.4191730    -0.2885420
  C        1.8447340    -0.6003330    -0.5373460
  C       -0.0912220     0.9510960    -0.1351610
  C       -0.5056070    -1.4668030    -0.1721790
  C        2.6774180    -0.3153160     0.7169370
  C       -1.8875120    -1.2656950     0.0948440
  C       -2.3418770     0.0139190     0.2382100
  H        2.0261970    -1.6222750    -0.8897120
  H        2.1501830     0.0866220    -1.3340180
  H       -0.1325060    -2.4831380    -0.2931490
  H        3.7430730    -0.4588370     0.5145620
  H        2.3896250    -0.9874320     1.5306780
  H        2.5223080     0.7158110     1.0392930
  H       -1.8184844     2.1083172     0.2332475
  H       -2.5740470    -2.0997260     0.1840740
  H       -3.3752970     0.2746480     0.4421650
units angstrom
no_reorient  #important for SAPT in psi4, default
symmetry c1  #important for SAPT in psi4, default
}

set PROPERTIES_ORIGIN ["COM"]
properties('MP2/aug-cc-pvtz', properties = ['dipole'])
--------------------------------------------------------------------------

    Molecular point group: c1
  Charge       = 0
  Multiplicity = 1
  Basis Set: AUG-CC-PVTZ
    Blend: AUG-CC-PVTZ
  Basis Set: (AUG-CC-PVTZ AUX)
    Blend: AUG-CC-PVTZ-JKFIT

    Orbital Energies [Eh]
    ---------------------

    Doubly Occupied:

       1A    -20.508841     2A    -15.633740     3A    -11.352330
       4A    -11.309024     5A    -11.265336     6A    -11.244617
       7A    -11.241913     8A    -11.223772     9A    -11.205235
      10A     -1.367645    11A     -1.264559    12A     -1.114380
      13A     -1.053255    14A     -0.993035    15A     -0.885466
      16A     -0.861892    17A     -0.815607    18A     -0.726241
      19A     -0.700329    20A     -0.664057    21A     -0.623250
      22A     -0.610883    23A     -0.601873    24A     -0.590043
      25A     -0.564230    26A     -0.542932    27A     -0.513838
      28A     -0.494859    29A     -0.485594    30A     -0.473531
      31A     -0.421728    32A     -0.410023    33A     -0.305664

  @DF-RHF Final Energy:  -399.76881278920541

   => Energetics <=

    Nuclear Repulsion Energy =            432.0323923831354591
    One-Electron Energy =               -1399.4629684451872436
    Two-Electron Energy =                 567.6617632728464287
    Total Energy =                       -399.7688127892054126
  Basis Set: (AUG-CC-PVTZ AUX)
    Blend: AUG-CC-PVTZ-RI
    Molecular point group: c1

    Geometry (in Angstrom), charge = 0, multiplicity = 1:

       Center              X                  Y                   Z               Mass
    ------------   -----------------  -----------------  -----------------  -----------------
         O            0.646173915000     1.935964119669    -0.208754637708    15.994914619570
         N           -1.423267085000     1.017740119669     0.131765362292    14.003074004430
         C            0.417003915000    -0.456654880331    -0.277212637708    12.000000000000
         C            1.885065915000    -0.637814880331    -0.526016637708    12.000000000000
         C           -0.050890085000     0.913614119669    -0.123831637708    12.000000000000
         C           -0.465275085000    -1.504284880331    -0.160849637708    12.000000000000
         C            2.717749915000    -0.352797880331     0.728266362292    12.000000000000
         C           -1.847180085000    -1.303176880331     0.106173362292    12.000000000000
         C           -2.301545085000    -0.023562880331     0.249539362292    12.000000000000
         H            2.066528915000    -1.659756880331    -0.878382637708     1.007825032230
         H            2.190514915000     0.049140119669    -1.322688637708     1.007825032230
         H           -0.092174085000    -2.520619880331    -0.281819637708     1.007825032230
         H            3.783404915000    -0.496318880331     0.525891362292     1.007825032230
         H            2.429956915000    -1.024913880331     1.542007362292     1.007825032230
         H            2.562639915000     0.678329119669     1.050622362292     1.007825032230
         H           -1.778152485000     2.070835319669     0.244576862292     1.007825032230
         H           -2.533715085000    -2.137207880331     0.195403362292     1.007825032230
         H           -3.334965085000     0.237166119669     0.453494362292     1.007825032230

  Basis Set: AUG-CC-PVTZ
    Blend: AUG-CC-PVTZ
  Basis Set: (AUG-CC-PVTZ AUX)
    Blend: AUG-CC-PVTZ-JKFIT
	 Reference Energy          =    -399.7688127892054126 [Eh]
	 Singles Energy            =      -0.0000000000000000 [Eh]
	 Same-Spin Energy          =      -0.4249734283124244 [Eh]
	 Opposite-Spin Energy      =      -1.3420114295924188 [Eh]
	 Correlation Energy        =      -1.7669848579048431 [Eh]
	 Total Energy              =    -401.5357976471102575 [Eh]

	 ================> DF-SCS-MP2 Energies <==================
	-----------------------------------------------------------
	 SCS Same-Spin Scale       =       0.3333333333333333 [-]
	 SCS Opposite-Spin Scale   =       1.2000000000000000 [-]
	 SCS Same-Spin Energy      =      -0.1416578094374748 [Eh]
	 SCS Opposite-Spin Energy  =      -1.6104137155109026 [Eh]
	 SCS Correlation Energy    =      -1.7520715249483774 [Eh]
	 SCS Total Energy          =    -401.5208843141538182 [Eh]
	-----------------------------------------------------------

  Dipole Moment: [D]
     X:    -2.9824      Y:    -2.1335      Z:     0.4905     Total:     3.6996

*** Psi4 exiting successfully. Buy a developer a beer!
