                               Psi4 1.3.2 release

  ==> Input File <==

--------------------------------------------------------------------------
#psi4
#
memory 32 gb

molecule  {
0 1
  O        0.6058420     1.9734460    -0.2200840
  N       -1.4635990     1.0552220     0.1204360
  C        0.3766720    -0.4191730    -0.2885420
  C        1.8447340    -0.6003330    -0.5373460
  C       -0.0912220     0.9510960    -0.1351610
  C       -0.5056070    -1.4668030    -0.1721790
  C        2.6774180    -0.3153160     0.7169370
  C       -1.8875120    -1.2656950     0.0948440
  C       -2.3418770     0.0139190     0.2382100
  H        2.0261970    -1.6222750    -0.8897120
  H        2.1501830     0.0866220    -1.3340180
  H       -0.1325060    -2.4831380    -0.2931490
  H        3.7430730    -0.4588370     0.5145620
  H        2.3896250    -0.9874320     1.5306780
  H        2.5223080     0.7158110     1.0392930
  H       -1.8502558     2.2025965     0.2433471
  H       -2.5740470    -2.0997260     0.1840740
  H       -3.3752970     0.2746480     0.4421650
units angstrom
no_reorient  #important for SAPT in psi4, default
symmetry c1  #important for SAPT in psi4, default
}

set PROPERTIES_ORIGIN ["COM"]
properties('MP2/aug-cc-pvtz', properties = ['dipole'])
--------------------------------------------------------------------------

    Molecular point group: c1
  Charge       = 0
  Multiplicity = 1
  Basis Set: AUG-CC-PVTZ
    Blend: AUG-CC-PVTZ
  Basis Set: (AUG-CC-PVTZ AUX)
    Blend: AUG-CC-PVTZ-JKFIT

    Orbital Energies [Eh]
    ---------------------

    Doubly Occupied:

       1A    -20.507842     2A    -15.639714     3A    -11.351795
       4A    -11.308676     5A    -11.264789     6A    -11.244333
       7A    -11.241281     8A    -11.223490     9A    -11.204904
      10A     -1.365587    11A     -1.259662    12A     -1.111878
      13A     -1.051736    14A     -0.992536    15A     -0.883588
      16A     -0.857025    17A     -0.813735    18A     -0.718908
      19A     -0.697568    20A     -0.654767    21A     -0.619844
      22A     -0.609096    23A     -0.600813    24A     -0.589489
      25A     -0.563573    26A     -0.538714    27A     -0.513223
      28A     -0.494011    29A     -0.485016    30A     -0.472940
      31A     -0.420997    32A     -0.408870    33A     -0.304940

  @DF-RHF Final Energy:  -399.74942592037360

   => Energetics <=

    Nuclear Repulsion Energy =            431.5139651099240723
    One-Electron Energy =               -1398.4961000634150423
    Two-Electron Energy =                 567.2327090331173167
    Total Energy =                       -399.7494259203735965
  Basis Set: (AUG-CC-PVTZ AUX)
    Blend: AUG-CC-PVTZ-RI
    Molecular point group: c1

    Geometry (in Angstrom), charge = 0, multiplicity = 1:

       Center              X                  Y                   Z               Mass
    ------------   -----------------  -----------------  -----------------  -----------------
         O            0.646434095587     1.935192052853    -0.208837344792    15.994914619570
         N           -1.423006904413     1.016968052853     0.131682655208    14.003074004430
         C            0.417264095587    -0.457426947147    -0.277295344792    12.000000000000
         C            1.885326095587    -0.638586947147    -0.526099344792    12.000000000000
         C           -0.050629904413     0.912842052853    -0.123914344792    12.000000000000
         C           -0.465014904413    -1.505056947147    -0.160932344792    12.000000000000
         C            2.718010095587    -0.353569947147     0.728183655208    12.000000000000
         C           -1.846919904413    -1.303948947147     0.106090655208    12.000000000000
         C           -2.301284904413    -0.024334947147     0.249456655208    12.000000000000
         H            2.066789095587    -1.660528947147    -0.878465344792     1.007825032230
         H            2.190775095587     0.048368052853    -1.322771344792     1.007825032230
         H           -0.091913904413    -2.521391947147    -0.281902344792     1.007825032230
         H            3.783665095587    -0.497090947147     0.525808655208     1.007825032230
         H            2.430217095587    -1.025685947147     1.541924655208     1.007825032230
         H            2.562900095587     0.677557052853     1.050539655208     1.007825032230
         H           -1.809663704413     2.164342552853     0.254593755208     1.007825032230
         H           -2.533454904413    -2.137979947147     0.195320655208     1.007825032230
         H           -3.334704904413     0.236394052853     0.453411655208     1.007825032230

  Basis Set: AUG-CC-PVTZ
    Blend: AUG-CC-PVTZ
  Basis Set: (AUG-CC-PVTZ AUX)
    Blend: AUG-CC-PVTZ-JKFIT
	 Reference Energy          =    -399.7494259203735965 [Eh]
	 Singles Energy            =      -0.0000000000000000 [Eh]
	 Same-Spin Energy          =      -0.4259586402447857 [Eh]
	 Opposite-Spin Energy      =      -1.3444251739674253 [Eh]
	 Correlation Energy        =      -1.7703838142122110 [Eh]
	 Total Energy              =    -401.5198097345858059 [Eh]

	 ================> DF-SCS-MP2 Energies <==================
	-----------------------------------------------------------
	 SCS Same-Spin Scale       =       0.3333333333333333 [-]
	 SCS Opposite-Spin Scale   =       1.2000000000000000 [-]
	 SCS Same-Spin Energy      =      -0.1419862134149286 [Eh]
	 SCS Opposite-Spin Energy  =      -1.6133102087609104 [Eh]
	 SCS Correlation Energy    =      -1.7552964221758389 [Eh]
	 SCS Total Energy          =    -401.5047223425494280 [Eh]
	-----------------------------------------------------------

  Dipole Moment: [D]
     X:    -3.0256      Y:    -2.0289      Z:     0.5024     Total:     3.6774

*** Psi4 exiting successfully. Buy a developer a beer!
