                               Psi4 1.3.2 release

  ==> Input File <==

--------------------------------------------------------------------------
#psi4
#
memory 32 gb

molecule  {
0 1
  O        0.6058420     1.9734460    -0.2200840
  N       -1.4635990     1.0552220     0.1204360
  C        0.3766720    -0.4191730    -0.2885420
  C        1.8505536    -0.5483391    -0.5353571
  C       -0.0912220     0.9510960    -0.1351610
  C       -0.5056070    -1.4668030    -0.1721790
  C        2.6774180    -0.3153160     0.7169370
  C       -1.8875120    -1.2656950     0.0948440
  C       -2.3418770     0.0139190     0.2382100
  H        2.0261970    -1.6222750    -0.8897120
  H        2.1501830     0.0866220    -1.3340180
  H       -0.1325060    -2.4831380    -0.2931490
  H        3.7430730    -0.4588370     0.5145620
  H        2.3896250    -0.9874320     1.5306780
  H        2.5223080     0.7158110     1.0392930
  H       -1.7867130     2.0140380     0.2231480
  H       -2.5740470    -2.0997260     0.1840740
  H       -3.3752970     0.2746480     0.4421650
units angstrom
no_reorient  #important for SAPT in psi4, default
symmetry c1  #important for SAPT in psi4, default
}

set PROPERTIES_ORIGIN ["COM"]
properties('MP2/aug-cc-pvtz', properties = ['dipole'])
--------------------------------------------------------------------------

    Molecular point group: c1
  Charge       = 0
  Multiplicity = 1
  Basis Set: AUG-CC-PVTZ
    Blend: AUG-CC-PVTZ
  Basis Set: (AUG-CC-PVTZ AUX)
    Blend: AUG-CC-PVTZ-JKFIT

    Orbital Energies [Eh]
    ---------------------

    Doubly Occupied:

       1A    -20.509968     2A    -15.625865     3A    -11.352151
       4A    -11.309881     5A    -11.267021     6A    -11.245005
       7A    -11.243035     8A    -11.225069     9A    -11.205132
      10A     -1.370425    11A     -1.271300    12A     -1.117769
      13A     -1.056130    14A     -0.995264    15A     -0.890131
      16A     -0.866684    17A     -0.817693    18A     -0.736794
      19A     -0.702651    20A     -0.672115    21A     -0.628539
      22A     -0.612913    23A     -0.603956    24A     -0.586657
      25A     -0.566568    26A     -0.545863    27A     -0.520845
      28A     -0.491327    29A     -0.486337    30A     -0.470169
      31A     -0.421637    32A     -0.412540    33A     -0.307129

  @DF-RHF Final Energy:  -399.77622290667478

   => Energetics <=

    Nuclear Repulsion Energy =            432.8643281866526991
    One-Electron Energy =               -1401.0119797929530705
    Two-Electron Energy =                 568.3714286996255396
    Total Energy =                       -399.7762229066747750
  Basis Set: (AUG-CC-PVTZ AUX)
    Blend: AUG-CC-PVTZ-RI
    Molecular point group: c1

    Geometry (in Angstrom), charge = 0, multiplicity = 1:

       Center              X                  Y                   Z               Mass
    ------------   -----------------  -----------------  -----------------  -----------------
         O            0.645346284181     1.931666429910    -0.208865862600    15.994914619570
         N           -1.424094715819     1.013442429910     0.131654137400    14.003074004430
         C            0.416176284181    -0.460952570090    -0.277323862600    12.000000000000
         C            1.890057884181    -0.590118670090    -0.524138962600    12.000000000000
         C           -0.051717715819     0.909316429910    -0.123942862600    12.000000000000
         C           -0.466102715819    -1.508582570090    -0.160960862600    12.000000000000
         C            2.716922284181    -0.357095570090     0.728155137400    12.000000000000
         C           -1.848007715819    -1.307474570090     0.106062137400    12.000000000000
         C           -2.302372715819    -0.027860570090     0.249428137400    12.000000000000
         H            2.065701284181    -1.664054570090    -0.878493862600     1.007825032230
         H            2.189687284181     0.044842429910    -1.322799862600     1.007825032230
         H           -0.093001715819    -2.524917570090    -0.281930862600     1.007825032230
         H            3.782577284181    -0.500616570090     0.525780137400     1.007825032230
         H            2.429129284181    -1.029211570090     1.541896137400     1.007825032230
         H            2.561812284181     0.674031429910     1.050511137400     1.007825032230
         H           -1.747208715819     1.972258429910     0.234366137400     1.007825032230
         H           -2.534542715819    -2.141505570090     0.195292137400     1.007825032230
         H           -3.335792715819     0.232868429910     0.453383137400     1.007825032230

  Basis Set: AUG-CC-PVTZ
    Blend: AUG-CC-PVTZ
  Basis Set: (AUG-CC-PVTZ AUX)
    Blend: AUG-CC-PVTZ-JKFIT
	 Reference Energy          =    -399.7762229066747750 [Eh]
	 Singles Energy            =      -0.0000000000000000 [Eh]
	 Same-Spin Energy          =      -0.4241510989150076 [Eh]
	 Opposite-Spin Energy      =      -1.3401508864154097 [Eh]
	 Correlation Energy        =      -1.7643019853304174 [Eh]
	 Total Energy              =    -401.5405248920051804 [Eh]

	 ================> DF-SCS-MP2 Energies <==================
	-----------------------------------------------------------
	 SCS Same-Spin Scale       =       0.3333333333333333 [-]
	 SCS Opposite-Spin Scale   =       1.2000000000000000 [-]
	 SCS Same-Spin Energy      =      -0.1413836996383359 [Eh]
	 SCS Opposite-Spin Energy  =      -1.6081810636984917 [Eh]
	 SCS Correlation Energy    =      -1.7495647633368274 [Eh]
	 SCS Total Energy          =    -401.5257876700115958 [Eh]
	-----------------------------------------------------------

  Dipole Moment: [D]
     X:    -2.9551      Y:    -2.2078      Z:     0.4893     Total:     3.7211

*** Psi4 exiting successfully. Buy a developer a beer!
