                               Psi4 1.3.2 release

  ==> Input File <==

--------------------------------------------------------------------------
#psi4
#
memory 32 gb

molecule  {
0 1
  O        0.6058420     1.9734460    -0.2200840
  N       -1.4635990     1.0552220     0.1204360
  C        0.3766720    -0.4191730    -0.2885420
  C        1.8447340    -0.6003330    -0.5373460
  C       -0.0866295     1.0486300    -0.1315602
  C       -0.5056070    -1.4668030    -0.1721790
  C        2.6774180    -0.3153160     0.7169370
  C       -1.8875120    -1.2656950     0.0948440
  C       -2.3418770     0.0139190     0.2382100
  H        2.0261970    -1.6222750    -0.8897120
  H        2.1501830     0.0866220    -1.3340180
  H       -0.1325060    -2.4831380    -0.2931490
  H        3.7430730    -0.4588370     0.5145620
  H        2.3896250    -0.9874320     1.5306780
  H        2.5223080     0.7158110     1.0392930
  H       -1.7867130     2.0140380     0.2231480
  H       -2.5740470    -2.0997260     0.1840740
  H       -3.3752970     0.2746480     0.4421650
units angstrom
no_reorient  #important for SAPT in psi4, default
symmetry c1  #important for SAPT in psi4, default
}

set PROPERTIES_ORIGIN ["COM"]
properties('MP2/aug-cc-pvtz', properties = ['dipole'])
--------------------------------------------------------------------------

    Molecular point group: c1
  Charge       = 0
  Multiplicity = 1
  Basis Set: AUG-CC-PVTZ
    Blend: AUG-CC-PVTZ
  Basis Set: (AUG-CC-PVTZ AUX)
    Blend: AUG-CC-PVTZ-JKFIT

    Orbital Energies [Eh]
    ---------------------

    Doubly Occupied:

       1A    -20.529252     2A    -15.617523     3A    -11.355304
       4A    -11.302167     5A    -11.254156     6A    -11.244634
       7A    -11.236306     8A    -11.222259     9A    -11.206463
      10A     -1.427205    11A     -1.276182    12A     -1.106776
      13A     -1.050776    14A     -0.986833    15A     -0.882813
      16A     -0.854485    17A     -0.815454    18A     -0.729071
      19A     -0.698931    20A     -0.673886    21A     -0.637718
      22A     -0.622095    23A     -0.609935    24A     -0.586073
      25A     -0.565031    26A     -0.550378    27A     -0.513610
      28A     -0.508902    29A     -0.495680    30A     -0.479456
      31A     -0.419123    32A     -0.406361    33A     -0.300273

  @DF-RHF Final Energy:  -399.77108498028446

   => Energetics <=

    Nuclear Repulsion Energy =            432.3787734784535814
    One-Electron Energy =               -1399.9694953980276750
    Two-Electron Energy =                 567.8196369392896941
    Total Energy =                       -399.7710849802843995
  Basis Set: (AUG-CC-PVTZ AUX)
    Blend: AUG-CC-PVTZ-RI
    Molecular point group: c1

    Geometry (in Angstrom), charge = 0, multiplicity = 1:

       Center              X                  Y                   Z               Mass
    ------------   -----------------  -----------------  -----------------  -----------------
         O            0.645465934703     1.927225963159    -0.209023033717    15.994914619570
         N           -1.423975065297     1.009001963159     0.131496966283    14.003074004430
         C            0.416295934703    -0.465393036841    -0.277481033717    12.000000000000
         C            1.884357934703    -0.646553036841    -0.526285033717    12.000000000000
         C           -0.047005565297     1.002409963159    -0.120499233717    12.000000000000
         C           -0.465983065297    -1.513023036841    -0.161118033717    12.000000000000
         C            2.717041934703    -0.361536036841     0.727997966283    12.000000000000
         C           -1.847888065297    -1.311915036841     0.105904966283    12.000000000000
         C           -2.302253065297    -0.032301036841     0.249270966283    12.000000000000
         H            2.065820934703    -1.668495036841    -0.878651033717     1.007825032230
         H            2.189806934703     0.040401963159    -1.322957033717     1.007825032230
         H           -0.092882065297    -2.529358036841    -0.282088033717     1.007825032230
         H            3.782696934703    -0.505057036841     0.525622966283     1.007825032230
         H            2.429248934703    -1.033652036841     1.541738966283     1.007825032230
         H            2.561931934703     0.669590963159     1.050353966283     1.007825032230
         H           -1.747089065297     1.967817963159     0.234208966283     1.007825032230
         H           -2.534423065297    -2.145946036841     0.195134966283     1.007825032230
         H           -3.335673065297     0.228427963159     0.453225966283     1.007825032230

  Basis Set: AUG-CC-PVTZ
    Blend: AUG-CC-PVTZ
  Basis Set: (AUG-CC-PVTZ AUX)
    Blend: AUG-CC-PVTZ-JKFIT
	 Reference Energy          =    -399.7710849802844564 [Eh]
	 Singles Energy            =      -0.0000000000000000 [Eh]
	 Same-Spin Energy          =      -0.4217488808808094 [Eh]
	 Opposite-Spin Energy      =      -1.3368699162915896 [Eh]
	 Correlation Energy        =      -1.7586187971723990 [Eh]
	 Total Energy              =    -401.5297037774568594 [Eh]

	 ================> DF-SCS-MP2 Energies <==================
	-----------------------------------------------------------
	 SCS Same-Spin Scale       =       0.3333333333333333 [-]
	 SCS Opposite-Spin Scale   =       1.2000000000000000 [-]
	 SCS Same-Spin Energy      =      -0.1405829602936031 [Eh]
	 SCS Opposite-Spin Energy  =      -1.6042438995499075 [Eh]
	 SCS Correlation Energy    =      -1.7448268598435106 [Eh]
	 SCS Total Energy          =    -401.5159118401279557 [Eh]
	-----------------------------------------------------------

  Dipole Moment: [D]
     X:    -2.5455      Y:    -1.5781      Z:     0.4269     Total:     3.0253

*** Psi4 exiting successfully. Buy a developer a beer!
