                               Psi4 1.4a3.dev225

  ==> Input File <==

--------------------------------------------------------------------------
#psi4
#
memory 32 gb

molecule  {
0 1
  O        0.6058420     1.9734460    -0.2200840
  N       -1.4635990     1.0552220     0.1204360
  C        0.3766720    -0.4191730    -0.2885420
  C        1.8447340    -0.6003330    -0.5373460
  C       -0.1402406     0.9548152    -0.1260316
  C       -0.5056070    -1.4668030    -0.1721790
  C        2.6774180    -0.3153160     0.7169370
  C       -1.8875120    -1.2656950     0.0948440
  C       -2.3418770     0.0139190     0.2382100
  H        2.0261970    -1.6222750    -0.8897120
  H        2.1501830     0.0866220    -1.3340180
  H       -0.1325060    -2.4831380    -0.2931490
  H        3.7430730    -0.4588370     0.5145620
  H        2.3896250    -0.9874320     1.5306780
  H        2.5223080     0.7158110     1.0392930
  H       -1.7867130     2.0140380     0.2231480
  H       -2.5740470    -2.0997260     0.1840740
  H       -3.3752970     0.2746480     0.4421650
units angstrom
no_reorient  #important for SAPT in psi4, default
symmetry c1  #important for SAPT in psi4, default
}

set PROPERTIES_ORIGIN ["COM"]
properties('MP2/aug-cc-pvtz', properties = ['dipole'])
--------------------------------------------------------------------------

    Molecular point group: c1
  Charge       = 0
  Multiplicity = 1
  Basis Set: AUG-CC-PVTZ
    Blend: AUG-CC-PVTZ
  Basis Set: (AUG-CC-PVTZ AUX)
    Blend: AUG-CC-PVTZ-JKFIT

    Orbital Energies [Eh]
    ---------------------

    Doubly Occupied:

       1A    -20.502475     2A    -15.631640     3A    -11.351103
       4A    -11.309933     5A    -11.263740     6A    -11.249198
       7A    -11.247083     8A    -11.224761     9A    -11.205127
      10A     -1.362817    11A     -1.273980    12A     -1.118833
      13A     -1.056995    14A     -0.995815    15A     -0.890523
      16A     -0.871901    17A     -0.821818    18A     -0.740582
      19A     -0.704511    20A     -0.672014    21A     -0.627476
      22A     -0.612175    23A     -0.602039    24A     -0.591511
      25A     -0.565831    26A     -0.539825    27A     -0.514866
      28A     -0.493879    29A     -0.483734    30A     -0.468294
      31A     -0.417233    32A     -0.413013    33A     -0.308117

  @DF-RHF Final Energy:  -399.77648736655851

   => Energetics <=

    Nuclear Repulsion Energy =            432.6084831434151852
    One-Electron Energy =               -1400.5042604075672443
    Two-Electron Energy =                 568.1192898975934895
    Total Energy =                       -399.7764873665585128
  Basis Set: (AUG-CC-PVTZ AUX)
    Blend: AUG-CC-PVTZ-RI
    Molecular point group: c1

    Geometry (in Angstrom), charge = 0, multiplicity = 1:

       Center              X                  Y                   Z               Mass
    ------------   -----------------  -----------------  -----------------  -----------------
         O            0.650693378363     1.936373538595    -0.209562109487    15.994914619570
         N           -1.418747621637     1.018149538595     0.130957890513    14.003074004430
         C            0.421523378363    -0.456245461405    -0.278020109487    12.000000000000
         C            1.889585378363    -0.637405461405    -0.526824109487    12.000000000000
         C           -0.095389221637     0.917742738595    -0.115509709487    12.000000000000
         C           -0.460755621637    -1.503875461405    -0.161657109487    12.000000000000
         C            2.722269378363    -0.352388461405     0.727458890513    12.000000000000
         C           -1.842660621637    -1.302767461405     0.105365890513    12.000000000000
         C           -2.297025621637    -0.023153461405     0.248731890513    12.000000000000
         H            2.071048378363    -1.659347461405    -0.879190109487     1.007825032230
         H            2.195034378363     0.049549538595    -1.323496109487     1.007825032230
         H           -0.087654621637    -2.520210461405    -0.282627109487     1.007825032230
         H            3.787924378363    -0.495909461405     0.525083890513     1.007825032230
         H            2.434476378363    -1.024504461405     1.541199890513     1.007825032230
         H            2.567159378363     0.678738538595     1.049814890513     1.007825032230
         H           -1.741861621637     1.976965538595     0.233669890513     1.007825032230
         H           -2.529195621637    -2.136798461405     0.194595890513     1.007825032230
         H           -3.330445621637     0.237575538595     0.452686890513     1.007825032230

  Basis Set: AUG-CC-PVTZ
    Blend: AUG-CC-PVTZ
  Basis Set: (AUG-CC-PVTZ AUX)
    Blend: AUG-CC-PVTZ-JKFIT
	 Reference Energy          =    -399.7764873665585128 [Eh]
	 Singles Energy            =      -0.0000000000000000 [Eh]
	 Same-Spin Energy          =      -0.4239988747888886 [Eh]
	 Opposite-Spin Energy      =      -1.3401579311928762 [Eh]
	 Correlation Energy        =      -1.7641568059817647 [Eh]
	 Total Energy              =    -401.5406441725402829 [Eh]

	 ================> DF-SCS-MP2 Energies <==================
	-----------------------------------------------------------
	 SCS Same-Spin Scale       =       0.3333333333333333 [-]
	 SCS Opposite-Spin Scale   =       1.2000000000000000 [-]
	 SCS Same-Spin Energy      =      -0.1413329582629629 [Eh]
	 SCS Opposite-Spin Energy  =      -1.6081895174314513 [Eh]
	 SCS Correlation Energy    =      -1.7495224756944141 [Eh]
	 SCS Total Energy          =    -401.5260098422529040 [Eh]
	-----------------------------------------------------------

  Dipole Moment: [D]
     X:    -3.1641      Y:    -2.3872      Z:     0.5130     Total:     3.9967

*** Psi4 exiting successfully. Buy a developer a beer!
