                               Psi4 1.3.2 release

  ==> Input File <==

--------------------------------------------------------------------------
#psi4
#
memory 32 gb

molecule  {
0 1
  O        0.6058420     1.9734460    -0.2200840
  N       -1.4635990     1.0552220     0.1204360
  C        0.3766720    -0.4191730    -0.2885420
  C        1.8447340    -0.6003330    -0.5373460
  C       -0.0912220     0.9510960    -0.1351610
  C       -0.5056070    -1.4668030    -0.1721790
  C        2.6774180    -0.3153160     0.7169370
  C       -1.8875120    -1.2656950     0.0948440
  C       -2.3418770     0.0139190     0.2382100
  H        2.0261970    -1.6222750    -0.8897120
  H        2.1501830     0.0866220    -1.3340180
  H       -0.1325060    -2.4831380    -0.2931490
  H        3.7430730    -0.4588370     0.5145620
  H        2.3896250    -0.9874320     1.5306780
  H        2.5223080     0.7158110     1.0392930
  H       -1.7231702     1.8254795     0.2029489
  H       -2.5740470    -2.0997260     0.1840740
  H       -3.3752970     0.2746480     0.4421650
units angstrom
no_reorient  #important for SAPT in psi4, default
symmetry c1  #important for SAPT in psi4, default
}

set PROPERTIES_ORIGIN ["COM"]
properties('MP2/aug-cc-pvtz', properties = ['dipole'])
--------------------------------------------------------------------------

    Molecular point group: c1
  Charge       = 0
  Multiplicity = 1
  Basis Set: AUG-CC-PVTZ
    Blend: AUG-CC-PVTZ
  Basis Set: (AUG-CC-PVTZ AUX)
    Blend: AUG-CC-PVTZ-JKFIT

    Orbital Energies [Eh]
    ---------------------

    Doubly Occupied:

       1A    -20.512210     2A    -15.605967     3A    -11.354424
       4A    -11.310359     5A    -11.267226     6A    -11.245891
       7A    -11.244108     8A    -11.224849     9A    -11.206328
      10A     -1.379352    11A     -1.292675    12A     -1.127440
      13A     -1.059994    14A     -0.994726    15A     -0.908469
      16A     -0.878284    17A     -0.822959    18A     -0.762102
      19A     -0.707058    20A     -0.681256    21A     -0.628716
      22A     -0.614377    23A     -0.605460    24A     -0.591775
      25A     -0.566392    26A     -0.551101    27A     -0.515729
      28A     -0.497042    29A     -0.487451    30A     -0.475338
      31A     -0.423772    32A     -0.414213    33A     -0.308153

  @DF-RHF Final Energy:  -399.73646150016026

   => Energetics <=

    Nuclear Repulsion Energy =            434.0443218076474636
    One-Electron Energy =               -1403.0311739465323626
    Two-Electron Energy =                 569.2503906387245252
    Total Energy =                       -399.7364615001603170
  Basis Set: (AUG-CC-PVTZ AUX)
    Blend: AUG-CC-PVTZ-RI
    Molecular point group: c1

    Geometry (in Angstrom), charge = 0, multiplicity = 1:

       Center              X                  Y                   Z               Mass
    ------------   -----------------  -----------------  -----------------  -----------------
         O            0.645393373238     1.938280318481    -0.208506518093    15.994914619570
         N           -1.424047626762     1.020056318481     0.132013481907    14.003074004430
         C            0.416223373238    -0.454338681519    -0.276964518093    12.000000000000
         C            1.884285373238    -0.635498681519    -0.525768518093    12.000000000000
         C           -0.051670626762     0.915930318481    -0.123583518093    12.000000000000
         C           -0.466055626762    -1.501968681519    -0.160601518093    12.000000000000
         C            2.716969373238    -0.350481681519     0.728514481907    12.000000000000
         C           -1.847960626762    -1.300860681519     0.106421481907    12.000000000000
         C           -2.302325626762    -0.021246681519     0.249787481907    12.000000000000
         H            2.065748373238    -1.657440681519    -0.878134518093     1.007825032230
         H            2.189734373238     0.051456318481    -1.322440518093     1.007825032230
         H           -0.092954626762    -2.518303681519    -0.281571518093     1.007825032230
         H            3.782624373238    -0.494002681519     0.526139481907     1.007825032230
         H            2.429176373238    -1.022597681519     1.542255481907     1.007825032230
         H            2.561859373238     0.680645318481     1.050870481907     1.007825032230
         H           -1.683618826762     1.790313818481     0.214526381907     1.007825032230
         H           -2.534495626762    -2.134891681519     0.195651481907     1.007825032230
         H           -3.335745626762     0.239482318481     0.453742481907     1.007825032230

  Basis Set: AUG-CC-PVTZ
    Blend: AUG-CC-PVTZ
  Basis Set: (AUG-CC-PVTZ AUX)
    Blend: AUG-CC-PVTZ-JKFIT
	 Reference Energy          =    -399.7364615001602601 [Eh]
	 Singles Energy            =      -0.0000000000000000 [Eh]
	 Same-Spin Energy          =      -0.4225027049386583 [Eh]
	 Opposite-Spin Energy      =      -1.3371145060828182 [Eh]
	 Correlation Energy        =      -1.7596172110214765 [Eh]
	 Total Energy              =    -401.4960787111817240 [Eh]

	 ================> DF-SCS-MP2 Energies <==================
	-----------------------------------------------------------
	 SCS Same-Spin Scale       =       0.3333333333333333 [-]
	 SCS Opposite-Spin Scale   =       1.2000000000000000 [-]
	 SCS Same-Spin Energy      =      -0.1408342349795527 [Eh]
	 SCS Opposite-Spin Energy  =      -1.6045374072993819 [Eh]
	 SCS Correlation Energy    =      -1.7453716422789347 [Eh]
	 SCS Total Energy          =    -401.4818331424391999 [Eh]
	-----------------------------------------------------------

  Dipole Moment: [D]
     X:    -2.8246      Y:    -2.4617      Z:     0.4502     Total:     3.7737

*** Psi4 exiting successfully. Buy a developer a beer!
