                               Psi4 1.3.2 release

  ==> Input File <==

--------------------------------------------------------------------------
#psi4
#
memory 32 gb

molecule  {
0 1
  O        0.6058420     1.9734460    -0.2200840
  N       -1.4635990     1.0552220     0.1204360
  C        0.3766720    -0.4191730    -0.2885420
  C        1.8447340    -0.6003330    -0.5373460
  C       -0.0880878     0.9998292    -0.1335153
  C       -0.5056070    -1.4668030    -0.1721790
  C        2.6774180    -0.3153160     0.7169370
  C       -1.8875120    -1.2656950     0.0948440
  C       -2.3418770     0.0139190     0.2382100
  H        2.0261970    -1.6222750    -0.8897120
  H        2.1501830     0.0866220    -1.3340180
  H       -0.1325060    -2.4831380    -0.2931490
  H        3.7430730    -0.4588370     0.5145620
  H        2.3896250    -0.9874320     1.5306780
  H        2.5223080     0.7158110     1.0392930
  H       -1.7867130     2.0140380     0.2231480
  H       -2.5740470    -2.0997260     0.1840740
  H       -3.3752970     0.2746480     0.4421650
units angstrom
no_reorient  #important for SAPT in psi4, default
symmetry c1  #important for SAPT in psi4, default
}

set PROPERTIES_ORIGIN ["COM"]
properties('MP2/aug-cc-pvtz', properties = ['dipole'])
--------------------------------------------------------------------------

    Molecular point group: c1
  Charge       = 0
  Multiplicity = 1
  Basis Set: AUG-CC-PVTZ
    Blend: AUG-CC-PVTZ
  Basis Set: (AUG-CC-PVTZ AUX)
    Blend: AUG-CC-PVTZ-JKFIT

    Orbital Energies [Eh]
    ---------------------

    Doubly Occupied:

       1A    -20.519805     2A    -15.621528     3A    -11.354361
       4A    -11.305632     5A    -11.259975     6A    -11.245322
       7A    -11.239310     8A    -11.223237     9A    -11.206080
      10A     -1.396891    11A     -1.274996    12A     -1.111944
      13A     -1.052902    14A     -0.990188    15A     -0.885131
      16A     -0.861845    17A     -0.816678    18A     -0.732528
      19A     -0.700507    20A     -0.671349    21A     -0.629109
      22A     -0.619555    23A     -0.606410    24A     -0.588349
      25A     -0.565258    26A     -0.547678    27A     -0.513994
      28A     -0.501036    29A     -0.491207    30A     -0.478524
      31A     -0.423115    32A     -0.408807    33A     -0.303440

  @DF-RHF Final Energy:  -399.77916419476736

   => Energetics <=

    Nuclear Repulsion Energy =            432.4743171404438158
    One-Electron Energy =               -1400.2135846802930246
    Two-Electron Energy =                 567.9601033450817340
    Total Energy =                       -399.7791641947674179
  Basis Set: (AUG-CC-PVTZ AUX)
    Blend: AUG-CC-PVTZ-RI
    Molecular point group: c1

    Geometry (in Angstrom), charge = 0, multiplicity = 1:

       Center              X                  Y                   Z               Mass
    ------------   -----------------  -----------------  -----------------  -----------------
         O            0.645608128784     1.931984370141    -0.208832398287    15.994914619570
         N           -1.423832871216     1.013760370141     0.131687601713    14.003074004430
         C            0.416438128784    -0.460634629859    -0.277290398287    12.000000000000
         C            1.884500128784    -0.641794629859    -0.526094398287    12.000000000000
         C           -0.048321671216     0.958367570141    -0.122263698287    12.000000000000
         C           -0.465840871216    -1.508264629859    -0.160927398287    12.000000000000
         C            2.717184128784    -0.356777629859     0.728188601713    12.000000000000
         C           -1.847745871216    -1.307156629859     0.106095601713    12.000000000000
         C           -2.302110871216    -0.027542629859     0.249461601713    12.000000000000
         H            2.065963128784    -1.663736629859    -0.878460398287     1.007825032230
         H            2.189949128784     0.045160370141    -1.322766398287     1.007825032230
         H           -0.092739871216    -2.524599629859    -0.281897398287     1.007825032230
         H            3.782839128784    -0.500298629859     0.525813601713     1.007825032230
         H            2.429391128784    -1.028893629859     1.541929601713     1.007825032230
         H            2.562074128784     0.674349370141     1.050544601713     1.007825032230
         H           -1.746946871216     1.972576370141     0.234399601713     1.007825032230
         H           -2.534280871216    -2.141187629859     0.195325601713     1.007825032230
         H           -3.335530871216     0.233186370141     0.453416601713     1.007825032230

  Basis Set: AUG-CC-PVTZ
    Blend: AUG-CC-PVTZ
  Basis Set: (AUG-CC-PVTZ AUX)
    Blend: AUG-CC-PVTZ-JKFIT
	 Reference Energy          =    -399.7791641947673611 [Eh]
	 Singles Energy            =      -0.0000000000000000 [Eh]
	 Same-Spin Energy          =      -0.4228165334596169 [Eh]
	 Opposite-Spin Energy      =      -1.3382620084320158 [Eh]
	 Correlation Energy        =      -1.7610785418916328 [Eh]
	 Total Energy              =    -401.5402427366589677 [Eh]

	 ================> DF-SCS-MP2 Energies <==================
	-----------------------------------------------------------
	 SCS Same-Spin Scale       =       0.3333333333333333 [-]
	 SCS Opposite-Spin Scale   =       1.2000000000000000 [-]
	 SCS Same-Spin Energy      =      -0.1409388444865390 [Eh]
	 SCS Opposite-Spin Energy  =      -1.6059144101184188 [Eh]
	 SCS Correlation Energy    =      -1.7468532546049578 [Eh]
	 SCS Total Energy          =    -401.5260174493723184 [Eh]
	-----------------------------------------------------------

  Dipole Moment: [D]
     X:    -2.7353      Y:    -1.9177      Z:     0.4511     Total:     3.3709

*** Psi4 exiting successfully. Buy a developer a beer!
