                               Psi4 1.4a3.dev225

  ==> Input File <==

--------------------------------------------------------------------------
#psi4
#
memory 32 gb

molecule  {
0 1
  O        0.6058420     1.9734460    -0.2200840
  N       -1.4635990     1.0552220     0.1204360
  C        0.3766720    -0.4191730    -0.2885420
  C        1.8447340    -0.6003330    -0.5373460
  C       -0.0912220     0.9510960    -0.1351610
  C       -0.5056070    -1.4668030    -0.1721790
  C        2.6774180    -0.3153160     0.7169370
  C       -1.8875120    -1.2656950     0.0948440
  C       -2.3739938    -0.0241593     0.2425168
  H        2.0261970    -1.6222750    -0.8897120
  H        2.1501830     0.0866220    -1.3340180
  H       -0.1325060    -2.4831380    -0.2931490
  H        3.7430730    -0.4588370     0.5145620
  H        2.3896250    -0.9874320     1.5306780
  H        2.5223080     0.7158110     1.0392930
  H       -1.7867130     2.0140380     0.2231480
  H       -2.5740470    -2.0997260     0.1840740
  H       -3.3752970     0.2746480     0.4421650
units angstrom
no_reorient  #important for SAPT in psi4, default
symmetry c1  #important for SAPT in psi4, default
}

set PROPERTIES_ORIGIN ["COM"]
properties('MP2/aug-cc-pvtz', properties = ['dipole'])
--------------------------------------------------------------------------

    Molecular point group: c1
  Charge       = 0
  Multiplicity = 1
  Basis Set: AUG-CC-PVTZ
    Blend: AUG-CC-PVTZ
  Basis Set: (AUG-CC-PVTZ AUX)
    Blend: AUG-CC-PVTZ-JKFIT

    Orbital Energies [Eh]
    ---------------------

    Doubly Occupied:

       1A    -20.509622     2A    -15.619781     3A    -11.352309
       4A    -11.306159     5A    -11.266610     6A    -11.248352
       7A    -11.243567     8A    -11.225336     9A    -11.206625
      10A     -1.367198    11A     -1.256444    12A     -1.117757
      13A     -1.059707    14A     -0.994831    15A     -0.889576
      16A     -0.864472    17A     -0.816038    18A     -0.730270
      19A     -0.700521    20A     -0.676183    21A     -0.623511
      22A     -0.613293    23A     -0.598867    24A     -0.592051
      25A     -0.566086    26A     -0.545629    27A     -0.514825
      28A     -0.496116    29A     -0.486460    30A     -0.474139
      31A     -0.421908    32A     -0.409264    33A     -0.312706

  @DF-RHF Final Energy:  -399.77675009928646

   => Energetics <=

    Nuclear Repulsion Energy =            431.9766669801331886
    One-Electron Energy =               -1399.2944062728920471
    Two-Electron Energy =                 567.5409891934724556
    Total Energy =                       -399.7767500992864598
  Basis Set: (AUG-CC-PVTZ AUX)
    Blend: AUG-CC-PVTZ-RI
    Molecular point group: c1

    Geometry (in Angstrom), charge = 0, multiplicity = 1:

       Center              X                  Y                   Z               Mass
    ------------   -----------------  -----------------  -----------------  -----------------
         O            0.649045338922     1.940449076615    -0.209091873476    15.994914619570
         N           -1.420395661078     1.022225076615     0.131428126524    14.003074004430
         C            0.419875338922    -0.452169923385    -0.277549873476    12.000000000000
         C            1.887937338922    -0.633329923385    -0.526353873476    12.000000000000
         C           -0.048018661078     0.918099076615    -0.124168873476    12.000000000000
         C           -0.462403661078    -1.499799923385    -0.161186873476    12.000000000000
         C            2.720621338922    -0.348312923385     0.727929126524    12.000000000000
         C           -1.844308661078    -1.298691923385     0.105836126524    12.000000000000
         C           -2.330790461078    -0.057156223385     0.253508926524    12.000000000000
         H            2.069400338922    -1.655271923385    -0.878719873476     1.007825032230
         H            2.193386338922     0.053625076615    -1.323025873476     1.007825032230
         H           -0.089302661078    -2.516134923385    -0.282156873476     1.007825032230
         H            3.786276338922    -0.491833923385     0.525554126524     1.007825032230
         H            2.432828338922    -1.020428923385     1.541670126524     1.007825032230
         H            2.565511338922     0.682814076615     1.050285126524     1.007825032230
         H           -1.743509661078     1.981041076615     0.234140126524     1.007825032230
         H           -2.530843661078    -2.132722923385     0.195066126524     1.007825032230
         H           -3.332093661078     0.241651076615     0.453157126524     1.007825032230

  Basis Set: AUG-CC-PVTZ
    Blend: AUG-CC-PVTZ
  Basis Set: (AUG-CC-PVTZ AUX)
    Blend: AUG-CC-PVTZ-JKFIT
	 Reference Energy          =    -399.7767500992864598 [Eh]
	 Singles Energy            =      -0.0000000000000000 [Eh]
	 Same-Spin Energy          =      -0.4233755900009070 [Eh]
	 Opposite-Spin Energy      =      -1.3400555523980027 [Eh]
	 Correlation Energy        =      -1.7634311423989097 [Eh]
	 Total Energy              =    -401.5401812416853886 [Eh]

	 ================> DF-SCS-MP2 Energies <==================
	-----------------------------------------------------------
	 SCS Same-Spin Scale       =       0.3333333333333333 [-]
	 SCS Opposite-Spin Scale   =       1.2000000000000000 [-]
	 SCS Same-Spin Energy      =      -0.1411251966669690 [Eh]
	 SCS Opposite-Spin Energy  =      -1.6080666628776032 [Eh]
	 SCS Correlation Energy    =      -1.7491918595445721 [Eh]
	 SCS Total Energy          =    -401.5259419588310266 [Eh]
	-----------------------------------------------------------

  Dipole Moment: [D]
     X:    -2.8996      Y:    -2.3710      Z:     0.4700     Total:     3.7750

*** Psi4 exiting successfully. Buy a developer a beer!
