                               Psi4 1.3.2 release

  ==> Input File <==

--------------------------------------------------------------------------
#psi4
#
memory 32 gb

molecule  {
0 1
  O        0.6058420     1.9734460    -0.2200840
  N       -1.4635990     1.0552220     0.1204360
  C        0.3766720    -0.4191730    -0.2885420
  C        1.8447340    -0.6003330    -0.5373460
  C       -0.0912220     0.9510960    -0.1351610
  C       -0.5056070    -1.4668030    -0.1721790
  C        2.6774180    -0.3153160     0.7169370
  C       -1.8875120    -1.2656950     0.0948440
  C       -2.3058298    -0.0163029     0.2301475
  H        2.0261970    -1.6222750    -0.8897120
  H        2.1501830     0.0866220    -1.3340180
  H       -0.1325060    -2.4831380    -0.2931490
  H        3.7430730    -0.4588370     0.5145620
  H        2.3896250    -0.9874320     1.5306780
  H        2.5223080     0.7158110     1.0392930
  H       -1.7867130     2.0140380     0.2231480
  H       -2.5740470    -2.0997260     0.1840740
  H       -3.3752970     0.2746480     0.4421650
units angstrom
no_reorient  #important for SAPT in psi4, default
symmetry c1  #important for SAPT in psi4, default
}

set PROPERTIES_ORIGIN ["COM"]
properties('MP2/aug-cc-pvtz', properties = ['dipole'])
--------------------------------------------------------------------------

    Molecular point group: c1
  Charge       = 0
  Multiplicity = 1
  Basis Set: AUG-CC-PVTZ
    Blend: AUG-CC-PVTZ
  Basis Set: (AUG-CC-PVTZ AUX)
    Blend: AUG-CC-PVTZ-JKFIT

    Orbital Energies [Eh]
    ---------------------

    Doubly Occupied:

       1A    -20.510361     2A    -15.623954     3A    -11.352302
       4A    -11.306131     5A    -11.265947     6A    -11.245053
       7A    -11.237669     8A    -11.224228     9A    -11.205684
      10A     -1.370455    11A     -1.271605    12A     -1.119919
      13A     -1.060669    14A     -0.993113    15A     -0.887374
      16A     -0.867867    17A     -0.818369    18A     -0.735657
      19A     -0.701738    20A     -0.671110    21A     -0.624788
      22A     -0.612899    23A     -0.600469    24A     -0.592005
      25A     -0.560194    26A     -0.549387    27A     -0.514259
      28A     -0.496328    29A     -0.486904    30A     -0.475313
      31A     -0.421562    32A     -0.411955    33A     -0.311237

  @DF-RHF Final Energy:  -399.77787416623721

   => Energetics <=

    Nuclear Repulsion Energy =            433.4044289134230894
    One-Electron Energy =               -1402.1115930506816767
    Two-Electron Energy =                 568.9292899710213760
    Total Energy =                       -399.7778741662372113
  Basis Set: (AUG-CC-PVTZ AUX)
    Blend: AUG-CC-PVTZ-RI
    Molecular point group: c1

    Geometry (in Angstrom), charge = 0, multiplicity = 1:

       Center              X                  Y                   Z               Mass
    ------------   -----------------  -----------------  -----------------  -----------------
         O            0.642398889407     1.939683024653    -0.207885783341    15.994914619570
         N           -1.427042110593     1.021459024653     0.132634216659    14.003074004430
         C            0.413228889407    -0.452935975347    -0.276343783341    12.000000000000
         C            1.881290889407    -0.634095975347    -0.525147783341    12.000000000000
         C           -0.054665110593     0.917333024653    -0.122962783341    12.000000000000
         C           -0.469050110593    -1.500565975347    -0.159980783341    12.000000000000
         C            2.713974889407    -0.349078975347     0.729135216659    12.000000000000
         C           -1.850955110593    -1.299457975347     0.107042216659    12.000000000000
         C           -2.269272910593    -0.050065875347     0.242345716659    12.000000000000
         H            2.062753889407    -1.656037975347    -0.877513783341     1.007825032230
         H            2.186739889407     0.052859024653    -1.321819783341     1.007825032230
         H           -0.095949110593    -2.516900975347    -0.280950783341     1.007825032230
         H            3.779629889407    -0.492599975347     0.526760216659     1.007825032230
         H            2.426181889407    -1.021194975347     1.542876216659     1.007825032230
         H            2.558864889407     0.682048024653     1.051491216659     1.007825032230
         H           -1.750156110593     1.980275024653     0.235346216659     1.007825032230
         H           -2.537490110593    -2.133488975347     0.196272216659     1.007825032230
         H           -3.338740110593     0.240885024653     0.454363216659     1.007825032230

  Basis Set: AUG-CC-PVTZ
    Blend: AUG-CC-PVTZ
  Basis Set: (AUG-CC-PVTZ AUX)
    Blend: AUG-CC-PVTZ-JKFIT
	 Reference Energy          =    -399.7778741662372113 [Eh]
	 Singles Energy            =      -0.0000000000000000 [Eh]
	 Same-Spin Energy          =      -0.4234410192155497 [Eh]
	 Opposite-Spin Energy      =      -1.3390922229083362 [Eh]
	 Correlation Energy        =      -1.7625332421238857 [Eh]
	 Total Energy              =    -401.5404074083610908 [Eh]

	 ================> DF-SCS-MP2 Energies <==================
	-----------------------------------------------------------
	 SCS Same-Spin Scale       =       0.3333333333333333 [-]
	 SCS Opposite-Spin Scale   =       1.2000000000000000 [-]
	 SCS Same-Spin Energy      =      -0.1411470064051832 [Eh]
	 SCS Opposite-Spin Energy  =      -1.6069106674900033 [Eh]
	 SCS Correlation Energy    =      -1.7480576738951865 [Eh]
	 SCS Total Energy          =    -401.5259318401323867 [Eh]
	-----------------------------------------------------------

  Dipole Moment: [D]
     X:    -2.8940      Y:    -2.2676      Z:     0.4674     Total:     3.7062

*** Psi4 exiting successfully. Buy a developer a beer!
