                               Psi4 1.3.2 release

  ==> Input File <==

--------------------------------------------------------------------------
#psi4
#
memory 32 gb

molecule  {
0 1
  O        0.6058420     1.9734460    -0.2200840
  N       -1.4635990     1.0552220     0.1204360
  C        0.3766720    -0.4191730    -0.2885420
  C        1.8541103    -0.4960667    -0.5359120
  C       -0.0912220     0.9510960    -0.1351610
  C       -0.5056070    -1.4668030    -0.1721790
  C        2.6774180    -0.3153160     0.7169370
  C       -1.8875120    -1.2656950     0.0948440
  C       -2.3418770     0.0139190     0.2382100
  H        2.0261970    -1.6222750    -0.8897120
  H        2.1501830     0.0866220    -1.3340180
  H       -0.1325060    -2.4831380    -0.2931490
  H        3.7430730    -0.4588370     0.5145620
  H        2.3896250    -0.9874320     1.5306780
  H        2.5223080     0.7158110     1.0392930
  H       -1.7867130     2.0140380     0.2231480
  H       -2.5740470    -2.0997260     0.1840740
  H       -3.3752970     0.2746480     0.4421650
units angstrom
no_reorient  #important for SAPT in psi4, default
symmetry c1  #important for SAPT in psi4, default
}

set PROPERTIES_ORIGIN ["COM"]
properties('MP2/aug-cc-pvtz', properties = ['dipole'])
--------------------------------------------------------------------------

    Molecular point group: c1
  Charge       = 0
  Multiplicity = 1
  Basis Set: AUG-CC-PVTZ
    Blend: AUG-CC-PVTZ
  Basis Set: (AUG-CC-PVTZ AUX)
    Blend: AUG-CC-PVTZ-JKFIT

    Orbital Energies [Eh]
    ---------------------

    Doubly Occupied:

       1A    -20.510181     2A    -15.625773     3A    -11.351527
       4A    -11.310394     5A    -11.268178     6A    -11.245429
       7A    -11.243522     8A    -11.226739     9A    -11.205293
      10A     -1.370747    11A     -1.271463    12A     -1.118027
      13A     -1.057173    14A     -0.996716    15A     -0.891598
      16A     -0.865665    17A     -0.818613    18A     -0.737266
      19A     -0.702265    20A     -0.672462    21A     -0.632374
      22A     -0.613582    23A     -0.604788    24A     -0.583157
      25A     -0.568309    26A     -0.546013    27A     -0.526958
      28A     -0.494354    29A     -0.483962    30A     -0.459984
      31A     -0.420760    32A     -0.413213    33A     -0.307758

  @DF-RHF Final Energy:  -399.76732196131724

   => Energetics <=

    Nuclear Repulsion Energy =            433.1022691880291404
    One-Electron Energy =               -1401.4506975666015478
    Two-Electron Energy =                 568.5811064172552278
    Total Energy =                       -399.7673219613171796
  Basis Set: (AUG-CC-PVTZ AUX)
    Blend: AUG-CC-PVTZ-RI
    Molecular point group: c1

    Geometry (in Angstrom), charge = 0, multiplicity = 1:

       Center              X                  Y                   Z               Mass
    ------------   -----------------  -----------------  -----------------  -----------------
         O            0.644999481954     1.926569518525    -0.208811756110    15.994914619570
         N           -1.424441518046     1.008345518525     0.131708243890    14.003074004430
         C            0.415829481954    -0.466049481475    -0.277269756110    12.000000000000
         C            1.893267781954    -0.542943181475    -0.524639756110    12.000000000000
         C           -0.052064518046     0.904219518525    -0.123888756110    12.000000000000
         C           -0.466449518046    -1.513679481475    -0.160906756110    12.000000000000
         C            2.716575481954    -0.362192481475     0.728209243890    12.000000000000
         C           -1.848354518046    -1.312571481475     0.106116243890    12.000000000000
         C           -2.302719518046    -0.032957481475     0.249482243890    12.000000000000
         H            2.065354481954    -1.669151481475    -0.878439756110     1.007825032230
         H            2.189340481954     0.039745518525    -1.322745756110     1.007825032230
         H           -0.093348518046    -2.530014481475    -0.281876756110     1.007825032230
         H            3.782230481954    -0.505713481475     0.525834243890     1.007825032230
         H            2.428782481954    -1.034308481475     1.541950243890     1.007825032230
         H            2.561465481954     0.668934518525     1.050565243890     1.007825032230
         H           -1.747555518046     1.967161518525     0.234420243890     1.007825032230
         H           -2.534889518046    -2.146602481475     0.195346243890     1.007825032230
         H           -3.336139518046     0.227771518525     0.453437243890     1.007825032230

  Basis Set: AUG-CC-PVTZ
    Blend: AUG-CC-PVTZ
  Basis Set: (AUG-CC-PVTZ AUX)
    Blend: AUG-CC-PVTZ-JKFIT
	 Reference Energy          =    -399.7673219613172364 [Eh]
	 Singles Energy            =      -0.0000000000000000 [Eh]
	 Same-Spin Energy          =      -0.4243620573144437 [Eh]
	 Opposite-Spin Energy      =      -1.3406884973285722 [Eh]
	 Correlation Energy        =      -1.7650505546430160 [Eh]
	 Total Energy              =    -401.5323725159602759 [Eh]

	 ================> DF-SCS-MP2 Energies <==================
	-----------------------------------------------------------
	 SCS Same-Spin Scale       =       0.3333333333333333 [-]
	 SCS Opposite-Spin Scale   =       1.2000000000000000 [-]
	 SCS Same-Spin Energy      =      -0.1414540191048145 [Eh]
	 SCS Opposite-Spin Energy  =      -1.6088261967942865 [Eh]
	 SCS Correlation Energy    =      -1.7502802158991011 [Eh]
	 SCS Total Energy          =    -401.5176021772163608 [Eh]
	-----------------------------------------------------------

  Dipole Moment: [D]
     X:    -2.9807      Y:    -2.1650      Z:     0.5086     Total:     3.7190

*** Psi4 exiting successfully. Buy a developer a beer!
