                               Psi4 1.3.2 release

  ==> Input File <==

--------------------------------------------------------------------------
#psi4
#
memory 32 gb

molecule  {
0 1
  O        0.6058420     1.9734460    -0.2200840
  N       -1.4635990     1.0552220     0.1204360
  C        0.3766946    -0.3461720    -0.3635905
  C        1.8447340    -0.6003330    -0.5373460
  C       -0.0912220     0.9510960    -0.1351610
  C       -0.5056070    -1.4668030    -0.1721790
  C        2.6774180    -0.3153160     0.7169370
  C       -1.8875120    -1.2656950     0.0948440
  C       -2.3418770     0.0139190     0.2382100
  H        2.0261970    -1.6222750    -0.8897120
  H        2.1501830     0.0866220    -1.3340180
  H       -0.1325060    -2.4831380    -0.2931490
  H        3.7430730    -0.4588370     0.5145620
  H        2.3896250    -0.9874320     1.5306780
  H        2.5223080     0.7158110     1.0392930
  H       -1.7867130     2.0140380     0.2231480
  H       -2.5740470    -2.0997260     0.1840740
  H       -3.3752970     0.2746480     0.4421650
units angstrom
no_reorient  #important for SAPT in psi4, default
symmetry c1  #important for SAPT in psi4, default
}

set PROPERTIES_ORIGIN ["COM"]
properties('MP2/aug-cc-pvtz', properties = ['dipole'])
--------------------------------------------------------------------------

    Molecular point group: c1
  Charge       = 0
  Multiplicity = 1
  Basis Set: AUG-CC-PVTZ
    Blend: AUG-CC-PVTZ
  Basis Set: (AUG-CC-PVTZ AUX)
    Blend: AUG-CC-PVTZ-JKFIT

    Orbital Energies [Eh]
    ---------------------

    Doubly Occupied:

       1A    -20.500572     2A    -15.629274     3A    -11.343829
       4A    -11.314423     5A    -11.278532     6A    -11.245209
       7A    -11.244418     8A    -11.222959     9A    -11.204984
      10A     -1.367580    11A     -1.271271    12A     -1.112427
      13A     -1.057669    14A     -0.993041    15A     -0.896232
      16A     -0.868909    17A     -0.814715    18A     -0.741013
      19A     -0.703098    20A     -0.672312    21A     -0.622596
      22A     -0.611727    23A     -0.601032    24A     -0.593022
      25A     -0.562228    26A     -0.549274    27A     -0.515218
      28A     -0.495178    29A     -0.479514    30A     -0.470675
      31A     -0.420974    32A     -0.405588    33A     -0.303910

  @DF-RHF Final Energy:  -399.76836957208155

   => Energetics <=

    Nuclear Repulsion Energy =            432.6858534789153055
    One-Electron Energy =               -1400.6816374550583078
    Two-Electron Energy =                 568.2274144040613919
    Total Energy =                       -399.7683695720816104
  Basis Set: (AUG-CC-PVTZ AUX)
    Blend: AUG-CC-PVTZ-RI
    Molecular point group: c1

    Geometry (in Angstrom), charge = 0, multiplicity = 1:

       Center              X                  Y                   Z               Mass
    ------------   -----------------  -----------------  -----------------  -----------------
         O            0.645911530760     1.929618096044    -0.201354196767    15.994914619570
         N           -1.423529469240     1.011394096044     0.139165803233    14.003074004430
         C            0.416764130760    -0.389999903956    -0.344860696767    12.000000000000
         C            1.884803530760    -0.644160903956    -0.518616196767    12.000000000000
         C           -0.051152469240     0.907268096044    -0.116431196767    12.000000000000
         C           -0.465537469240    -1.510630903956    -0.153449196767    12.000000000000
         C            2.717487530760    -0.359143903956     0.735666803233    12.000000000000
         C           -1.847442469240    -1.309522903956     0.113573803233    12.000000000000
         C           -2.301807469240    -0.029908903956     0.256939803233    12.000000000000
         H            2.066266530760    -1.666102903956    -0.870982196767     1.007825032230
         H            2.190252530760     0.042794096044    -1.315288196767     1.007825032230
         H           -0.092436469240    -2.526965903956    -0.274419196767     1.007825032230
         H            3.783142530760    -0.502664903956     0.533291803233     1.007825032230
         H            2.429694530760    -1.031259903956     1.549407803233     1.007825032230
         H            2.562377530760     0.671983096044     1.058022803233     1.007825032230
         H           -1.746643469240     1.970210096044     0.241877803233     1.007825032230
         H           -2.533977469240    -2.143553903956     0.202803803233     1.007825032230
         H           -3.335227469240     0.230820096044     0.460894803233     1.007825032230

  Basis Set: AUG-CC-PVTZ
    Blend: AUG-CC-PVTZ
  Basis Set: (AUG-CC-PVTZ AUX)
    Blend: AUG-CC-PVTZ-JKFIT
	 Reference Energy          =    -399.7683695720815535 [Eh]
	 Singles Energy            =      -0.0000000000000000 [Eh]
	 Same-Spin Energy          =      -0.4256360237784585 [Eh]
	 Opposite-Spin Energy      =      -1.3416799487830577 [Eh]
	 Correlation Energy        =      -1.7673159725615162 [Eh]
	 Total Energy              =    -401.5356855446430586 [Eh]

	 ================> DF-SCS-MP2 Energies <==================
	-----------------------------------------------------------
	 SCS Same-Spin Scale       =       0.3333333333333333 [-]
	 SCS Opposite-Spin Scale   =       1.2000000000000000 [-]
	 SCS Same-Spin Energy      =      -0.1418786745928195 [Eh]
	 SCS Opposite-Spin Energy  =      -1.6100159385396693 [Eh]
	 SCS Correlation Energy    =      -1.7518946131324888 [Eh]
	 SCS Total Energy          =    -401.5202641852140459 [Eh]
	-----------------------------------------------------------

  Dipole Moment: [D]
     X:    -3.0370      Y:    -2.3955      Z:     0.5137     Total:     3.9020

*** Psi4 exiting successfully. Buy a developer a beer!
