                               Psi4 1.3.2 release

  ==> Input File <==

--------------------------------------------------------------------------
#psi4
#
memory 32 gb

molecule  {
0 1
  O        0.6058420     1.9734460    -0.2200840
  N       -1.4635990     1.0552220     0.1204360
  C        0.3766720    -0.4191730    -0.2885420
  C        1.8447340    -0.6003330    -0.5373460
  C       -0.0867019     1.0486471    -0.1319561
  C       -0.5056070    -1.4668030    -0.1721790
  C        2.6774180    -0.3153160     0.7169370
  C       -1.8875120    -1.2656950     0.0948440
  C       -2.3418770     0.0139190     0.2382100
  H        2.0261970    -1.6222750    -0.8897120
  H        2.1501830     0.0866220    -1.3340180
  H       -0.1325060    -2.4831380    -0.2931490
  H        3.7430730    -0.4588370     0.5145620
  H        2.3896250    -0.9874320     1.5306780
  H        2.5223080     0.7158110     1.0392930
  H       -1.7867130     2.0140380     0.2231480
  H       -2.5740470    -2.0997260     0.1840740
  H       -3.3752970     0.2746480     0.4421650
units angstrom
no_reorient  #important for SAPT in psi4, default
symmetry c1  #important for SAPT in psi4, default
}

set PROPERTIES_ORIGIN ["COM"]
properties('MP2/aug-cc-pvtz', properties = ['dipole'])
--------------------------------------------------------------------------

    Molecular point group: c1
  Charge       = 0
  Multiplicity = 1
  Basis Set: AUG-CC-PVTZ
    Blend: AUG-CC-PVTZ
  Basis Set: (AUG-CC-PVTZ AUX)
    Blend: AUG-CC-PVTZ-JKFIT

    Orbital Energies [Eh]
    ---------------------

    Doubly Occupied:

       1A    -20.529252     2A    -15.617523     3A    -11.355304
       4A    -11.302167     5A    -11.254156     6A    -11.244633
       7A    -11.236306     8A    -11.222258     9A    -11.206461
      10A     -1.427205    11A     -1.276182    12A     -1.106776
      13A     -1.050776    14A     -0.986833    15A     -0.882813
      16A     -0.854485    17A     -0.815453    18A     -0.729070
      19A     -0.698932    20A     -0.673887    21A     -0.637719
      22A     -0.622097    23A     -0.609934    24A     -0.586072
      25A     -0.565031    26A     -0.550379    27A     -0.513607
      28A     -0.508902    29A     -0.495680    30A     -0.479454
      31A     -0.419124    32A     -0.406360    33A     -0.300273

  @DF-RHF Final Energy:  -399.77108581793948

   => Energetics <=

    Nuclear Repulsion Energy =            432.3783541802032460
    One-Electron Energy =               -1399.9686744940966037
    Two-Electron Energy =                 567.8192344959538786
    Total Energy =                       -399.7710858179394791
  Basis Set: (AUG-CC-PVTZ AUX)
    Blend: AUG-CC-PVTZ-RI
    Molecular point group: c1

    Geometry (in Angstrom), charge = 0, multiplicity = 1:

       Center              X                  Y                   Z               Mass
    ------------   -----------------  -----------------  -----------------  -----------------
         O            0.645472994191     1.927224295794    -0.208984430798    15.994914619570
         N           -1.423968005809     1.009000295794     0.131535569202    14.003074004430
         C            0.416302994191    -0.465394704206    -0.277442430798    12.000000000000
         C            1.884364994191    -0.646554704206    -0.526246430798    12.000000000000
         C           -0.047070905809     1.002425395794    -0.120856530798    12.000000000000
         C           -0.465976005809    -1.513024704206    -0.161079430798    12.000000000000
         C            2.717048994191    -0.361537704206     0.728036569202    12.000000000000
         C           -1.847881005809    -1.311916704206     0.105943569202    12.000000000000
         C           -2.302246005809    -0.032302704206     0.249309569202    12.000000000000
         H            2.065827994191    -1.668496704206    -0.878612430798     1.007825032230
         H            2.189813994191     0.040400295794    -1.322918430798     1.007825032230
         H           -0.092875005809    -2.529359704206    -0.282049430798     1.007825032230
         H            3.782703994191    -0.505058704206     0.525661569202     1.007825032230
         H            2.429255994191    -1.033653704206     1.541777569202     1.007825032230
         H            2.561938994191     0.669589295794     1.050392569202     1.007825032230
         H           -1.747082005809     1.967816295794     0.234247569202     1.007825032230
         H           -2.534416005809    -2.145947704206     0.195173569202     1.007825032230
         H           -3.335666005809     0.228426295794     0.453264569202     1.007825032230

  Basis Set: AUG-CC-PVTZ
    Blend: AUG-CC-PVTZ
  Basis Set: (AUG-CC-PVTZ AUX)
    Blend: AUG-CC-PVTZ-JKFIT
	 Reference Energy          =    -399.7710858179394791 [Eh]
	 Singles Energy            =      -0.0000000000000000 [Eh]
	 Same-Spin Energy          =      -0.4217486562568653 [Eh]
	 Opposite-Spin Energy      =      -1.3368696188472167 [Eh]
	 Correlation Energy        =      -1.7586182751040820 [Eh]
	 Total Energy              =    -401.5297040930435628 [Eh]

	 ================> DF-SCS-MP2 Energies <==================
	-----------------------------------------------------------
	 SCS Same-Spin Scale       =       0.3333333333333333 [-]
	 SCS Opposite-Spin Scale   =       1.2000000000000000 [-]
	 SCS Same-Spin Energy      =      -0.1405828854189551 [Eh]
	 SCS Opposite-Spin Energy  =      -1.6042435426166599 [Eh]
	 SCS Correlation Energy    =      -1.7448264280356149 [Eh]
	 SCS Total Energy          =    -401.5159122459750733 [Eh]
	-----------------------------------------------------------

  Dipole Moment: [D]
     X:    -2.5457      Y:    -1.5781      Z:     0.4264     Total:     3.0253

*** Psi4 exiting successfully. Buy a developer a beer!
