                               Psi4 1.3.2 release

  ==> Input File <==

--------------------------------------------------------------------------
#psi4
#
memory 32 gb

molecule  {
0 1
  O        2.4005690    -0.7555910     0.0000930
  O       -3.4134850     0.7931250     0.0001120
  O        1.6118980     1.3746640    -0.0001560
  O       -2.6294380    -1.3322590    -0.0001410
  C        0.0590534    -0.4957969     0.1000270
  C       -1.0635090     0.5281750     0.0000410
  C        1.4119940     0.1700650    -0.0000220
  C       -2.4159880    -0.1313140    -0.0000070
  C        3.7306770    -0.1974070     0.0000330
  H       -0.0086930    -1.1555200     0.8707660
  H       -0.0087430    -1.1555360    -0.8706970
  H       -0.9969410     1.1888870    -0.8701370
  H       -0.9969750     1.1888400     0.8702580
  H        4.3972900    -1.0573420     0.0001120
  H        3.8858800     0.4149390     0.8894490
  H        3.8858720     0.4147700    -0.8895010
  H       -4.2474240     0.2791820     0.0000590
units angstrom
no_reorient  #important for SAPT in psi4, default
symmetry c1  #important for SAPT in psi4, default
}

set PROPERTIES_ORIGIN ["COM"]
properties('MP2/aug-cc-pvtz', properties = ['dipole'])
--------------------------------------------------------------------------

    Molecular point group: c1
  Charge       = 0
  Multiplicity = 1
  Basis Set: AUG-CC-PVTZ
    Blend: AUG-CC-PVTZ
  Basis Set: (AUG-CC-PVTZ AUX)
    Blend: AUG-CC-PVTZ-JKFIT

    Orbital Energies [Eh]
    ---------------------

    Doubly Occupied:

       1A    -20.621276     2A    -20.611857     3A    -20.559381
       4A    -20.554667     5A    -11.397633     6A    -11.391003
       7A    -11.290477     8A    -11.259250     9A    -11.257700
      10A     -1.466132    11A     -1.461870    12A     -1.363750
      13A     -1.361476    14A     -1.097286    15A     -0.998770
      16A     -0.932603    17A     -0.814228    18A     -0.774207
      19A     -0.727595    20A     -0.709737    21A     -0.688856
      22A     -0.679017    23A     -0.669554    24A     -0.659971
      25A     -0.612044    26A     -0.601280    27A     -0.568412
      28A     -0.556222    29A     -0.543944    30A     -0.534497
      31A     -0.500776    32A     -0.489424    33A     -0.470123
      34A     -0.463846    35A     -0.456380

  @DF-RHF Final Energy:  -493.66580352161327

   => Energetics <=

    Nuclear Repulsion Energy =            445.2137787161590268
    One-Electron Energy =               -1559.4686760003191921
    Two-Electron Energy =                 620.5890937625467814
    Total Energy =                       -493.6658035216132703
  Basis Set: (AUG-CC-PVTZ AUX)
    Blend: AUG-CC-PVTZ-RI
    Molecular point group: c1

    Geometry (in Angstrom), charge = 0, multiplicity = 1:

       Center              X                  Y                   Z               Mass
    ------------   -----------------  -----------------  -----------------  -----------------
         O            2.444901228128    -0.754700586234    -0.008992757070    15.994914619570
         O           -3.369152771872     0.794015413766    -0.008973757070    15.994914619570
         O            1.656230228128     1.375554413766    -0.009241757070    15.994914619570
         O           -2.585105771872    -1.331368586234    -0.009226757070    15.994914619570
         C            0.103385628128    -0.494906486234     0.090941242930    12.000000000000
         C           -1.019176771872     0.529065413766    -0.009044757070    12.000000000000
         C            1.456326228128     0.170955413766    -0.009107757070    12.000000000000
         C           -2.371655771872    -0.130423586234    -0.009092757070    12.000000000000
         C            3.775009228128    -0.196516586234    -0.009052757070    12.000000000000
         H            0.035639228128    -1.154629586234     0.861680242930     1.007825032230
         H            0.035589228128    -1.154645586234    -0.879782757070     1.007825032230
         H           -0.952608771872     1.189777413766    -0.879222757070     1.007825032230
         H           -0.952642771872     1.189730413766     0.861172242930     1.007825032230
         H            4.441622228128    -1.056451586234    -0.008973757070     1.007825032230
         H            3.930212228128     0.415829413766     0.880363242930     1.007825032230
         H            3.930204228128     0.415660413766    -0.898586757070     1.007825032230
         H           -4.203091771872     0.280072413766    -0.009026757070     1.007825032230

  Basis Set: AUG-CC-PVTZ
    Blend: AUG-CC-PVTZ
  Basis Set: (AUG-CC-PVTZ AUX)
    Blend: AUG-CC-PVTZ-JKFIT
	 Reference Energy          =    -493.6658035216132703 [Eh]
	 Singles Energy            =      -0.0000000000000000 [Eh]
	 Same-Spin Energy          =      -0.4752108447563314 [Eh]
	 Opposite-Spin Energy      =      -1.4704009674644205 [Eh]
	 Correlation Energy        =      -1.9456118122207520 [Eh]
	 Total Energy              =    -495.6114153338340316 [Eh]

	 ================> DF-SCS-MP2 Energies <==================
	-----------------------------------------------------------
	 SCS Same-Spin Scale       =       0.3333333333333333 [-]
	 SCS Opposite-Spin Scale   =       1.2000000000000000 [-]
	 SCS Same-Spin Energy      =      -0.1584036149187771 [Eh]
	 SCS Opposite-Spin Energy  =      -1.7644811609573046 [Eh]
	 SCS Correlation Energy    =      -1.9228847758760816 [Eh]
	 SCS Total Energy          =    -495.5886882974893410 [Eh]
	-----------------------------------------------------------

  Dipole Moment: [D]
     X:     0.6901      Y:    -0.1166      Z:     0.0430     Total:     0.7012

*** Psi4 exiting successfully. Buy a developer a beer!
