                               Psi4 1.3.2 release

  ==> Input File <==

--------------------------------------------------------------------------
#psi4
#
memory 32 gb

molecule  {
0 1
  O        2.4005690    -0.7555910     0.0000930
  O       -3.4134850     0.7931250     0.0001120
  O        1.6118980     1.3746640    -0.0001560
  O       -2.6294380    -1.3322590    -0.0001410
  C        0.0590510    -0.4957802     0.2500270
  C       -1.0635090     0.5281750     0.0000410
  C        1.4119940     0.1700650    -0.0000220
  C       -2.4159880    -0.1313140    -0.0000070
  C        3.7306770    -0.1974070     0.0000330
  H       -0.0086930    -1.1555200     0.8707660
  H       -0.0087430    -1.1555360    -0.8706970
  H       -0.9969410     1.1888870    -0.8701370
  H       -0.9969750     1.1888400     0.8702580
  H        4.3972900    -1.0573420     0.0001120
  H        3.8858800     0.4149390     0.8894490
  H        3.8858720     0.4147700    -0.8895010
  H       -4.2474240     0.2791820     0.0000590
units angstrom
no_reorient  #important for SAPT in psi4, default
symmetry c1  #important for SAPT in psi4, default
}

set PROPERTIES_ORIGIN ["COM"]
properties('MP2/aug-cc-pvtz', properties = ['dipole'])
--------------------------------------------------------------------------

    Molecular point group: c1
  Charge       = 0
  Multiplicity = 1
  Basis Set: AUG-CC-PVTZ
    Blend: AUG-CC-PVTZ
  Basis Set: (AUG-CC-PVTZ AUX)
    Blend: AUG-CC-PVTZ-JKFIT

    Orbital Energies [Eh]
    ---------------------

    Doubly Occupied:

       1A    -20.621502     2A    -20.611652     3A    -20.559570
       4A    -20.555447     5A    -11.397882     6A    -11.394919
       7A    -11.290454     8A    -11.263968     9A    -11.263069
      10A     -1.466338    11A     -1.461941    12A     -1.363892
      13A     -1.361987    14A     -1.096733    15A     -0.998597
      16A     -0.936633    17A     -0.814749    18A     -0.785138
      19A     -0.734864    20A     -0.711352    21A     -0.685903
      22A     -0.679439    23A     -0.672952    24A     -0.657002
      25A     -0.615856    26A     -0.599088    27A     -0.577709
      28A     -0.564073    29A     -0.543294    30A     -0.530960
      31A     -0.489535    32A     -0.476481    33A     -0.470585
      34A     -0.462942    35A     -0.447315

  @DF-RHF Final Energy:  -493.60877167002701

   => Energetics <=

    Nuclear Repulsion Energy =            444.8487763711033267
    One-Electron Energy =               -1558.5874501837733987
    Two-Electron Energy =                 620.1299021426432319
    Total Energy =                       -493.6087716700269539
  Basis Set: (AUG-CC-PVTZ AUX)
    Blend: AUG-CC-PVTZ-RI
    Molecular point group: c1

    Geometry (in Angstrom), charge = 0, multiplicity = 1:

       Center              X                  Y                   Z               Mass
    ------------   -----------------  -----------------  -----------------  -----------------
         O            2.444901446240    -0.754702103930    -0.022624756531    15.994914619570
         O           -3.369152553760     0.794013896070    -0.022605756531    15.994914619570
         O            1.656230446240     1.375552896070    -0.022873756531    15.994914619570
         O           -2.585105553760    -1.331370103930    -0.022858756531    15.994914619570
         C            0.103383446240    -0.494891303930     0.227309243469    12.000000000000
         C           -1.019176553760     0.529063896070    -0.022676756531    12.000000000000
         C            1.456326446240     0.170953896070    -0.022739756531    12.000000000000
         C           -2.371655553760    -0.130425103930    -0.022724756531    12.000000000000
         C            3.775009446240    -0.196518103930    -0.022684756531    12.000000000000
         H            0.035639446240    -1.154631103930     0.848048243469     1.007825032230
         H            0.035589446240    -1.154647103930    -0.893414756531     1.007825032230
         H           -0.952608553760     1.189775896070    -0.892854756531     1.007825032230
         H           -0.952642553760     1.189728896070     0.847540243469     1.007825032230
         H            4.441622446240    -1.056453103930    -0.022605756531     1.007825032230
         H            3.930212446240     0.415827896070     0.866731243469     1.007825032230
         H            3.930204446240     0.415658896070    -0.912218756531     1.007825032230
         H           -4.203091553760     0.280070896070    -0.022658756531     1.007825032230

  Basis Set: AUG-CC-PVTZ
    Blend: AUG-CC-PVTZ
  Basis Set: (AUG-CC-PVTZ AUX)
    Blend: AUG-CC-PVTZ-JKFIT
	 Reference Energy          =    -493.6087716700270107 [Eh]
	 Singles Energy            =      -0.0000000000000000 [Eh]
	 Same-Spin Energy          =      -0.4760383197581116 [Eh]
	 Opposite-Spin Energy      =      -1.4732318962068474 [Eh]
	 Correlation Energy        =      -1.9492702159649589 [Eh]
	 Total Energy              =    -495.5580418859919973 [Eh]

	 ================> DF-SCS-MP2 Energies <==================
	-----------------------------------------------------------
	 SCS Same-Spin Scale       =       0.3333333333333333 [-]
	 SCS Opposite-Spin Scale   =       1.2000000000000000 [-]
	 SCS Same-Spin Energy      =      -0.1586794399193705 [Eh]
	 SCS Opposite-Spin Energy  =      -1.7678782754482167 [Eh]
	 SCS Correlation Energy    =      -1.9265577153675872 [Eh]
	 SCS Total Energy          =    -495.5353293853946184 [Eh]
	-----------------------------------------------------------

  Dipole Moment: [D]
     X:     0.6754      Y:    -0.0605      Z:     0.1001     Total:     0.6855

*** Psi4 exiting successfully. Buy a developer a beer!
