                               Psi4 1.3.2 release

  ==> Input File <==

--------------------------------------------------------------------------
#psi4
#
memory 32 gb

molecule  {
0 1
  O        2.4005690    -0.7555910     0.0000930
  O       -3.4134850     0.7931250     0.0001120
  O        1.6118980     1.3746640    -0.0001560
  O       -2.6294380    -1.3322590    -0.0001410
  C        0.0590526    -0.4957913     0.1500270
  C       -1.0635090     0.5281750     0.0000410
  C        1.4119940     0.1700650    -0.0000220
  C       -2.4159880    -0.1313140    -0.0000070
  C        3.7306770    -0.1974070     0.0000330
  H       -0.0086930    -1.1555200     0.8707660
  H       -0.0087430    -1.1555360    -0.8706970
  H       -0.9969410     1.1888870    -0.8701370
  H       -0.9969750     1.1888400     0.8702580
  H        4.3972900    -1.0573420     0.0001120
  H        3.8858800     0.4149390     0.8894490
  H        3.8858720     0.4147700    -0.8895010
  H       -4.2474240     0.2791820     0.0000590
units angstrom
no_reorient  #important for SAPT in psi4, default
symmetry c1  #important for SAPT in psi4, default
}

set PROPERTIES_ORIGIN ["COM"]
properties('MP2/aug-cc-pvtz', properties = ['dipole'])
--------------------------------------------------------------------------

    Molecular point group: c1
  Charge       = 0
  Multiplicity = 1
  Basis Set: AUG-CC-PVTZ
    Blend: AUG-CC-PVTZ
  Basis Set: (AUG-CC-PVTZ AUX)
    Blend: AUG-CC-PVTZ-JKFIT

    Orbital Energies [Eh]
    ---------------------

    Doubly Occupied:

       1A    -20.621331     2A    -20.611807     3A    -20.559427
       4A    -20.554857     5A    -11.397693     6A    -11.391953
       7A    -11.290471     8A    -11.260250     9A    -11.259127
      10A     -1.466183    11A     -1.461887    12A     -1.363785
      13A     -1.361601    14A     -1.097145    15A     -0.998712
      16A     -0.933509    17A     -0.814279    18A     -0.776815
      19A     -0.729863    20A     -0.710377    21A     -0.687905
      22A     -0.679120    23A     -0.670755    24A     -0.658693
      25A     -0.613181    26A     -0.600676    27A     -0.570598
      28A     -0.560300    29A     -0.543699    30A     -0.533707
      31A     -0.492020    32A     -0.489445    33A     -0.470263
      34A     -0.463563    35A     -0.454926

  @DF-RHF Final Energy:  -493.65232875938500

   => Energetics <=

    Nuclear Repulsion Energy =            445.1263845282571197
    One-Electron Energy =               -1559.2575861189709485
    Two-Electron Energy =                 620.4788728313287720
    Total Energy =                       -493.6523287593850000
  Basis Set: (AUG-CC-PVTZ AUX)
    Blend: AUG-CC-PVTZ-RI
    Molecular point group: c1

    Geometry (in Angstrom), charge = 0, multiplicity = 1:

       Center              X                  Y                   Z               Mass
    ------------   -----------------  -----------------  -----------------  -----------------
         O            2.444901300832    -0.754701095162    -0.013536756890    15.994914619570
         O           -3.369152699168     0.794014904838    -0.013517756890    15.994914619570
         O            1.656230300832     1.375553904838    -0.013785756890    15.994914619570
         O           -2.585105699168    -1.331369095162    -0.013770756890    15.994914619570
         C            0.103384900832    -0.494901395162     0.136397243110    12.000000000000
         C           -1.019176699168     0.529064904838    -0.013588756890    12.000000000000
         C            1.456326300832     0.170954904838    -0.013651756890    12.000000000000
         C           -2.371655699168    -0.130424095162    -0.013636756890    12.000000000000
         C            3.775009300832    -0.196517095162    -0.013596756890    12.000000000000
         H            0.035639300832    -1.154630095162     0.857136243110     1.007825032230
         H            0.035589300832    -1.154646095162    -0.884326756890     1.007825032230
         H           -0.952608699168     1.189776904838    -0.883766756890     1.007825032230
         H           -0.952642699168     1.189729904838     0.856628243110     1.007825032230
         H            4.441622300832    -1.056452095162    -0.013517756890     1.007825032230
         H            3.930212300832     0.415828904838     0.875819243110     1.007825032230
         H            3.930204300832     0.415659904838    -0.903130756890     1.007825032230
         H           -4.203091699168     0.280071904838    -0.013570756890     1.007825032230

  Basis Set: AUG-CC-PVTZ
    Blend: AUG-CC-PVTZ
  Basis Set: (AUG-CC-PVTZ AUX)
    Blend: AUG-CC-PVTZ-JKFIT
	 Reference Energy          =    -493.6523287593850000 [Eh]
	 Singles Energy            =      -0.0000000000000000 [Eh]
	 Same-Spin Energy          =      -0.4754050615733433 [Eh]
	 Opposite-Spin Energy      =      -1.4710606147280285 [Eh]
	 Correlation Energy        =      -1.9464656763013717 [Eh]
	 Total Energy              =    -495.5987944356863864 [Eh]

	 ================> DF-SCS-MP2 Energies <==================
	-----------------------------------------------------------
	 SCS Same-Spin Scale       =       0.3333333333333333 [-]
	 SCS Opposite-Spin Scale   =       1.2000000000000000 [-]
	 SCS Same-Spin Energy      =      -0.1584683538577811 [Eh]
	 SCS Opposite-Spin Energy  =      -1.7652727376736341 [Eh]
	 SCS Correlation Energy    =      -1.9237410915314153 [Eh]
	 SCS Total Energy          =    -495.5760698509164399 [Eh]
	-----------------------------------------------------------

  Dipole Moment: [D]
     X:     0.6865      Y:    -0.1023      Z:     0.0635     Total:     0.6969

*** Psi4 exiting successfully. Buy a developer a beer!
