                               Psi4 1.3.2 release

  ==> Input File <==

--------------------------------------------------------------------------
#psi4
#
memory 32 gb

molecule  {
0 1
  O        2.4005690    -0.7555910     0.0000930
  O       -3.4134850     0.7931250     0.0001120
  O        1.6118980     1.3746640    -0.0001560
  O       -2.6294380    -1.3322590    -0.0001410
  C        0.0590518    -0.4957858     0.2000270
  C       -1.0635090     0.5281750     0.0000410
  C        1.4119940     0.1700650    -0.0000220
  C       -2.4159880    -0.1313140    -0.0000070
  C        3.7306770    -0.1974070     0.0000330
  H       -0.0086930    -1.1555200     0.8707660
  H       -0.0087430    -1.1555360    -0.8706970
  H       -0.9969410     1.1888870    -0.8701370
  H       -0.9969750     1.1888400     0.8702580
  H        4.3972900    -1.0573420     0.0001120
  H        3.8858800     0.4149390     0.8894490
  H        3.8858720     0.4147700    -0.8895010
  H       -4.2474240     0.2791820     0.0000590
units angstrom
no_reorient  #important for SAPT in psi4, default
symmetry c1  #important for SAPT in psi4, default
}

set PROPERTIES_ORIGIN ["COM"]
properties('MP2/aug-cc-pvtz', properties = ['dipole'])
--------------------------------------------------------------------------

    Molecular point group: c1
  Charge       = 0
  Multiplicity = 1
  Basis Set: AUG-CC-PVTZ
    Blend: AUG-CC-PVTZ
  Basis Set: (AUG-CC-PVTZ AUX)
    Blend: AUG-CC-PVTZ-JKFIT

    Orbital Energies [Eh]
    ---------------------

    Doubly Occupied:

       1A    -20.621407     2A    -20.611738     3A    -20.559491
       4A    -20.555118     5A    -11.397777     6A    -11.393265
       7A    -11.290463     8A    -11.261701     9A    -11.261049
      10A     -1.466252    11A     -1.461912    12A     -1.363832
      13A     -1.361773    14A     -1.096958    15A     -0.998648
      16A     -0.934837    17A     -0.814420    18A     -0.780519
      19A     -0.732432    20A     -0.710928    21A     -0.686889
      22A     -0.679261    23A     -0.671910    24A     -0.657637
      25A     -0.614517    26A     -0.599934    27A     -0.574010
      28A     -0.562756    29A     -0.543488    30A     -0.532513
      31A     -0.489492    32A     -0.483451    33A     -0.470435
      34A     -0.463245    35A     -0.452149

  @DF-RHF Final Energy:  -493.63334236628026

   => Energetics <=

    Nuclear Repulsion Energy =            445.0045651192891683
    One-Electron Energy =               -1558.9634058962608378
    Two-Electron Energy =                 620.3254984106913525
    Total Energy =                       -493.6333423662802034
  Basis Set: (AUG-CC-PVTZ AUX)
    Blend: AUG-CC-PVTZ-RI
    Molecular point group: c1

    Geometry (in Angstrom), charge = 0, multiplicity = 1:

       Center              X                  Y                   Z               Mass
    ------------   -----------------  -----------------  -----------------  -----------------
         O            2.444901373536    -0.754701595002    -0.018080756711    15.994914619570
         O           -3.369152626464     0.794014404998    -0.018061756711    15.994914619570
         O            1.656230373536     1.375553404998    -0.018329756711    15.994914619570
         O           -2.585105626464    -1.331369595002    -0.018314756711    15.994914619570
         C            0.103384173536    -0.494896395002     0.181853243289    12.000000000000
         C           -1.019176626464     0.529064404998    -0.018132756711    12.000000000000
         C            1.456326373536     0.170954404998    -0.018195756711    12.000000000000
         C           -2.371655626464    -0.130424595002    -0.018180756711    12.000000000000
         C            3.775009373536    -0.196517595002    -0.018140756711    12.000000000000
         H            0.035639373536    -1.154630595002     0.852592243289     1.007825032230
         H            0.035589373536    -1.154646595002    -0.888870756711     1.007825032230
         H           -0.952608626464     1.189776404998    -0.888310756711     1.007825032230
         H           -0.952642626464     1.189729404998     0.852084243289     1.007825032230
         H            4.441622373536    -1.056452595002    -0.018061756711     1.007825032230
         H            3.930212373536     0.415828404998     0.871275243289     1.007825032230
         H            3.930204373536     0.415659404998    -0.907674756711     1.007825032230
         H           -4.203091626464     0.280071404998    -0.018114756711     1.007825032230

  Basis Set: AUG-CC-PVTZ
    Blend: AUG-CC-PVTZ
  Basis Set: (AUG-CC-PVTZ AUX)
    Blend: AUG-CC-PVTZ-JKFIT
	 Reference Energy          =    -493.6333423662802602 [Eh]
	 Singles Energy            =      -0.0000000000000000 [Eh]
	 Same-Spin Energy          =      -0.4756799643029307 [Eh]
	 Opposite-Spin Energy      =      -1.4720011445558858 [Eh]
	 Correlation Energy        =      -1.9476811088588164 [Eh]
	 Total Energy              =    -495.5810234751390908 [Eh]

	 ================> DF-SCS-MP2 Energies <==================
	-----------------------------------------------------------
	 SCS Same-Spin Scale       =       0.3333333333333333 [-]
	 SCS Opposite-Spin Scale   =       1.2000000000000000 [-]
	 SCS Same-Spin Energy      =      -0.1585599881009769 [Eh]
	 SCS Opposite-Spin Energy  =      -1.7664013734670629 [Eh]
	 SCS Correlation Energy    =      -1.9249613615680399 [Eh]
	 SCS Total Energy          =    -495.5583037278482834 [Eh]
	-----------------------------------------------------------

  Dipole Moment: [D]
     X:     0.6815      Y:    -0.0833      Z:     0.0828     Total:     0.6916

*** Psi4 exiting successfully. Buy a developer a beer!
