                               Psi4 1.3.2 release

  ==> Input File <==

--------------------------------------------------------------------------
#psi4
#
memory 32 gb

molecule  {
0 1
  O        2.4005690    -0.7555910     0.0000930
  O       -3.4134850     0.7931250     0.0001120
  O        1.6118980     1.3746640    -0.0001560
  O       -2.6294380    -1.3322590    -0.0001410
  C        0.0590542    -0.4958024     0.0500270
  C       -1.0635090     0.5281750     0.0000410
  C        1.4119940     0.1700650    -0.0000220
  C       -2.4159880    -0.1313140    -0.0000070
  C        3.7306770    -0.1974070     0.0000330
  H       -0.0086930    -1.1555200     0.8707660
  H       -0.0087430    -1.1555360    -0.8706970
  H       -0.9969410     1.1888870    -0.8701370
  H       -0.9969750     1.1888400     0.8702580
  H        4.3972900    -1.0573420     0.0001120
  H        3.8858800     0.4149390     0.8894490
  H        3.8858720     0.4147700    -0.8895010
  H       -4.2474240     0.2791820     0.0000590
units angstrom
no_reorient  #important for SAPT in psi4, default
symmetry c1  #important for SAPT in psi4, default
}

set PROPERTIES_ORIGIN ["COM"]
properties('MP2/aug-cc-pvtz', properties = ['dipole'])
--------------------------------------------------------------------------

    Molecular point group: c1
  Charge       = 0
  Multiplicity = 1
  Basis Set: AUG-CC-PVTZ
    Blend: AUG-CC-PVTZ
  Basis Set: (AUG-CC-PVTZ AUX)
    Blend: AUG-CC-PVTZ-JKFIT

    Orbital Energies [Eh]
    ---------------------

    Doubly Occupied:

       1A    -20.621242     2A    -20.611888     3A    -20.559352
       4A    -20.554553     5A    -11.397596     6A    -11.390428
       7A    -11.290480     8A    -11.258650     9A    -11.256838
      10A     -1.466102    11A     -1.461859    12A     -1.363729
      13A     -1.361400    14A     -1.097374    15A     -0.998810
      16A     -0.932077    17A     -0.814214    18A     -0.772688
      19A     -0.726060    20A     -0.709171    21A     -0.689571
      22A     -0.678955    23A     -0.668499    24A     -0.661139
      25A     -0.611277    26A     -0.601689    27A     -0.567403
      28A     -0.551711    29A     -0.544272    30A     -0.534850
      31A     -0.507940    32A     -0.489409    33A     -0.470033
      34A     -0.464040    35A     -0.457068

  @DF-RHF Final Energy:  -493.67384783112027

   => Energetics <=

    Nuclear Repulsion Energy =            445.2663709383070909
    One-Electron Energy =               -1559.5957071129723772
    Two-Electron Energy =                 620.6554883435450165
    Total Energy =                       -493.6738478311202698
  Basis Set: (AUG-CC-PVTZ AUX)
    Blend: AUG-CC-PVTZ-RI
    Molecular point group: c1

    Geometry (in Angstrom), charge = 0, multiplicity = 1:

       Center              X                  Y                   Z               Mass
    ------------   -----------------  -----------------  -----------------  -----------------
         O            2.444901155424    -0.754700086394    -0.004448757249    15.994914619570
         O           -3.369152844576     0.794015913606    -0.004429757249    15.994914619570
         O            1.656230155424     1.375554913606    -0.004697757249    15.994914619570
         O           -2.585105844576    -1.331368086394    -0.004682757249    15.994914619570
         C            0.103386355424    -0.494911486394     0.045485242751    12.000000000000
         C           -1.019176844576     0.529065913606    -0.004500757249    12.000000000000
         C            1.456326155424     0.170955913606    -0.004563757249    12.000000000000
         C           -2.371655844576    -0.130423086394    -0.004548757249    12.000000000000
         C            3.775009155424    -0.196516086394    -0.004508757249    12.000000000000
         H            0.035639155424    -1.154629086394     0.866224242751     1.007825032230
         H            0.035589155424    -1.154645086394    -0.875238757249     1.007825032230
         H           -0.952608844576     1.189777913606    -0.874678757249     1.007825032230
         H           -0.952642844576     1.189730913606     0.865716242751     1.007825032230
         H            4.441622155424    -1.056451086394    -0.004429757249     1.007825032230
         H            3.930212155424     0.415829913606     0.884907242751     1.007825032230
         H            3.930204155424     0.415660913606    -0.894042757249     1.007825032230
         H           -4.203091844576     0.280072913606    -0.004482757249     1.007825032230

  Basis Set: AUG-CC-PVTZ
    Blend: AUG-CC-PVTZ
  Basis Set: (AUG-CC-PVTZ AUX)
    Blend: AUG-CC-PVTZ-JKFIT
	 Reference Energy          =    -493.6738478311202698 [Eh]
	 Singles Energy            =      -0.0000000000000000 [Eh]
	 Same-Spin Energy          =      -0.4750952281745148 [Eh]
	 Opposite-Spin Energy      =      -1.4700112358632027 [Eh]
	 Correlation Energy        =      -1.9451064640377176 [Eh]
	 Total Energy              =    -495.6189542951580052 [Eh]

	 ================> DF-SCS-MP2 Energies <==================
	-----------------------------------------------------------
	 SCS Same-Spin Scale       =       0.3333333333333333 [-]
	 SCS Opposite-Spin Scale   =       1.2000000000000000 [-]
	 SCS Same-Spin Energy      =      -0.1583650760581716 [Eh]
	 SCS Opposite-Spin Energy  =      -1.7640134830358432 [Eh]
	 SCS Correlation Energy    =      -1.9223785590940148 [Eh]
	 SCS Total Energy          =    -495.5962263902142695 [Eh]
	-----------------------------------------------------------

  Dipole Moment: [D]
     X:     0.6923      Y:    -0.1254      Z:     0.0218     Total:     0.7039

*** Psi4 exiting successfully. Buy a developer a beer!
