                               Psi4 1.3.2 release

  ==> Input File <==

--------------------------------------------------------------------------
#psi4
#
memory 32 gb

molecule  {
0 1
  N       -0.1252220     1.3898600    -0.1119990
  C        0.0112280     0.0072680     0.3620950
  C        1.2902590    -0.6844340    -0.1065680
  C       -1.2260320    -0.7691170    -0.0628830
  H        0.0257960     0.0592870     1.4578400
  H        1.3723820    -1.6982600     0.2983500
  H        1.3015040    -0.7541000    -1.2000220
  H        2.1759730    -0.1224230     0.2066200
  H       -2.1279660    -0.2662850     0.2914870
  H       -1.2072810    -1.7890590     0.3309910
  H       -1.2759310    -0.8321580    -1.1559040
  H       -0.1496337     1.3664934    -1.1326710
  H        0.6879635     1.9210683     0.2003200
units angstrom
no_reorient  #important for SAPT in psi4, default
symmetry c1  #important for SAPT in psi4, default
}

set PROPERTIES_ORIGIN ["COM"]
properties('MP2/aug-cc-pvtz', properties = ['dipole'])
--------------------------------------------------------------------------

    Molecular point group: c1
  Charge       = 0
  Multiplicity = 1
  Basis Set: AUG-CC-PVTZ
    Blend: AUG-CC-PVTZ
  Basis Set: (AUG-CC-PVTZ AUX)
    Blend: AUG-CC-PVTZ-JKFIT

    Orbital Energies [Eh]
    ---------------------

    Doubly Occupied:

       1A    -15.537031     2A    -11.250938     3A    -11.212994
       4A    -11.208616     5A     -1.182612     6A     -1.010989
       7A     -0.931441     8A     -0.786638     9A     -0.669648
      10A     -0.607467    11A     -0.596408    12A     -0.561864
      13A     -0.535358    14A     -0.508341    15A     -0.484110
      16A     -0.471417    17A     -0.388218

  @DF-RHF Final Energy:  -173.35551987728809

   => Energetics <=

    Nuclear Repulsion Energy =            135.6321909052522869
    One-Electron Energy =                -502.0872436317349070
    Two-Electron Energy =                 193.0995328491945315
    Total Energy =                       -173.3555198772880885
  Basis Set: (AUG-CC-PVTZ AUX)
    Blend: AUG-CC-PVTZ-RI
    Molecular point group: c1

    Geometry (in Angstrom), charge = 0, multiplicity = 1:

       Center              X                  Y                   Z               Mass
    ------------   -----------------  -----------------  -----------------  -----------------
         N           -0.124562751024     1.390284441107    -0.112589921537    14.003074004430
         C            0.011887248976     0.007692441107     0.361504078463    12.000000000000
         C            1.290918248976    -0.684009558893    -0.107158921537    12.000000000000
         C           -1.225372751024    -0.768692558893    -0.063473921537    12.000000000000
         H            0.026455248976     0.059711441107     1.457249078463     1.007825032230
         H            1.373041248976    -1.697835558893     0.297759078463     1.007825032230
         H            1.302163248976    -0.753675558893    -1.200612921537     1.007825032230
         H            2.176632248976    -0.121998558893     0.206029078463     1.007825032230
         H           -2.127306751024    -0.265860558893     0.290896078463     1.007825032230
         H           -1.206621751024    -1.788634558893     0.330400078463     1.007825032230
         H           -1.275271751024    -0.831733558893    -1.156494921537     1.007825032230
         H           -0.148974451024     1.366917841107    -1.133261921537     1.007825032230
         H            0.688622748976     1.921492741107     0.199729078463     1.007825032230

  Basis Set: AUG-CC-PVTZ
    Blend: AUG-CC-PVTZ
  Basis Set: (AUG-CC-PVTZ AUX)
    Blend: AUG-CC-PVTZ-JKFIT
	 Reference Energy          =    -173.3555198772880885 [Eh]
	 Singles Energy            =      -0.0000000000000000 [Eh]
	 Same-Spin Energy          =      -0.1817715597320547 [Eh]
	 Opposite-Spin Energy      =      -0.6606725321619737 [Eh]
	 Correlation Energy        =      -0.8424440918940284 [Eh]
	 Total Energy              =    -174.1979639691821262 [Eh]

	 ================> DF-SCS-MP2 Energies <==================
	-----------------------------------------------------------
	 SCS Same-Spin Scale       =       0.3333333333333333 [-]
	 SCS Opposite-Spin Scale   =       1.2000000000000000 [-]
	 SCS Same-Spin Energy      =      -0.0605905199106849 [Eh]
	 SCS Opposite-Spin Energy  =      -0.7928070385943685 [Eh]
	 SCS Correlation Energy    =      -0.8533975585050534 [Eh]
	 SCS Total Energy          =    -174.2089174357931540 [Eh]
	-----------------------------------------------------------

  Dipole Moment: [D]
     X:     1.0833      Y:    -0.6085      Z:    -0.3250     Total:     1.2843

*** Psi4 exiting successfully. Buy a developer a beer!
