                               Psi4 1.3.2 release

  ==> Input File <==

--------------------------------------------------------------------------
#psi4
#
memory 32 gb

molecule  {
0 1
  N       -0.1252220     1.3898600    -0.1119990
  C        0.0092536     0.0245494     0.4102917
  C        1.2902590    -0.6844340    -0.1065680
  C       -1.2260320    -0.7691170    -0.0628830
  H        0.0257960     0.0592870     1.4578400
  H        1.3723820    -1.6982600     0.2983500
  H        1.3015040    -0.7541000    -1.2000220
  H        2.1759730    -0.1224230     0.2066200
  H       -2.1279660    -0.2662850     0.2914870
  H       -1.2072810    -1.7890590     0.3309910
  H       -1.2759310    -0.8321580    -1.1559040
  H       -0.1233168     1.4213883    -1.1327416
  H        0.6967190     1.9265130     0.1662320
units angstrom
no_reorient  #important for SAPT in psi4, default
symmetry c1  #important for SAPT in psi4, default
}

set PROPERTIES_ORIGIN ["COM"]
properties('MP2/aug-cc-pvtz', properties = ['dipole'])
--------------------------------------------------------------------------

    Molecular point group: c1
  Charge       = 0
  Multiplicity = 1
  Basis Set: AUG-CC-PVTZ
    Blend: AUG-CC-PVTZ
  Basis Set: (AUG-CC-PVTZ AUX)
    Blend: AUG-CC-PVTZ-JKFIT

    Orbital Energies [Eh]
    ---------------------

    Doubly Occupied:

       1A    -15.536473     2A    -11.250837     3A    -11.212998
       4A    -11.208766     5A     -1.180331     6A     -1.007368
       7A     -0.926942     8A     -0.797913     9A     -0.661221
      10A     -0.608978    11A     -0.592913    12A     -0.559561
      13A     -0.534616    14A     -0.509480    15A     -0.491609
      16A     -0.469871    17A     -0.384960

  @DF-RHF Final Energy:  -173.35334421665502

   => Energetics <=

    Nuclear Repulsion Energy =            135.2194683224252856
    One-Electron Energy =                -501.2759491892907135
    Two-Electron Energy =                 192.7031366502103822
    Total Energy =                       -173.3533442166550174
  Basis Set: (AUG-CC-PVTZ AUX)
    Blend: AUG-CC-PVTZ-RI
    Molecular point group: c1

    Geometry (in Angstrom), charge = 0, multiplicity = 1:

       Center              X                  Y                   Z               Mass
    ------------   -----------------  -----------------  -----------------  -----------------
         N           -0.124760031409     1.385744527905    -0.121797679912    14.003074004430
         C            0.009715568591     0.020433927905     0.400493020088    12.000000000000
         C            1.290720968591    -0.688549472095    -0.116366679912    12.000000000000
         C           -1.225570031409    -0.773232472095    -0.072681679912    12.000000000000
         H            0.026257968591     0.055171527905     1.448041320088     1.007825032230
         H            1.372843968591    -1.702375472095     0.288551320088     1.007825032230
         H            1.301965968591    -0.758215472095    -1.209820679912     1.007825032230
         H            2.176434968591    -0.126538472095     0.196821320088     1.007825032230
         H           -2.127504031409    -0.270400472095     0.281688320088     1.007825032230
         H           -1.206819031409    -1.793174472095     0.321192320088     1.007825032230
         H           -1.275469031409    -0.836273472095    -1.165702679912     1.007825032230
         H           -0.122854831409     1.417272827905    -1.142540279912     1.007825032230
         H            0.697180968591     1.922397527905     0.156433320088     1.007825032230

  Basis Set: AUG-CC-PVTZ
    Blend: AUG-CC-PVTZ
  Basis Set: (AUG-CC-PVTZ AUX)
    Blend: AUG-CC-PVTZ-JKFIT
	 Reference Energy          =    -173.3533442166550174 [Eh]
	 Singles Energy            =      -0.0000000000000000 [Eh]
	 Same-Spin Energy          =      -0.1814395087926918 [Eh]
	 Opposite-Spin Energy      =      -0.6603681391360419 [Eh]
	 Correlation Energy        =      -0.8418076479287336 [Eh]
	 Total Energy              =    -174.1951518645837496 [Eh]

	 ================> DF-SCS-MP2 Energies <==================
	-----------------------------------------------------------
	 SCS Same-Spin Scale       =       0.3333333333333333 [-]
	 SCS Opposite-Spin Scale   =       1.2000000000000000 [-]
	 SCS Same-Spin Energy      =      -0.0604798362642306 [Eh]
	 SCS Opposite-Spin Energy  =      -0.7924417669632502 [Eh]
	 SCS Correlation Energy    =      -0.8529216032274808 [Eh]
	 SCS Total Energy          =    -174.2062658198825034 [Eh]
	-----------------------------------------------------------

  Dipole Moment: [D]
     X:     1.0944      Y:    -0.5696      Z:    -0.3297     Total:     1.2771

*** Psi4 exiting successfully. Buy a developer a beer!
