                               Psi4 1.3.2 release

  ==> Input File <==

--------------------------------------------------------------------------
#psi4
#
memory 32 gb

molecule  {
0 1
  N       -0.1252220     1.3898600    -0.1119990
  C        0.0082048     0.0338153     0.4341551
  C        1.2902590    -0.6844340    -0.1065680
  C       -1.2260320    -0.7691170    -0.0628830
  H        0.0257960     0.0592870     1.4578400
  H        1.3723820    -1.6982600     0.2983500
  H        1.3015040    -0.7541000    -1.2000220
  H        2.1759730    -0.1224230     0.2066200
  H       -2.1279660    -0.2662850     0.2914870
  H       -1.2072810    -1.7890590     0.3309910
  H       -1.2759310    -0.8321580    -1.1559040
  H       -0.1250993     1.4391088    -1.1320420
  H        0.6967190     1.9265130     0.1662320
units angstrom
no_reorient  #important for SAPT in psi4, default
symmetry c1  #important for SAPT in psi4, default
}

set PROPERTIES_ORIGIN ["COM"]
properties('MP2/aug-cc-pvtz', properties = ['dipole'])
--------------------------------------------------------------------------

    Molecular point group: c1
  Charge       = 0
  Multiplicity = 1
  Basis Set: AUG-CC-PVTZ
    Blend: AUG-CC-PVTZ
  Basis Set: (AUG-CC-PVTZ AUX)
    Blend: AUG-CC-PVTZ-JKFIT

    Orbital Energies [Eh]
    ---------------------

    Doubly Occupied:

       1A    -15.536129     2A    -11.250825     3A    -11.212943
       4A    -11.208976     5A     -1.179191     6A     -1.005225
       7A     -0.924720     8A     -0.803325     9A     -0.659323
      10A     -0.610147    11A     -0.591289    12A     -0.558727
      13A     -0.534188    14A     -0.510476    15A     -0.496534
      16A     -0.465812    17A     -0.382145

  @DF-RHF Final Energy:  -173.34914991347983

   => Energetics <=

    Nuclear Repulsion Energy =            135.0259982043722005
    One-Electron Energy =                -500.8903429296663603
    Two-Electron Energy =                 192.5151948118142968
    Total Energy =                       -173.3491499134798346
  Basis Set: (AUG-CC-PVTZ AUX)
    Blend: AUG-CC-PVTZ-RI
    Molecular point group: c1

    Geometry (in Angstrom), charge = 0, multiplicity = 1:

       Center              X                  Y                   Z               Mass
    ------------   -----------------  -----------------  -----------------  -----------------
         N           -0.124516571172     1.383559961813    -0.126657149519    14.003074004430
         C            0.008910228828     0.027515261813     0.419496950481    12.000000000000
         C            1.290964428828    -0.690734038187    -0.121226149519    12.000000000000
         C           -1.225326571172    -0.775417038187    -0.077541149519    12.000000000000
         H            0.026501428828     0.052986961813     1.443181850481     1.007825032230
         H            1.373087428828    -1.704560038187     0.283691850481     1.007825032230
         H            1.302209428828    -0.760400038187    -1.214680149519     1.007825032230
         H            2.176678428828    -0.128723038187     0.191961850481     1.007825032230
         H           -2.127260571172    -0.272585038187     0.276828850481     1.007825032230
         H           -1.206575571172    -1.795359038187     0.316332850481     1.007825032230
         H           -1.275225571172    -0.838458038187    -1.170562149519     1.007825032230
         H           -0.124393871172     1.432808761813    -1.146700149519     1.007825032230
         H            0.697424428828     1.920212961813     0.151573850481     1.007825032230

  Basis Set: AUG-CC-PVTZ
    Blend: AUG-CC-PVTZ
  Basis Set: (AUG-CC-PVTZ AUX)
    Blend: AUG-CC-PVTZ-JKFIT
	 Reference Energy          =    -173.3491499134798346 [Eh]
	 Singles Energy            =      -0.0000000000000000 [Eh]
	 Same-Spin Energy          =      -0.1813561218719809 [Eh]
	 Opposite-Spin Energy      =      -0.6603871531723147 [Eh]
	 Correlation Energy        =      -0.8417432750442956 [Eh]
	 Total Energy              =    -174.1908931885241429 [Eh]

	 ================> DF-SCS-MP2 Energies <==================
	-----------------------------------------------------------
	 SCS Same-Spin Scale       =       0.3333333333333333 [-]
	 SCS Opposite-Spin Scale   =       1.2000000000000000 [-]
	 SCS Same-Spin Energy      =      -0.0604520406239936 [Eh]
	 SCS Opposite-Spin Energy  =      -0.7924645838067775 [Eh]
	 SCS Correlation Energy    =      -0.8529166244307712 [Eh]
	 SCS Total Energy          =    -174.2020665379106106 [Eh]
	-----------------------------------------------------------

  Dipole Moment: [D]
     X:     1.0806      Y:    -0.5453      Z:    -0.3214     Total:     1.2524

*** Psi4 exiting successfully. Buy a developer a beer!
