                               Psi4 1.4a3.dev225

  ==> Input File <==

--------------------------------------------------------------------------
#psi4
#
memory 32 gb

molecule  {
0 1
  N       -0.1469120     1.4236990     0.0545040
  C       -0.0036268     0.0444221    -0.3680483
  C       -1.1263120    -0.8911600     0.1097180
  C        1.3605930    -0.4776830     0.0847150
  H       -0.0123590     0.0390410    -1.4711690
  H       -1.0014230    -1.9137900    -0.2617640
  H       -1.1380790    -0.9271980     1.2051720
  H       -2.1014050    -0.5250040    -0.2284640
  H        2.1497210     0.1825180    -0.2814950
  H        1.5482070    -1.4933870    -0.2755620
  H        1.4087220    -0.4951910     1.1798760
  H       -0.1651660     1.4506720     1.0754960
  H       -1.0556140     1.7771540    -0.2469470
units angstrom
no_reorient  #important for SAPT in psi4, default
symmetry c1  #important for SAPT in psi4, default
}

set PROPERTIES_ORIGIN ["COM"]
properties('MP2/aug-cc-pvtz', properties = ['dipole'])
--------------------------------------------------------------------------

    Molecular point group: c1
  Charge       = 0
  Multiplicity = 1
  Basis Set: AUG-CC-PVTZ
    Blend: AUG-CC-PVTZ
  Basis Set: (AUG-CC-PVTZ AUX)
    Blend: AUG-CC-PVTZ-JKFIT

    Orbital Energies [Eh]
    ---------------------

    Doubly Occupied:

       1A    -15.538552     2A    -11.252138     3A    -11.213248
       4A    -11.208823     5A     -1.187948     6A     -1.009667
       7A     -0.929888     8A     -0.787826     9A     -0.667217
      10A     -0.609524    11A     -0.594680    12A     -0.560993
      13A     -0.534812    14A     -0.513224    15A     -0.484051
      16A     -0.467677    17A     -0.389592

  @DF-RHF Final Energy:  -173.35558743074697

   => Energetics <=

    Nuclear Repulsion Energy =            135.5614016564421433
    One-Electron Energy =                -501.9342559661340601
    Two-Electron Energy =                 193.0172668789449233
    Total Energy =                       -173.3555874307469651
  Basis Set: (AUG-CC-PVTZ AUX)
    Blend: AUG-CC-PVTZ-RI
    Molecular point group: c1

    Geometry (in Angstrom), charge = 0, multiplicity = 1:

       Center              X                  Y                   Z               Mass
    ------------   -----------------  -----------------  -----------------  -----------------
         N           -0.152673634411     1.387760405734     0.064992248461    14.003074004430
         C           -0.009388434411     0.008483505734    -0.357560051539    12.000000000000
         C           -1.132073634411    -0.927098594266     0.120206248461    12.000000000000
         C            1.354831365589    -0.513621594266     0.095203248461    12.000000000000
         H           -0.018120634411     0.003102405734    -1.460680751539     1.007825032230
         H           -1.007184634411    -1.949728594266    -0.251275751539     1.007825032230
         H           -1.143840634411    -0.963136594266     1.215660248461     1.007825032230
         H           -2.107166634411    -0.560942594266    -0.217975751539     1.007825032230
         H            2.143959365589     0.146579405734    -0.271006751539     1.007825032230
         H            1.542445365589    -1.529325594266    -0.265073751539     1.007825032230
         H            1.402960365589    -0.531129594266     1.190364248461     1.007825032230
         H           -0.170927634411     1.414733405734     1.085984248461     1.007825032230
         H           -1.061375634411     1.741215405734    -0.236458751539     1.007825032230

  Basis Set: AUG-CC-PVTZ
    Blend: AUG-CC-PVTZ
  Basis Set: (AUG-CC-PVTZ AUX)
    Blend: AUG-CC-PVTZ-JKFIT
	 Reference Energy          =    -173.3555874307469651 [Eh]
	 Singles Energy            =      -0.0000000000000000 [Eh]
	 Same-Spin Energy          =      -0.1817225499762702 [Eh]
	 Opposite-Spin Energy      =      -0.6606007337008432 [Eh]
	 Correlation Energy        =      -0.8423232836771134 [Eh]
	 Total Energy              =    -174.1979107144240686 [Eh]

	 ================> DF-SCS-MP2 Energies <==================
	-----------------------------------------------------------
	 SCS Same-Spin Scale       =       0.3333333333333333 [-]
	 SCS Opposite-Spin Scale   =       1.2000000000000000 [-]
	 SCS Same-Spin Energy      =      -0.0605741833254234 [Eh]
	 SCS Opposite-Spin Energy  =      -0.7927208804410117 [Eh]
	 SCS Correlation Energy    =      -0.8532950637664352 [Eh]
	 SCS Total Energy          =    -174.2088824945134036 [Eh]
	-----------------------------------------------------------

  Dipole Moment: [D]
     X:    -0.9819      Y:    -0.7604      Z:     0.3726     Total:     1.2966

*** Psi4 exiting successfully. Buy a developer a beer!
