                               Psi4 1.3.2 release

  ==> Input File <==

--------------------------------------------------------------------------
#psi4
#
memory 32 gb

molecule  {
0 1
  N       -0.1252220     1.3898600    -0.1119990
  C        0.0298183    -0.1810995     0.4266867
  C        1.2902590    -0.6844340    -0.1065680
  C       -1.2260320    -0.7691170    -0.0628830
  H        0.0257960     0.0592870     1.4578400
  H        1.3723820    -1.6982600     0.2983500
  H        1.3015040    -0.7541000    -1.2000220
  H        2.1759730    -0.1224230     0.2066200
  H       -2.1279660    -0.2662850     0.2914870
  H       -1.2072810    -1.7890590     0.3309910
  H       -1.2759310    -0.8321580    -1.1559040
  H       -0.1197540     1.3859240    -1.1332080
  H        0.6967190     1.9265130     0.1662320
units angstrom
no_reorient  #important for SAPT in psi4, default
symmetry c1  #important for SAPT in psi4, default
}

set PROPERTIES_ORIGIN ["COM"]
properties('MP2/aug-cc-pvtz', properties = ['dipole'])
--------------------------------------------------------------------------

    Molecular point group: c1
  Charge       = 0
  Multiplicity = 1
  Basis Set: AUG-CC-PVTZ
    Blend: AUG-CC-PVTZ
  Basis Set: (AUG-CC-PVTZ AUX)
    Blend: AUG-CC-PVTZ-JKFIT

    Orbital Energies [Eh]
    ---------------------

    Doubly Occupied:

       1A    -15.524694     2A    -11.257998     3A    -11.218638
       4A    -11.212744     5A     -1.144012     6A     -1.026519
       7A     -0.947318     8A     -0.790856     9A     -0.651986
      10A     -0.613757    11A     -0.591056    12A     -0.567064
      13A     -0.543075    14A     -0.511537    15A     -0.495355
      16A     -0.451098    17A     -0.376760

  @DF-RHF Final Energy:  -173.32406798727320

   => Energetics <=

    Nuclear Repulsion Energy =            134.9034632656976953
    One-Electron Energy =                -500.6061330454962786
    Two-Electron Energy =                 192.3786017925254157
    Total Energy =                       -173.3240679872731960
  Basis Set: (AUG-CC-PVTZ AUX)
    Blend: AUG-CC-PVTZ-RI
    Molecular point group: c1

    Geometry (in Angstrom), charge = 0, multiplicity = 1:

       Center              X                  Y                   Z               Mass
    ------------   -----------------  -----------------  -----------------  -----------------
         N           -0.128998261445     1.428124421414    -0.125120150271    14.003074004430
         C            0.026042038555    -0.142835078586     0.413565549729    12.000000000000
         C            1.286482738555    -0.646169578586    -0.119689150271    12.000000000000
         C           -1.229808261445    -0.730852578586    -0.076004150271    12.000000000000
         H            0.022019738555     0.097551421414     1.444718849729     1.007825032230
         H            1.368605738555    -1.659995578586     0.285228849729     1.007825032230
         H            1.297727738555    -0.715835578586    -1.213143150271     1.007825032230
         H            2.172196738555    -0.084158578586     0.193498849729     1.007825032230
         H           -2.131742261445    -0.228020578586     0.278365849729     1.007825032230
         H           -1.211057261445    -1.750794578586     0.317869849729     1.007825032230
         H           -1.279707261445    -0.793893578586    -1.169025150271     1.007825032230
         H           -0.123530261445     1.424188421414    -1.146329150271     1.007825032230
         H            0.692942738555     1.964777421414     0.153110849729     1.007825032230

  Basis Set: AUG-CC-PVTZ
    Blend: AUG-CC-PVTZ
  Basis Set: (AUG-CC-PVTZ AUX)
    Blend: AUG-CC-PVTZ-JKFIT
	 Reference Energy          =    -173.3240679872731960 [Eh]
	 Singles Energy            =      -0.0000000000000000 [Eh]
	 Same-Spin Energy          =      -0.1830331846045425 [Eh]
	 Opposite-Spin Energy      =      -0.6641632991628064 [Eh]
	 Correlation Energy        =      -0.8471964837673488 [Eh]
	 Total Energy              =    -174.1712644710405584 [Eh]

	 ================> DF-SCS-MP2 Energies <==================
	-----------------------------------------------------------
	 SCS Same-Spin Scale       =       0.3333333333333333 [-]
	 SCS Opposite-Spin Scale   =       1.2000000000000000 [-]
	 SCS Same-Spin Energy      =      -0.0610110615348475 [Eh]
	 SCS Opposite-Spin Energy  =      -0.7969959589953676 [Eh]
	 SCS Correlation Energy    =      -0.8580070205302150 [Eh]
	 SCS Total Energy          =    -174.1820750078034052 [Eh]
	-----------------------------------------------------------

  Dipole Moment: [D]
     X:     1.1948      Y:    -1.1127      Z:    -0.2638     Total:     1.6539

*** Psi4 exiting successfully. Buy a developer a beer!
