                               Psi4 1.3.2 release

  ==> Input File <==

--------------------------------------------------------------------------
#psi4
#
memory 32 gb

molecule  {
0 1
  N       -0.1252220     1.3898600    -0.1119990
  C        0.0112280     0.0072680     0.3620950
  C        1.2902590    -0.6844340    -0.1065680
  C       -1.2260320    -0.7691170    -0.0628830
  H        0.0257960     0.0592870     1.4578400
  H        1.3723820    -1.6982600     0.2983500
  H        1.3015040    -0.7541000    -1.2000220
  H        2.1759730    -0.1224230     0.2066200
  H       -2.1279660    -0.2662850     0.2914870
  H       -1.2072810    -1.7890590     0.3309910
  H       -1.2759310    -0.8321580    -1.1559040
  H       -0.0898810     1.4053594    -1.1325008
  H        0.7044731     1.9313039     0.1318051
units angstrom
no_reorient  #important for SAPT in psi4, default
symmetry c1  #important for SAPT in psi4, default
}

set PROPERTIES_ORIGIN ["COM"]
properties('MP2/aug-cc-pvtz', properties = ['dipole'])
--------------------------------------------------------------------------

    Molecular point group: c1
  Charge       = 0
  Multiplicity = 1
  Basis Set: AUG-CC-PVTZ
    Blend: AUG-CC-PVTZ
  Basis Set: (AUG-CC-PVTZ AUX)
    Blend: AUG-CC-PVTZ-JKFIT

    Orbital Energies [Eh]
    ---------------------

    Doubly Occupied:

       1A    -15.537800     2A    -11.252142     3A    -11.213655
       4A    -11.208676     5A     -1.183456     6A     -1.012950
       7A     -0.931680     8A     -0.789380     9A     -0.661303
      10A     -0.611146    11A     -0.593127    12A     -0.560382
      13A     -0.535752    14A     -0.511325    15A     -0.484555
      16A     -0.470683    17A     -0.391960

  @DF-RHF Final Energy:  -173.35553393044182

   => Energetics <=

    Nuclear Repulsion Energy =            135.5719055947994605
    One-Electron Energy =                -501.9549350938394241
    Two-Electron Energy =                 193.0274955685981126
    Total Energy =                       -173.3555339304418226
  Basis Set: (AUG-CC-PVTZ AUX)
    Blend: AUG-CC-PVTZ-RI
    Molecular point group: c1

    Geometry (in Angstrom), charge = 0, multiplicity = 1:

       Center              X                  Y                   Z               Mass
    ------------   -----------------  -----------------  -----------------  -----------------
         N           -0.125863826056     1.389446741932    -0.111423924934    14.003074004430
         C            0.010586173944     0.006854741932     0.362670075066    12.000000000000
         C            1.289617173944    -0.684847258068    -0.105992924934    12.000000000000
         C           -1.226673826056    -0.769530258068    -0.062307924934    12.000000000000
         H            0.025154173944     0.058873741932     1.458415075066     1.007825032230
         H            1.371740173944    -1.698673258068     0.298925075066     1.007825032230
         H            1.300862173944    -0.754513258068    -1.199446924934     1.007825032230
         H            2.175331173944    -0.122836258068     0.207195075066     1.007825032230
         H           -2.128607826056    -0.266698258068     0.292062075066     1.007825032230
         H           -1.207922826056    -1.789472258068     0.331566075066     1.007825032230
         H           -1.276572826056    -0.832571258068    -1.155328924934     1.007825032230
         H           -0.090522826056     1.404946141932    -1.131925724934     1.007825032230
         H            0.703831273944     1.930890641932     0.132380175066     1.007825032230

  Basis Set: AUG-CC-PVTZ
    Blend: AUG-CC-PVTZ
  Basis Set: (AUG-CC-PVTZ AUX)
    Blend: AUG-CC-PVTZ-JKFIT
	 Reference Energy          =    -173.3555339304418226 [Eh]
	 Singles Energy            =      -0.0000000000000000 [Eh]
	 Same-Spin Energy          =      -0.1817359291939610 [Eh]
	 Opposite-Spin Energy      =      -0.6607035076148213 [Eh]
	 Correlation Energy        =      -0.8424394368087823 [Eh]
	 Total Energy              =    -174.1979733672505972 [Eh]

	 ================> DF-SCS-MP2 Energies <==================
	-----------------------------------------------------------
	 SCS Same-Spin Scale       =       0.3333333333333333 [-]
	 SCS Opposite-Spin Scale   =       1.2000000000000000 [-]
	 SCS Same-Spin Energy      =      -0.0605786430646537 [Eh]
	 SCS Opposite-Spin Energy  =      -0.7928442091377855 [Eh]
	 SCS Correlation Energy    =      -0.8534228522024392 [Eh]
	 SCS Total Energy          =    -174.2089567826442646 [Eh]
	-----------------------------------------------------------

  Dipole Moment: [D]
     X:     1.1546      Y:    -0.6204      Z:    -0.3758     Total:     1.3635

*** Psi4 exiting successfully. Buy a developer a beer!
