                               Psi4 1.3.2 release

  ==> Input File <==

--------------------------------------------------------------------------
#psi4
#
memory 32 gb

molecule  {
0 1
  N       -0.1252220     1.3898600    -0.1119990
  C        0.0107499     0.0114312     0.3742006
  C        1.2902590    -0.6844340    -0.1065680
  C       -1.2260320    -0.7691170    -0.0628830
  H        0.0257960     0.0592870     1.4578400
  H        1.3723820    -1.6982600     0.2983500
  H        1.3015040    -0.7541000    -1.2000220
  H        2.1759730    -0.1224230     0.2066200
  H       -2.1279660    -0.2662850     0.2914870
  H       -1.2072810    -1.7890590     0.3309910
  H       -1.2759310    -0.8321580    -1.1559040
  H       -0.1206442     1.3947913    -1.1332081
  H        0.6967190     1.9265130     0.1662320
units angstrom
no_reorient  #important for SAPT in psi4, default
symmetry c1  #important for SAPT in psi4, default
}

set PROPERTIES_ORIGIN ["COM"]
properties('MP2/aug-cc-pvtz', properties = ['dipole'])
--------------------------------------------------------------------------

    Molecular point group: c1
  Charge       = 0
  Multiplicity = 1
  Basis Set: AUG-CC-PVTZ
    Blend: AUG-CC-PVTZ
  Basis Set: (AUG-CC-PVTZ AUX)
    Blend: AUG-CC-PVTZ-JKFIT

    Orbital Energies [Eh]
    ---------------------

    Doubly Occupied:

       1A    -15.537160     2A    -11.251274     3A    -11.213214
       4A    -11.208635     5A     -1.182265     6A     -1.010763
       7A     -0.930381     8A     -0.790337     9A     -0.664276
      10A     -0.608887    11A     -0.594542    12A     -0.560833
      13A     -0.535300    14A     -0.509654    15A     -0.484537
      16A     -0.472756    17A     -0.388895

  @DF-RHF Final Energy:  -173.35601456354348

   => Energetics <=

    Nuclear Repulsion Energy =            135.5063517696657129
    One-Electron Energy =                -501.8373195534696833
    Two-Electron Energy =                 192.9749532202605167
    Total Energy =                       -173.3560145635434822
  Basis Set: (AUG-CC-PVTZ AUX)
    Blend: AUG-CC-PVTZ-RI
    Molecular point group: c1

    Geometry (in Angstrom), charge = 0, multiplicity = 1:

       Center              X                  Y                   Z               Mass
    ------------   -----------------  -----------------  -----------------  -----------------
         N           -0.125109580927     1.388863075555    -0.114458291598    14.003074004430
         C            0.010862319073     0.010434275555     0.371741308402    12.000000000000
         C            1.290371419073    -0.685430924445    -0.109027291598    12.000000000000
         C           -1.225919580927    -0.770113924445    -0.065342291598    12.000000000000
         H            0.025908419073     0.058290075555     1.455380708402     1.007825032230
         H            1.372494419073    -1.699256924445     0.295890708402     1.007825032230
         H            1.301616419073    -0.755096924445    -1.202481291598     1.007825032230
         H            2.176085419073    -0.123419924445     0.204160708402     1.007825032230
         H           -2.127853580927    -0.267281924445     0.289027708402     1.007825032230
         H           -1.207168580927    -1.790055924445     0.328531708402     1.007825032230
         H           -1.275818580927    -0.833154924445    -1.158363291598     1.007825032230
         H           -0.120531780927     1.393794375555    -1.135667391598     1.007825032230
         H            0.696831419073     1.925516075555     0.163772708402     1.007825032230

  Basis Set: AUG-CC-PVTZ
    Blend: AUG-CC-PVTZ
  Basis Set: (AUG-CC-PVTZ AUX)
    Blend: AUG-CC-PVTZ-JKFIT
	 Reference Energy          =    -173.3560145635434822 [Eh]
	 Singles Energy            =      -0.0000000000000000 [Eh]
	 Same-Spin Energy          =      -0.1816430652318410 [Eh]
	 Opposite-Spin Energy      =      -0.6605438578626374 [Eh]
	 Correlation Energy        =      -0.8421869230944784 [Eh]
	 Total Energy              =    -174.1982014866379700 [Eh]

	 ================> DF-SCS-MP2 Energies <==================
	-----------------------------------------------------------
	 SCS Same-Spin Scale       =       0.3333333333333333 [-]
	 SCS Opposite-Spin Scale   =       1.2000000000000000 [-]
	 SCS Same-Spin Energy      =      -0.0605476884106137 [Eh]
	 SCS Opposite-Spin Energy  =      -0.7926526294351648 [Eh]
	 SCS Correlation Energy    =      -0.8532003178457784 [Eh]
	 SCS Total Energy          =    -174.2092148813892720 [Eh]
	-----------------------------------------------------------

  Dipole Moment: [D]
     X:     1.1136      Y:    -0.6035      Z:    -0.3450     Total:     1.3128

*** Psi4 exiting successfully. Buy a developer a beer!
