                               Psi4 1.4a3.dev225

  ==> Input File <==

--------------------------------------------------------------------------
#psi4
#
memory 32 gb

molecule  {
0 1
  N       -0.1469120     1.4236990     0.0545040
  C        0.0003268     0.0063639    -0.3797077
  C       -1.1263120    -0.8911600     0.1097180
  C        1.3605930    -0.4776830     0.0847150
  H       -0.0123590     0.0390410    -1.4711690
  H       -1.0014230    -1.9137900    -0.2617640
  H       -1.1380790    -0.9271980     1.2051720
  H       -2.1014050    -0.5250040    -0.2284640
  H        2.1497210     0.1825180    -0.2814950
  H        1.5482070    -1.4933870    -0.2755620
  H        1.4087220    -0.4951910     1.1798760
  H       -0.1651660     1.4506720     1.0754960
  H       -1.0556140     1.7771540    -0.2469470
units angstrom
no_reorient  #important for SAPT in psi4, default
symmetry c1  #important for SAPT in psi4, default
}

set PROPERTIES_ORIGIN ["COM"]
properties('MP2/aug-cc-pvtz', properties = ['dipole'])
--------------------------------------------------------------------------

    Molecular point group: c1
  Charge       = 0
  Multiplicity = 1
  Basis Set: AUG-CC-PVTZ
    Blend: AUG-CC-PVTZ
  Basis Set: (AUG-CC-PVTZ AUX)
    Blend: AUG-CC-PVTZ-JKFIT

    Orbital Energies [Eh]
    ---------------------

    Doubly Occupied:

       1A    -15.536695     2A    -11.252056     3A    -11.214101
       4A    -11.209184     5A     -1.177017     6A     -1.013386
       7A     -0.932807     8A     -0.787855     9A     -0.662731
      10A     -0.608483    11A     -0.594427    12A     -0.561253
      13A     -0.536291    14A     -0.506655    15A     -0.483972
      16A     -0.474254    17A     -0.390448

  @DF-RHF Final Energy:  -173.35546369034199

   => Energetics <=

    Nuclear Repulsion Energy =            135.4116208593140982
    One-Electron Energy =                -501.6509383720691631
    Two-Electron Energy =                 192.8838538224130730
    Total Energy =                       -173.3554636903419919
  Basis Set: (AUG-CC-PVTZ AUX)
    Blend: AUG-CC-PVTZ-RI
    Molecular point group: c1

    Geometry (in Angstrom), charge = 0, multiplicity = 1:

       Center              X                  Y                   Z               Mass
    ------------   -----------------  -----------------  -----------------  -----------------
         N           -0.153476755956     1.395491425658     0.067360701349    14.003074004430
         C           -0.006237955956    -0.021843674342    -0.366850998651    12.000000000000
         C           -1.132876755956    -0.919367574342     0.122574701349    12.000000000000
         C            1.354028244044    -0.505890574342     0.097571701349    12.000000000000
         H           -0.018923755956     0.010833425658    -1.458312298651     1.007825032230
         H           -1.007987755956    -1.941997574342    -0.248907298651     1.007825032230
         H           -1.144643755956    -0.955405574342     1.218028701349     1.007825032230
         H           -2.107969755956    -0.553211574342    -0.215607298651     1.007825032230
         H            2.143156244044     0.154310425658    -0.268638298651     1.007825032230
         H            1.541642244044    -1.521594574342    -0.262705298651     1.007825032230
         H            1.402157244044    -0.523398574342     1.192732701349     1.007825032230
         H           -0.171730755956     1.422464425658     1.088352701349     1.007825032230
         H           -1.062178755956     1.748946425658    -0.234090298651     1.007825032230

  Basis Set: AUG-CC-PVTZ
    Blend: AUG-CC-PVTZ
  Basis Set: (AUG-CC-PVTZ AUX)
    Blend: AUG-CC-PVTZ-JKFIT
	 Reference Energy          =    -173.3554636903419919 [Eh]
	 Singles Energy            =      -0.0000000000000000 [Eh]
	 Same-Spin Energy          =      -0.1817013014120106 [Eh]
	 Opposite-Spin Energy      =      -0.6608211237848403 [Eh]
	 Correlation Energy        =      -0.8425224251968508 [Eh]
	 Total Energy              =    -174.1979861155388392 [Eh]

	 ================> DF-SCS-MP2 Energies <==================
	-----------------------------------------------------------
	 SCS Same-Spin Scale       =       0.3333333333333333 [-]
	 SCS Opposite-Spin Scale   =       1.2000000000000000 [-]
	 SCS Same-Spin Energy      =      -0.0605671004706702 [Eh]
	 SCS Opposite-Spin Energy  =      -0.7929853485418082 [Eh]
	 SCS Correlation Energy    =      -0.8535524490124784 [Eh]
	 SCS Total Energy          =    -174.2090161393544747 [Eh]
	-----------------------------------------------------------

  Dipole Moment: [D]
     X:    -0.9803      Y:    -0.8687      Z:     0.3568     Total:     1.3576

*** Psi4 exiting successfully. Buy a developer a beer!
