                               Psi4 1.3.2 release

  ==> Input File <==

--------------------------------------------------------------------------
#psi4
#
memory 32 gb

molecule  {
0 1
  N       -0.1252220     1.3898600    -0.1119990
  C        0.0112280     0.0072680     0.3620950
  C        1.2902590    -0.6844340    -0.1065680
  C       -1.2260320    -0.7691170    -0.0628830
  H        0.0257960     0.0592870     1.4578400
  H        1.3723820    -1.6982600     0.2983500
  H        1.3015040    -0.7541000    -1.2000220
  H        2.1759730    -0.1224230     0.2066200
  H       -2.1279660    -0.2662850     0.2914870
  H       -1.2072810    -1.7890590     0.3309910
  H       -1.2759310    -0.8321580    -1.1559040
  H       -0.1122837     1.3907833    -1.1331478
  H        0.6987518     1.9277723     0.1576554
units angstrom
no_reorient  #important for SAPT in psi4, default
symmetry c1  #important for SAPT in psi4, default
}

set PROPERTIES_ORIGIN ["COM"]
properties('MP2/aug-cc-pvtz', properties = ['dipole'])
--------------------------------------------------------------------------

    Molecular point group: c1
  Charge       = 0
  Multiplicity = 1
  Basis Set: AUG-CC-PVTZ
    Blend: AUG-CC-PVTZ
  Basis Set: (AUG-CC-PVTZ AUX)
    Blend: AUG-CC-PVTZ-JKFIT

    Orbital Energies [Eh]
    ---------------------

    Doubly Occupied:

       1A    -15.537530     2A    -11.251686     3A    -11.213407
       4A    -11.208650     5A     -1.183082     6A     -1.012183
       7A     -0.931585     8A     -0.788309     9A     -0.664295
      10A     -0.609756    11A     -0.594450    12A     -0.561075
      13A     -0.535593    14A     -0.510251    15A     -0.484390
      16A     -0.471013    17A     -0.390584

  @DF-RHF Final Energy:  -173.35596207144843

   => Energetics <=

    Nuclear Repulsion Energy =            135.5933258727237103
    One-Electron Energy =                -502.0028987835635235
    Two-Electron Energy =                 193.0536108393913821
    Total Energy =                       -173.3559620714484311
  Basis Set: (AUG-CC-PVTZ AUX)
    Blend: AUG-CC-PVTZ-RI
    Molecular point group: c1

    Geometry (in Angstrom), charge = 0, multiplicity = 1:

       Center              X                  Y                   Z               Mass
    ------------   -----------------  -----------------  -----------------  -----------------
         N           -0.125384015793     1.389755668838    -0.111853906516    14.003074004430
         C            0.011065984207     0.007163668838     0.362240093484    12.000000000000
         C            1.290096984207    -0.684538331162    -0.106422906516    12.000000000000
         C           -1.226194015793    -0.769221331162    -0.062737906516    12.000000000000
         H            0.025633984207     0.059182668838     1.457985093484     1.007825032230
         H            1.372219984207    -1.698364331162     0.298495093484     1.007825032230
         H            1.301341984207    -0.754204331162    -1.199876906516     1.007825032230
         H            2.175810984207    -0.122527331162     0.206765093484     1.007825032230
         H           -2.128128015793    -0.266389331162     0.291632093484     1.007825032230
         H           -1.207443015793    -1.789163331162     0.331136093484     1.007825032230
         H           -1.276093015793    -0.832262331162    -1.155758906516     1.007825032230
         H           -0.112445715793     1.390678968838    -1.133002706516     1.007825032230
         H            0.698589784207     1.927667968838     0.157800493484     1.007825032230

  Basis Set: AUG-CC-PVTZ
    Blend: AUG-CC-PVTZ
  Basis Set: (AUG-CC-PVTZ AUX)
    Blend: AUG-CC-PVTZ-JKFIT
	 Reference Energy          =    -173.3559620714484311 [Eh]
	 Singles Energy            =      -0.0000000000000000 [Eh]
	 Same-Spin Energy          =      -0.1817281758259240 [Eh]
	 Opposite-Spin Energy      =      -0.6606604248197696 [Eh]
	 Correlation Energy        =      -0.8423886006456935 [Eh]
	 Total Energy              =    -174.1983506720941364 [Eh]

	 ================> DF-SCS-MP2 Energies <==================
	-----------------------------------------------------------
	 SCS Same-Spin Scale       =       0.3333333333333333 [-]
	 SCS Opposite-Spin Scale   =       1.2000000000000000 [-]
	 SCS Same-Spin Energy      =      -0.0605760586086413 [Eh]
	 SCS Opposite-Spin Energy  =      -0.7927925097837235 [Eh]
	 SCS Correlation Energy    =      -0.8533685683923649 [Eh]
	 SCS Total Energy          =    -174.2093306398408004 [Eh]
	-----------------------------------------------------------

  Dipole Moment: [D]
     X:     1.1285      Y:    -0.6157      Z:    -0.3573     Total:     1.3343

*** Psi4 exiting successfully. Buy a developer a beer!
