                               Psi4 1.3.2 release

  ==> Input File <==

--------------------------------------------------------------------------
#psi4
#
memory 32 gb

molecule  {
0 1
  N       -0.1252220     1.3898600    -0.1119990
  C        0.0112280     0.0072680     0.3620950
  C        1.2902590    -0.6844340    -0.1065680
  C       -1.2260320    -0.7691170    -0.0628830
  H        0.0257960     0.0592870     1.4578400
  H        1.3723820    -1.6982600     0.2983500
  H        1.3015040    -0.7541000    -1.2000220
  H        2.1759730    -0.1224230     0.2066200
  H       -2.1279660    -0.2662850     0.2914870
  H       -1.2072810    -1.7890590     0.3309910
  H       -1.2759310    -0.8321580    -1.1559040
  H       -0.1192186     1.3855386    -1.2332058
  H        0.6967190     1.9265130     0.1662320
units angstrom
no_reorient  #important for SAPT in psi4, default
symmetry c1  #important for SAPT in psi4, default
}

set PROPERTIES_ORIGIN ["COM"]
properties('MP2/aug-cc-pvtz', properties = ['dipole'])
--------------------------------------------------------------------------

    Molecular point group: c1
  Charge       = 0
  Multiplicity = 1
  Basis Set: AUG-CC-PVTZ
    Blend: AUG-CC-PVTZ
  Basis Set: (AUG-CC-PVTZ AUX)
    Blend: AUG-CC-PVTZ-JKFIT

    Orbital Energies [Eh]
    ---------------------

    Doubly Occupied:

       1A    -15.548470     2A    -11.252218     3A    -11.213263
       4A    -11.208546     5A     -1.174062     6A     -1.007025
       7A     -0.931454     8A     -0.783744     9A     -0.660278
      10A     -0.606431    11A     -0.588468    12A     -0.554382
      13A     -0.534983    14A     -0.509882    15A     -0.484336
      16A     -0.469950    17A     -0.389274

  @DF-RHF Final Energy:  -173.34640051069613

   => Energetics <=

    Nuclear Repulsion Energy =            135.1580368347993044
    One-Electron Energy =                -501.1753425625460636
    Two-Electron Energy =                 192.6709052170506311
    Total Energy =                       -173.3464005106961281
  Basis Set: (AUG-CC-PVTZ AUX)
    Blend: AUG-CC-PVTZ-RI
    Molecular point group: c1

    Geometry (in Angstrom), charge = 0, multiplicity = 1:

       Center              X                  Y                   Z               Mass
    ------------   -----------------  -----------------  -----------------  -----------------
         N           -0.125231022105     1.389866630506    -0.110293185617    14.003074004430
         C            0.011218977895     0.007274630506     0.363800814383    12.000000000000
         C            1.290249977895    -0.684427369494    -0.104862185617    12.000000000000
         C           -1.226041022105    -0.769110369494    -0.061177185617    12.000000000000
         H            0.025786977895     0.059293630506     1.459545814383     1.007825032230
         H            1.372372977895    -1.698253369494     0.300055814383     1.007825032230
         H            1.301494977895    -0.754093369494    -1.198316185617     1.007825032230
         H            2.175963977895    -0.122416369494     0.208325814383     1.007825032230
         H           -2.127975022105    -0.266278369494     0.293192814383     1.007825032230
         H           -1.207290022105    -1.789052369494     0.332696814383     1.007825032230
         H           -1.275940022105    -0.832151369494    -1.154198185617     1.007825032230
         H           -0.119227622105     1.385545230506    -1.231499985617     1.007825032230
         H            0.696709977895     1.926519630506     0.167937814383     1.007825032230

  Basis Set: AUG-CC-PVTZ
    Blend: AUG-CC-PVTZ
  Basis Set: (AUG-CC-PVTZ AUX)
    Blend: AUG-CC-PVTZ-JKFIT
	 Reference Energy          =    -173.3464005106961281 [Eh]
	 Singles Energy            =      -0.0000000000000000 [Eh]
	 Same-Spin Energy          =      -0.1822223320070303 [Eh]
	 Opposite-Spin Energy      =      -0.6624593337750722 [Eh]
	 Correlation Energy        =      -0.8446816657821024 [Eh]
	 Total Energy              =    -174.1910821764782327 [Eh]

	 ================> DF-SCS-MP2 Energies <==================
	-----------------------------------------------------------
	 SCS Same-Spin Scale       =       0.3333333333333333 [-]
	 SCS Opposite-Spin Scale   =       1.2000000000000000 [-]
	 SCS Same-Spin Energy      =      -0.0607407773356767 [Eh]
	 SCS Opposite-Spin Energy  =      -0.7949512005300866 [Eh]
	 SCS Correlation Energy    =      -0.8556919778657633 [Eh]
	 SCS Total Energy          =    -174.2020924885619024 [Eh]
	-----------------------------------------------------------

  Dipole Moment: [D]
     X:     1.1092      Y:    -0.6230      Z:    -0.3445     Total:     1.3180

*** Psi4 exiting successfully. Buy a developer a beer!
