                               Psi4 1.4a3.dev225

  ==> Input File <==

--------------------------------------------------------------------------
#psi4
#
memory 32 gb

molecule  {
0 1
  N       -0.1469120     1.4236990     0.0545040
  C       -0.0016500     0.0253930    -0.3738780
  C       -1.1263120    -0.8911600     0.1097180
  C        1.3605930    -0.4776830     0.0847150
  H       -0.0123590     0.0390410    -1.4711690
  H       -1.0014230    -1.9137900    -0.2617640
  H       -1.1380790    -0.9271980     1.2051720
  H       -2.1014050    -0.5250040    -0.2284640
  H        2.1497210     0.1825180    -0.2814950
  H        1.5482070    -1.4933870    -0.2755620
  H        1.4087220    -0.4951910     1.1798760
  H       -0.1660595     1.4519922     1.1254706
  H       -1.0556140     1.7771540    -0.2469470
units angstrom
no_reorient  #important for SAPT in psi4, default
symmetry c1  #important for SAPT in psi4, default
}

set PROPERTIES_ORIGIN ["COM"]
properties('MP2/aug-cc-pvtz', properties = ['dipole'])
--------------------------------------------------------------------------

    Molecular point group: c1
  Charge       = 0
  Multiplicity = 1
  Basis Set: AUG-CC-PVTZ
    Blend: AUG-CC-PVTZ
  Basis Set: (AUG-CC-PVTZ AUX)
    Blend: AUG-CC-PVTZ-JKFIT

    Orbital Energies [Eh]
    ---------------------

    Doubly Occupied:

       1A    -15.543307     2A    -11.252336     3A    -11.213624
       4A    -11.208928     5A     -1.177341     6A     -1.008918
       7A     -0.931274     8A     -0.785500     9A     -0.662064
      10A     -0.607063    11A     -0.591378    12A     -0.558131
      13A     -0.535302    14A     -0.509737    15A     -0.484148
      16A     -0.470529    17A     -0.389759

  @DF-RHF Final Energy:  -173.35251331401992

   => Energetics <=

    Nuclear Repulsion Energy =            135.2564752778581294
    One-Electron Energy =                -501.3592995032197450
    Two-Electron Energy =                 192.7503109113416713
    Total Energy =                       -173.3525133140199159
  Basis Set: (AUG-CC-PVTZ AUX)
    Blend: AUG-CC-PVTZ-RI
    Molecular point group: c1

    Geometry (in Angstrom), charge = 0, multiplicity = 1:

       Center              X                  Y                   Z               Mass
    ------------   -----------------  -----------------  -----------------  -----------------
         N           -0.153059951603     1.391603392388     0.065323881891    14.003074004430
         C           -0.007797951603    -0.006702607612    -0.363058118109    12.000000000000
         C           -1.132459951603    -0.923255607612     0.120537881891    12.000000000000
         C            1.354445048397    -0.509778607612     0.095534881891    12.000000000000
         H           -0.018506951603     0.006945392388    -1.460349118109     1.007825032230
         H           -1.007570951603    -1.945885607612    -0.250944118109     1.007825032230
         H           -1.144226951603    -0.959293607612     1.215991881891     1.007825032230
         H           -2.107552951603    -0.557099607612    -0.217644118109     1.007825032230
         H            2.143573048397     0.150422392388    -0.270675118109     1.007825032230
         H            1.542059048397    -1.525482607612    -0.264742118109     1.007825032230
         H            1.402574048397    -0.527286607612     1.190695881891     1.007825032230
         H           -0.172207451603     1.419896592388     1.136290481891     1.007825032230
         H           -1.061761951603     1.745058392388    -0.236127118109     1.007825032230

  Basis Set: AUG-CC-PVTZ
    Blend: AUG-CC-PVTZ
  Basis Set: (AUG-CC-PVTZ AUX)
    Blend: AUG-CC-PVTZ-JKFIT
	 Reference Energy          =    -173.3525133140199159 [Eh]
	 Singles Energy            =      -0.0000000000000000 [Eh]
	 Same-Spin Energy          =      -0.1819465374551949 [Eh]
	 Opposite-Spin Energy      =      -0.6615589111430757 [Eh]
	 Correlation Energy        =      -0.8435054485982706 [Eh]
	 Total Energy              =    -174.1960187626181948 [Eh]

	 ================> DF-SCS-MP2 Energies <==================
	-----------------------------------------------------------
	 SCS Same-Spin Scale       =       0.3333333333333333 [-]
	 SCS Opposite-Spin Scale   =       1.2000000000000000 [-]
	 SCS Same-Spin Energy      =      -0.0606488458183983 [Eh]
	 SCS Opposite-Spin Energy  =      -0.7938706933716909 [Eh]
	 SCS Correlation Energy    =      -0.8545195391900892 [Eh]
	 SCS Total Energy          =    -174.2070328532099950 [Eh]
	-----------------------------------------------------------

  Dipole Moment: [D]
     X:    -0.9751      Y:    -0.8177      Z:     0.3632     Total:     1.3234

*** Psi4 exiting successfully. Buy a developer a beer!
