                               Psi4 1.3.2 release

  ==> Input File <==

--------------------------------------------------------------------------
#psi4
#
memory 32 gb

molecule  {
0 1
  N       -0.1252220     1.3898600    -0.1119990
  C        0.0112280     0.0072680     0.3620950
  C        1.2902590    -0.6844340    -0.1065680
  C       -1.2260320    -0.7691170    -0.0628830
  H        0.0257960     0.0592870     1.4578400
  H        1.3723820    -1.6982600     0.2983500
  H        1.3015040    -0.7541000    -1.2000220
  H        2.1759730    -0.1224230     0.2066200
  H       -2.1279660    -0.2662850     0.2914870
  H       -1.2072810    -1.7890590     0.3309910
  H       -1.2759310    -0.8321580    -1.1559040
  H       -0.0749584     1.4150714    -1.1316809
  H        0.7079717     1.9334523     0.1144776
units angstrom
no_reorient  #important for SAPT in psi4, default
symmetry c1  #important for SAPT in psi4, default
}

set PROPERTIES_ORIGIN ["COM"]
properties('MP2/aug-cc-pvtz', properties = ['dipole'])
--------------------------------------------------------------------------

    Molecular point group: c1
  Charge       = 0
  Multiplicity = 1
  Basis Set: AUG-CC-PVTZ
    Blend: AUG-CC-PVTZ
  Basis Set: (AUG-CC-PVTZ AUX)
    Blend: AUG-CC-PVTZ-JKFIT

    Orbital Energies [Eh]
    ---------------------

    Doubly Occupied:

       1A    -15.537968     2A    -11.252449     3A    -11.213819
       4A    -11.208694     5A     -1.183749     6A     -1.013484
       7A     -0.931746     8A     -0.790123     9A     -0.659428
      10A     -0.612074    11A     -0.592196    12A     -0.559809
      13A     -0.535865    14A     -0.512004    15A     -0.484663
      16A     -0.470419    17A     -0.392859

  @DF-RHF Final Energy:  -173.35494950343104

   => Energetics <=

    Nuclear Repulsion Energy =            135.5584357416520334
    One-Electron Energy =                -501.9240732556846751
    Two-Electron Energy =                 193.0106880106015979
    Total Energy =                       -173.3549495034310439
  Basis Set: (AUG-CC-PVTZ AUX)
    Blend: AUG-CC-PVTZ-RI
    Molecular point group: c1

    Geometry (in Angstrom), charge = 0, multiplicity = 1:

       Center              X                  Y                   Z               Mass
    ------------   -----------------  -----------------  -----------------  -----------------
         N           -0.126178101437     1.389244397257    -0.111142296578    14.003074004430
         C            0.010271898563     0.006652397257     0.362951703422    12.000000000000
         C            1.289302898563    -0.685049602743    -0.105711296578    12.000000000000
         C           -1.226988101437    -0.769732602743    -0.062026296578    12.000000000000
         H            0.024839898563     0.058671397257     1.458696703422     1.007825032230
         H            1.371425898563    -1.698875602743     0.299206703422     1.007825032230
         H            1.300547898563    -0.754715602743    -1.199165296578     1.007825032230
         H            2.175016898563    -0.123038602743     0.207476703422     1.007825032230
         H           -2.128922101437    -0.266900602743     0.292343703422     1.007825032230
         H           -1.208237101437    -1.789674602743     0.331847703422     1.007825032230
         H           -1.276887101437    -0.832773602743    -1.155047296578     1.007825032230
         H           -0.075914501437     1.414455797257    -1.130824196578     1.007825032230
         H            0.707015598563     1.932836697257     0.115334303422     1.007825032230

  Basis Set: AUG-CC-PVTZ
    Blend: AUG-CC-PVTZ
  Basis Set: (AUG-CC-PVTZ AUX)
    Blend: AUG-CC-PVTZ-JKFIT
	 Reference Energy          =    -173.3549495034310439 [Eh]
	 Singles Energy            =      -0.0000000000000000 [Eh]
	 Same-Spin Energy          =      -0.1817555089927941 [Eh]
	 Opposite-Spin Energy      =      -0.6607540267635486 [Eh]
	 Correlation Energy        =      -0.8425095357563426 [Eh]
	 Total Energy              =    -174.1974590391873789 [Eh]

	 ================> DF-SCS-MP2 Energies <==================
	-----------------------------------------------------------
	 SCS Same-Spin Scale       =       0.3333333333333333 [-]
	 SCS Opposite-Spin Scale   =       1.2000000000000000 [-]
	 SCS Same-Spin Energy      =      -0.0605851696642647 [Eh]
	 SCS Opposite-Spin Energy  =      -0.7929048321162583 [Eh]
	 SCS Correlation Energy    =      -0.8534900017805229 [Eh]
	 SCS Total Energy          =    -174.2084395052115724 [Eh]
	-----------------------------------------------------------

  Dipole Moment: [D]
     X:     1.1716      Y:    -0.6236      Z:    -0.3879     Total:     1.3828

*** Psi4 exiting successfully. Buy a developer a beer!
