                               Psi4 1.3.2 release

  ==> Input File <==

--------------------------------------------------------------------------
#psi4
#
memory 32 gb

molecule  {
0 1
  N       -0.1252220     1.3898600    -0.1119990
  C        0.0102614     0.0156994     0.3862692
  C        1.2902590    -0.6844340    -0.1065680
  C       -1.2260320    -0.7691170    -0.0628830
  H        0.0257960     0.0592870     1.4578400
  H        1.3723820    -1.6982600     0.2983500
  H        1.3015040    -0.7541000    -1.2000220
  H        2.1759730    -0.1224230     0.2066200
  H       -2.1279660    -0.2662850     0.2914870
  H       -1.2072810    -1.7890590     0.3309910
  H       -1.2759310    -0.8321580    -1.1559040
  H       -0.1215348     1.4036583    -1.1331303
  H        0.6967190     1.9265130     0.1662320
units angstrom
no_reorient  #important for SAPT in psi4, default
symmetry c1  #important for SAPT in psi4, default
}

set PROPERTIES_ORIGIN ["COM"]
properties('MP2/aug-cc-pvtz', properties = ['dipole'])
--------------------------------------------------------------------------

    Molecular point group: c1
  Charge       = 0
  Multiplicity = 1
  Basis Set: AUG-CC-PVTZ
    Blend: AUG-CC-PVTZ
  Basis Set: (AUG-CC-PVTZ AUX)
    Blend: AUG-CC-PVTZ-JKFIT

    Orbital Energies [Eh]
    ---------------------

    Doubly Occupied:

       1A    -15.536908     2A    -11.251071     3A    -11.213123
       4A    -11.208653     5A     -1.181589     6A     -1.009610
       7A     -0.929220     8A     -0.792788     9A     -0.663235
      10A     -0.608690    11A     -0.594113    12A     -0.560406
      13A     -0.535065    14A     -0.509484    15A     -0.486213
      16A     -0.472738    17A     -0.387625

  @DF-RHF Final Energy:  -173.35559099210755

   => Energetics <=

    Nuclear Repulsion Energy =            135.4112694864937794
    One-Electron Energy =                -501.6526574521801649
    Two-Electron Energy =                 192.8857969735788345
    Total Energy =                       -173.3555909921075511
  Basis Set: (AUG-CC-PVTZ AUX)
    Blend: AUG-CC-PVTZ-RI
    Molecular point group: c1

    Geometry (in Angstrom), charge = 0, multiplicity = 1:

       Center              X                  Y                   Z               Mass
    ------------   -----------------  -----------------  -----------------  -----------------
         N           -0.124995154508     1.387844771488    -0.116911195362    14.003074004430
         C            0.010488245492     0.013684171488     0.381357004638    12.000000000000
         C            1.290485845492    -0.686449228512    -0.111480195362    12.000000000000
         C           -1.225805154508    -0.771132228512    -0.067795195362    12.000000000000
         H            0.026022845492     0.057271771488     1.452927804638     1.007825032230
         H            1.372608845492    -1.700275228512     0.293437804638     1.007825032230
         H            1.301730845492    -0.756115228512    -1.204934195362     1.007825032230
         H            2.176199845492    -0.124438228512     0.201707804638     1.007825032230
         H           -2.127739154508    -0.268300228512     0.286574804638     1.007825032230
         H           -1.207054154508    -1.791074228512     0.326078804638     1.007825032230
         H           -1.275704154508    -0.834173228512    -1.160816195362     1.007825032230
         H           -0.121307954508     1.401643071488    -1.138042495362     1.007825032230
         H            0.696945845492     1.924497771488     0.161319804638     1.007825032230

  Basis Set: AUG-CC-PVTZ
    Blend: AUG-CC-PVTZ
  Basis Set: (AUG-CC-PVTZ AUX)
    Blend: AUG-CC-PVTZ-JKFIT
	 Reference Energy          =    -173.3555909921075511 [Eh]
	 Singles Energy            =      -0.0000000000000000 [Eh]
	 Same-Spin Energy          =      -0.1815649360957410 [Eh]
	 Opposite-Spin Energy      =      -0.6604588048143935 [Eh]
	 Correlation Energy        =      -0.8420237409101344 [Eh]
	 Total Energy              =    -174.1976147330176730 [Eh]

	 ================> DF-SCS-MP2 Energies <==================
	-----------------------------------------------------------
	 SCS Same-Spin Scale       =       0.3333333333333333 [-]
	 SCS Opposite-Spin Scale   =       1.2000000000000000 [-]
	 SCS Same-Spin Energy      =      -0.0605216453652470 [Eh]
	 SCS Opposite-Spin Energy  =      -0.7925505657772721 [Eh]
	 SCS Correlation Energy    =      -0.8530722111425191 [Eh]
	 SCS Total Energy          =    -174.2086632032500688 [Eh]
	-----------------------------------------------------------

  Dipole Moment: [D]
     X:     1.1074      Y:    -0.5926      Z:    -0.3395     Total:     1.3011

*** Psi4 exiting successfully. Buy a developer a beer!
