                               Psi4 1.4a3.dev225

  ==> Input File <==

--------------------------------------------------------------------------
#psi4
#
memory 32 gb

molecule  {
0 1
  N       -0.1469120     1.4236990     0.0545040
  C       -0.0016500     0.0253930    -0.3738780
  C       -1.1263120    -0.8911600     0.1097180
  C        1.3605930    -0.4776830     0.0847150
  H       -0.0123590     0.0390410    -1.4711690
  H       -1.0014230    -1.9137900    -0.2617640
  H       -1.1380790    -0.9271980     1.2051720
  H       -2.1014050    -0.5250040    -0.2284640
  H        2.1497210     0.1825180    -0.2814950
  H        1.5482070    -1.4933870    -0.2755620
  H        1.4087220    -0.4951910     1.1798760
  H       -0.1642725     1.4493518     1.0255214
  H       -1.0556140     1.7771540    -0.2469470
units angstrom
no_reorient  #important for SAPT in psi4, default
symmetry c1  #important for SAPT in psi4, default
}

set PROPERTIES_ORIGIN ["COM"]
properties('MP2/aug-cc-pvtz', properties = ['dipole'])
--------------------------------------------------------------------------

    Molecular point group: c1
  Charge       = 0
  Multiplicity = 1
  Basis Set: AUG-CC-PVTZ
    Blend: AUG-CC-PVTZ
  Basis Set: (AUG-CC-PVTZ AUX)
    Blend: AUG-CC-PVTZ-JKFIT

    Orbital Energies [Eh]
    ---------------------

    Doubly Occupied:

       1A    -15.531712     2A    -11.251803     3A    -11.213751
       4A    -11.209057     5A     -1.188433     6A     -1.014574
       7A     -0.931421     8A     -0.790523     9A     -0.668296
      10A     -0.611572    11A     -0.597174    12A     -0.563319
      13A     -0.535745    14A     -0.509795    15A     -0.484262
      16A     -0.471538    17A     -0.390777

  @DF-RHF Final Energy:  -173.35540408520347

   => Energetics <=

    Nuclear Repulsion Energy =            135.7318428155666084
    One-Electron Energy =                -502.2469919014028505
    Two-Electron Energy =                 193.1597450006327676
    Total Energy =                       -173.3554040852034746
  Basis Set: (AUG-CC-PVTZ AUX)
    Blend: AUG-CC-PVTZ-RI
    Molecular point group: c1

    Geometry (in Angstrom), charge = 0, multiplicity = 1:

       Center              X                  Y                   Z               Mass
    ------------   -----------------  -----------------  -----------------  -----------------
         N           -0.153090438764     1.391648439004     0.067029067920    14.003074004430
         C           -0.007828438764    -0.006657560996    -0.361352932080    12.000000000000
         C           -1.132490438764    -0.923210560996     0.122243067920    12.000000000000
         C            1.354414561236    -0.509733560996     0.097240067920    12.000000000000
         H           -0.018537438764     0.006990439004    -1.458643932080     1.007825032230
         H           -1.007601438764    -1.945840560996    -0.249238932080     1.007825032230
         H           -1.144257438764    -0.959248560996     1.217697067920     1.007825032230
         H           -2.107583438764    -0.557054560996    -0.215938932080     1.007825032230
         H            2.143542561236     0.150467439004    -0.268969932080     1.007825032230
         H            1.542028561236    -1.525437560996    -0.263036932080     1.007825032230
         H            1.402543561236    -0.527241560996     1.192401067920     1.007825032230
         H           -0.170450938764     1.417301239004     1.038046467920     1.007825032230
         H           -1.061792438764     1.745103439004    -0.234421932080     1.007825032230

  Basis Set: AUG-CC-PVTZ
    Blend: AUG-CC-PVTZ
  Basis Set: (AUG-CC-PVTZ AUX)
    Blend: AUG-CC-PVTZ-JKFIT
	 Reference Energy          =    -173.3554040852034746 [Eh]
	 Singles Energy            =      -0.0000000000000000 [Eh]
	 Same-Spin Energy          =      -0.1814425659533090 [Eh]
	 Opposite-Spin Energy      =      -0.6598762430514620 [Eh]
	 Correlation Energy        =      -0.8413188090047710 [Eh]
	 Total Energy              =    -174.1967228942082500 [Eh]

	 ================> DF-SCS-MP2 Energies <==================
	-----------------------------------------------------------
	 SCS Same-Spin Scale       =       0.3333333333333333 [-]
	 SCS Opposite-Spin Scale   =       1.2000000000000000 [-]
	 SCS Same-Spin Energy      =      -0.0604808553177697 [Eh]
	 SCS Opposite-Spin Energy  =      -0.7918514916617544 [Eh]
	 SCS Correlation Energy    =      -0.8523323469795241 [Eh]
	 SCS Total Energy          =    -174.2077364321829975 [Eh]
	-----------------------------------------------------------

  Dipole Moment: [D]
     X:    -0.9880      Y:    -0.8145      Z:     0.3627     Total:     1.3308

*** Psi4 exiting successfully. Buy a developer a beer!
