                               Psi4 1.3.2 release

  ==> Input File <==

--------------------------------------------------------------------------
#psi4
#
memory 32 gb

molecule  {
0 1
  N       -0.1252220     1.3898600    -0.1119990
  C        0.0112280     0.0072680     0.3620950
  C        1.2902590    -0.6844340    -0.1065680
  C       -1.2260320    -0.7691170    -0.0628830
  H        0.0257960     0.0592870     1.4578400
  H        1.3723820    -1.6982600     0.2983500
  H        1.3015040    -0.7541000    -1.2000220
  H        2.1759730    -0.1224230     0.2066200
  H       -2.1279660    -0.2662850     0.2914870
  H       -1.2072810    -1.7890590     0.3309910
  H       -1.2759310    -0.8321580    -1.1559040
  H       -0.1208249     1.3866948    -0.9332124
  H        0.6967190     1.9265130     0.1662320
units angstrom
no_reorient  #important for SAPT in psi4, default
symmetry c1  #important for SAPT in psi4, default
}

set PROPERTIES_ORIGIN ["COM"]
properties('MP2/aug-cc-pvtz', properties = ['dipole'])
--------------------------------------------------------------------------

    Molecular point group: c1
  Charge       = 0
  Multiplicity = 1
  Basis Set: AUG-CC-PVTZ
    Blend: AUG-CC-PVTZ
  Basis Set: (AUG-CC-PVTZ AUX)
    Blend: AUG-CC-PVTZ-JKFIT

    Orbital Energies [Eh]
    ---------------------

    Doubly Occupied:

       1A    -15.512385     2A    -11.251022     3A    -11.213801
       4A    -11.208988     5A     -1.216375     6A     -1.025985
       7A     -0.931982     8A     -0.801511     9A     -0.681978
      10A     -0.622658    11A     -0.601323    12A     -0.567337
      13A     -0.536242    14A     -0.510252    15A     -0.484969
      16A     -0.472795    17A     -0.392994

  @DF-RHF Final Energy:  -173.31327511739701

   => Energetics <=

    Nuclear Repulsion Energy =            136.7249401417833212
    One-Electron Energy =                -504.0112341178855786
    Two-Electron Energy =                 193.9730188587052169
    Total Energy =                       -173.3132751173970121
  Basis Set: (AUG-CC-PVTZ AUX)
    Blend: AUG-CC-PVTZ-RI
    Molecular point group: c1

    Geometry (in Angstrom), charge = 0, multiplicity = 1:

       Center              X                  Y                   Z               Mass
    ------------   -----------------  -----------------  -----------------  -----------------
         N           -0.125203617780     1.389846905124    -0.115411231130    14.003074004430
         C            0.011246382220     0.007254905124     0.358682768870    12.000000000000
         C            1.290277382220    -0.684447094876    -0.109980231130    12.000000000000
         C           -1.226013617780    -0.769130094876    -0.066295231130    12.000000000000
         H            0.025814382220     0.059273905124     1.454427768870     1.007825032230
         H            1.372400382220    -1.698273094876     0.294937768870     1.007825032230
         H            1.301522382220    -0.754113094876    -1.203434231130     1.007825032230
         H            2.175991382220    -0.122436094876     0.203207768870     1.007825032230
         H           -2.127947617780    -0.266298094876     0.288074768870     1.007825032230
         H           -1.207262617780    -1.789072094876     0.327578768870     1.007825032230
         H           -1.275912617780    -0.832171094876    -1.159316231130     1.007825032230
         H           -0.120806517780     1.386681705124    -0.936624631130     1.007825032230
         H            0.696737382220     1.926499905124     0.162819768870     1.007825032230

  Basis Set: AUG-CC-PVTZ
    Blend: AUG-CC-PVTZ
  Basis Set: (AUG-CC-PVTZ AUX)
    Blend: AUG-CC-PVTZ-JKFIT
	 Reference Energy          =    -173.3132751173970121 [Eh]
	 Singles Energy            =      -0.0000000000000000 [Eh]
	 Same-Spin Energy          =      -0.1807963636496588 [Eh]
	 Opposite-Spin Energy      =      -0.6579898234953105 [Eh]
	 Correlation Energy        =      -0.8387861871449693 [Eh]
	 Total Energy              =    -174.1520613045419736 [Eh]

	 ================> DF-SCS-MP2 Energies <==================
	-----------------------------------------------------------
	 SCS Same-Spin Scale       =       0.3333333333333333 [-]
	 SCS Opposite-Spin Scale   =       1.2000000000000000 [-]
	 SCS Same-Spin Energy      =      -0.0602654545498863 [Eh]
	 SCS Opposite-Spin Energy  =      -0.7895877881943726 [Eh]
	 SCS Correlation Energy    =      -0.8498532427442589 [Eh]
	 SCS Total Energy          =    -174.1631283601412576 [Eh]
	-----------------------------------------------------------

  Dipole Moment: [D]
     X:     1.1504      Y:    -0.6147      Z:    -0.3262     Total:     1.3445

*** Psi4 exiting successfully. Buy a developer a beer!
