                               Psi4 1.4a3.dev225

  ==> Input File <==

--------------------------------------------------------------------------
#psi4
#
memory 32 gb

molecule  {
0 1
  N       -0.1469120     1.4236990     0.0545040
  C       -0.0065921     0.0729657    -0.3593037
  C       -1.1263120    -0.8911600     0.1097180
  C        1.3605930    -0.4776830     0.0847150
  H       -0.0123590     0.0390410    -1.4711690
  H       -1.0014230    -1.9137900    -0.2617640
  H       -1.1380790    -0.9271980     1.2051720
  H       -2.1014050    -0.5250040    -0.2284640
  H        2.1497210     0.1825180    -0.2814950
  H        1.5482070    -1.4933870    -0.2755620
  H        1.4087220    -0.4951910     1.1798760
  H       -0.1651660     1.4506720     1.0754960
  H       -1.0556140     1.7771540    -0.2469470
units angstrom
no_reorient  #important for SAPT in psi4, default
symmetry c1  #important for SAPT in psi4, default
}

set PROPERTIES_ORIGIN ["COM"]
properties('MP2/aug-cc-pvtz', properties = ['dipole'])
--------------------------------------------------------------------------

    Molecular point group: c1
  Charge       = 0
  Multiplicity = 1
  Basis Set: AUG-CC-PVTZ
    Blend: AUG-CC-PVTZ
  Basis Set: (AUG-CC-PVTZ AUX)
    Blend: AUG-CC-PVTZ-JKFIT

    Orbital Energies [Eh]
    ---------------------

    Doubly Occupied:

       1A    -15.539829     2A    -11.252530     3A    -11.212609
       4A    -11.208645     5A     -1.197114     6A     -1.006731
       7A     -0.927751     8A     -0.788048     9A     -0.671057
      10A     -0.611098    11A     -0.594812    12A     -0.560816
      13A     -0.533762    14A     -0.518554    15A     -0.483757
      16A     -0.462271    17A     -0.387879

  @DF-RHF Final Energy:  -173.35353852003470

   => Energetics <=

    Nuclear Repulsion Energy =            135.6808567303418158
    One-Electron Energy =                -502.1542629608032371
    Two-Electron Energy =                 193.1198677104267176
    Total Energy =                       -173.3535385200347037
  Basis Set: (AUG-CC-PVTZ AUX)
    Blend: AUG-CC-PVTZ-RI
    Molecular point group: c1

    Geometry (in Angstrom), charge = 0, multiplicity = 1:

       Center              X                  Y                   Z               Mass
    ------------   -----------------  -----------------  -----------------  -----------------
         N           -0.152071272939     1.381962150948     0.063215898639    14.003074004430
         C           -0.011751372939     0.031228850948    -0.350591801361    12.000000000000
         C           -1.131471272939    -0.932896849052     0.118429898639    12.000000000000
         C            1.355433727061    -0.519419849052     0.093426898639    12.000000000000
         H           -0.017518272939    -0.002695849052    -1.462457101361     1.007825032230
         H           -1.006582272939    -1.955526849052    -0.253052101361     1.007825032230
         H           -1.143238272939    -0.968934849052     1.213883898639     1.007825032230
         H           -2.106564272939    -0.566740849052    -0.219752101361     1.007825032230
         H            2.144561727061     0.140781150948    -0.272783101361     1.007825032230
         H            1.543047727061    -1.535123849052    -0.266850101361     1.007825032230
         H            1.403562727061    -0.536927849052     1.188587898639     1.007825032230
         H           -0.170325272939     1.408935150948     1.084207898639     1.007825032230
         H           -1.060773272939     1.735417150948    -0.238235101361     1.007825032230

  Basis Set: AUG-CC-PVTZ
    Blend: AUG-CC-PVTZ
  Basis Set: (AUG-CC-PVTZ AUX)
    Blend: AUG-CC-PVTZ-JKFIT
	 Reference Energy          =    -173.3535385200347037 [Eh]
	 Singles Energy            =      -0.0000000000000000 [Eh]
	 Same-Spin Energy          =      -0.1818241930592973 [Eh]
	 Opposite-Spin Energy      =      -0.6605795594850232 [Eh]
	 Correlation Energy        =      -0.8424037525443205 [Eh]
	 Total Energy              =    -174.1959422725790319 [Eh]

	 ================> DF-SCS-MP2 Energies <==================
	-----------------------------------------------------------
	 SCS Same-Spin Scale       =       0.3333333333333333 [-]
	 SCS Opposite-Spin Scale   =       1.2000000000000000 [-]
	 SCS Same-Spin Energy      =      -0.0606080643530991 [Eh]
	 SCS Opposite-Spin Energy  =      -0.7926954713820279 [Eh]
	 SCS Correlation Energy    =      -0.8533035357351270 [Eh]
	 SCS Total Energy          =    -174.2068420557698403 [Eh]
	-----------------------------------------------------------

  Dipole Moment: [D]
     X:    -0.9819      Y:    -0.6753      Z:     0.3853     Total:     1.2524

*** Psi4 exiting successfully. Buy a developer a beer!
