                               Psi4 1.3.2 release

  ==> Input File <==

--------------------------------------------------------------------------
#psi4
#
memory 32 gb

molecule  {
0 1
  N       -0.1252220     1.3898600    -0.1119990
  C        0.0116957     0.0032101     0.3499533
  C        1.2902590    -0.6844340    -0.1065680
  C       -1.2260320    -0.7691170    -0.0628830
  H        0.0257960     0.0592870     1.4578400
  H        1.3723820    -1.6982600     0.2983500
  H        1.3015040    -0.7541000    -1.2000220
  H        2.1759730    -0.1224230     0.2066200
  H       -2.1279660    -0.2662850     0.2914870
  H       -1.2072810    -1.7890590     0.3309910
  H       -1.2759310    -0.8321580    -1.1559040
  H       -0.1188642     1.3770570    -1.1331302
  H        0.6967190     1.9265130     0.1662320
units angstrom
no_reorient  #important for SAPT in psi4, default
symmetry c1  #important for SAPT in psi4, default
}

set PROPERTIES_ORIGIN ["COM"]
properties('MP2/aug-cc-pvtz', properties = ['dipole'])
--------------------------------------------------------------------------

    Molecular point group: c1
  Charge       = 0
  Multiplicity = 1
  Basis Set: AUG-CC-PVTZ
    Blend: AUG-CC-PVTZ
  Basis Set: (AUG-CC-PVTZ AUX)
    Blend: AUG-CC-PVTZ-JKFIT

    Orbital Energies [Eh]
    ---------------------

    Doubly Occupied:

       1A    -15.537734     2A    -11.251856     3A    -11.213457
       4A    -11.208677     5A     -1.183713     6A     -1.013126
       7A     -0.932742     8A     -0.785667     9A     -0.666408
      10A     -0.609890    11A     -0.595109    12A     -0.561705
      13A     -0.535795    14A     -0.510138    15A     -0.485300
      16A     -0.468136    17A     -0.391290

  @DF-RHF Final Energy:  -173.35552171132002

   => Energetics <=

    Nuclear Repulsion Energy =            135.6944903560892897
    One-Electron Energy =                -502.1985377618793791
    Two-Electron Energy =                 193.1485256944700382
    Total Energy =                       -173.3555217113200229
  Basis Set: (AUG-CC-PVTZ AUX)
    Blend: AUG-CC-PVTZ-RI
    Molecular point group: c1

    Geometry (in Angstrom), charge = 0, multiplicity = 1:

       Center              X                  Y                   Z               Mass
    ------------   -----------------  -----------------  -----------------  -----------------
         N           -0.125332075424     1.390835639782    -0.109534102344    14.003074004430
         C            0.011585624576     0.004185739782     0.352418197656    12.000000000000
         C            1.290148924576    -0.683458360218    -0.104103102344    12.000000000000
         C           -1.226142075424    -0.768141360218    -0.060418102344    12.000000000000
         H            0.025685924576     0.060262639782     1.460304897656     1.007825032230
         H            1.372271924576    -1.697284360218     0.300814897656     1.007825032230
         H            1.301393924576    -0.753124360218    -1.197557102344     1.007825032230
         H            2.175862924576    -0.121447360218     0.209084897656     1.007825032230
         H           -2.128076075424    -0.265309360218     0.293951897656     1.007825032230
         H           -1.207391075424    -1.788083360218     0.333455897656     1.007825032230
         H           -1.276041075424    -0.831182360218    -1.153439102344     1.007825032230
         H           -0.118974275424     1.378032639782    -1.130665302344     1.007825032230
         H            0.696608924576     1.927488639782     0.168696897656     1.007825032230

  Basis Set: AUG-CC-PVTZ
    Blend: AUG-CC-PVTZ
  Basis Set: (AUG-CC-PVTZ AUX)
    Blend: AUG-CC-PVTZ-JKFIT
	 Reference Energy          =    -173.3555217113200229 [Eh]
	 Singles Energy            =      -0.0000000000000000 [Eh]
	 Same-Spin Energy          =      -0.1818294298484578 [Eh]
	 Opposite-Spin Energy      =      -0.6607905161520826 [Eh]
	 Correlation Energy        =      -0.8426199460005404 [Eh]
	 Total Energy              =    -174.1981416573205763 [Eh]

	 ================> DF-SCS-MP2 Energies <==================
	-----------------------------------------------------------
	 SCS Same-Spin Scale       =       0.3333333333333333 [-]
	 SCS Opposite-Spin Scale   =       1.2000000000000000 [-]
	 SCS Same-Spin Energy      =      -0.0606098099494859 [Eh]
	 SCS Opposite-Spin Energy  =      -0.7929486193824992 [Eh]
	 SCS Correlation Energy    =      -0.8535584293319851 [Eh]
	 SCS Total Energy          =    -174.2090801406520200 [Eh]
	-----------------------------------------------------------

  Dipole Moment: [D]
     X:     1.1255      Y:    -0.6245      Z:    -0.3573     Total:     1.3358

*** Psi4 exiting successfully. Buy a developer a beer!
