                               Psi4 1.3.2 release

  ==> Input File <==

--------------------------------------------------------------------------
#psi4
#
memory 32 gb

molecule  {
0 1
  N       -0.1252220     1.3898600    -0.1119990
  C        0.0138772    -0.0154897     0.2887355
  C        1.2902590    -0.6844340    -0.1065680
  C       -1.2260320    -0.7691170    -0.0628830
  H        0.0257960     0.0592870     1.4578400
  H        1.3723820    -1.6982600     0.2983500
  H        1.3015040    -0.7541000    -1.2000220
  H        2.1759730    -0.1224230     0.2066200
  H       -2.1279660    -0.2662850     0.2914870
  H       -1.2072810    -1.7890590     0.3309910
  H       -1.2759310    -0.8321580    -1.1559040
  H       -0.1144237     1.3327500    -1.1315749
  H        0.6967190     1.9265130     0.1662320
units angstrom
no_reorient  #important for SAPT in psi4, default
symmetry c1  #important for SAPT in psi4, default
}

set PROPERTIES_ORIGIN ["COM"]
properties('MP2/aug-cc-pvtz', properties = ['dipole'])
--------------------------------------------------------------------------

    Molecular point group: c1
  Charge       = 0
  Multiplicity = 1
  Basis Set: AUG-CC-PVTZ
    Blend: AUG-CC-PVTZ
  Basis Set: (AUG-CC-PVTZ AUX)
    Blend: AUG-CC-PVTZ-JKFIT

    Orbital Energies [Eh]
    ---------------------

    Doubly Occupied:

       1A    -15.539586     2A    -11.254405     3A    -11.214455
       4A    -11.209276     5A     -1.187933     6A     -1.019300
       7A     -0.938873     8A     -0.775398     9A     -0.671932
      10A     -0.614770    11A     -0.595872    12A     -0.564034
      13A     -0.537265    14A     -0.511567    15A     -0.494200
      16A     -0.447771    17A     -0.395988

  @DF-RHF Final Energy:  -173.34700999278968

   => Energetics <=

    Nuclear Repulsion Energy =            136.1493229905915712
    One-Electron Energy =                -503.0474183079661543
    Two-Electron Energy =                 193.5510853245848750
    Total Energy =                       -173.3470099927896797
  Basis Set: (AUG-CC-PVTZ AUX)
    Blend: AUG-CC-PVTZ-RI
    Molecular point group: c1

    Geometry (in Angstrom), charge = 0, multiplicity = 1:

       Center              X                  Y                   Z               Mass
    ------------   -----------------  -----------------  -----------------  -----------------
         N           -0.125850975564     1.395390157576    -0.097125050256    14.003074004430
         C            0.013248224436    -0.009959542424     0.303609449744    12.000000000000
         C            1.289630024436    -0.678903842424    -0.091694050256    12.000000000000
         C           -1.226660975564    -0.763586842424    -0.048009050256    12.000000000000
         H            0.025167024436     0.064817157576     1.472713949744     1.007825032230
         H            1.371753024436    -1.692729842424     0.313223949744     1.007825032230
         H            1.300875024436    -0.748569842424    -1.185148050256     1.007825032230
         H            2.175344024436    -0.116892842424     0.221493949744     1.007825032230
         H           -2.128594975564    -0.260754842424     0.306360949744     1.007825032230
         H           -1.207909975564    -1.783528842424     0.345864949744     1.007825032230
         H           -1.276559975564    -0.826627842424    -1.141030050256     1.007825032230
         H           -0.115052675564     1.338280157576    -1.116700950256     1.007825032230
         H            0.696090024436     1.932043157576     0.181105949744     1.007825032230

  Basis Set: AUG-CC-PVTZ
    Blend: AUG-CC-PVTZ
  Basis Set: (AUG-CC-PVTZ AUX)
    Blend: AUG-CC-PVTZ-JKFIT
	 Reference Energy          =    -173.3470099927896797 [Eh]
	 Singles Energy            =      -0.0000000000000000 [Eh]
	 Same-Spin Energy          =      -0.1824641786318644 [Eh]
	 Opposite-Spin Energy      =      -0.6618269741042955 [Eh]
	 Correlation Energy        =      -0.8442911527361598 [Eh]
	 Total Energy              =    -174.1913011455258413 [Eh]

	 ================> DF-SCS-MP2 Energies <==================
	-----------------------------------------------------------
	 SCS Same-Spin Scale       =       0.3333333333333333 [-]
	 SCS Opposite-Spin Scale   =       1.2000000000000000 [-]
	 SCS Same-Spin Energy      =      -0.0608213928772881 [Eh]
	 SCS Opposite-Spin Energy  =      -0.7941923689251545 [Eh]
	 SCS Correlation Energy    =      -0.8550137618024427 [Eh]
	 SCS Total Energy          =    -174.2020237545921191 [Eh]
	-----------------------------------------------------------

  Dipole Moment: [D]
     X:     1.1520      Y:    -0.6717      Z:    -0.3958     Total:     1.3910

*** Psi4 exiting successfully. Buy a developer a beer!
