                               Psi4 1.3.2 release

  ==> Input File <==

--------------------------------------------------------------------------
#psi4
#
memory 32 gb

molecule  {
0 1
  N       -0.1252220     1.3898600    -0.1119990
  C        0.0112280     0.0072680     0.3620950
  C        1.2902590    -0.6844340    -0.1065680
  C       -1.2260320    -0.7691170    -0.0628830
  H        0.0257960     0.0592870     1.4578400
  H        1.3723820    -1.6982600     0.2983500
  H        1.3015040    -0.7541000    -1.2000220
  H        2.1759730    -0.1224230     0.2066200
  H       -2.1279660    -0.2662850     0.2914870
  H       -1.2072810    -1.7890590     0.3309910
  H       -1.2759310    -0.8321580    -1.1559040
  H       -0.1048144     1.3956426    -1.1330099
  H        0.7007219     1.9289906     0.1490583
units angstrom
no_reorient  #important for SAPT in psi4, default
symmetry c1  #important for SAPT in psi4, default
}

set PROPERTIES_ORIGIN ["COM"]
properties('MP2/aug-cc-pvtz', properties = ['dipole'])
--------------------------------------------------------------------------

    Molecular point group: c1
  Charge       = 0
  Multiplicity = 1
  Basis Set: AUG-CC-PVTZ
    Blend: AUG-CC-PVTZ
  Basis Set: (AUG-CC-PVTZ AUX)
    Blend: AUG-CC-PVTZ-JKFIT

    Orbital Energies [Eh]
    ---------------------

    Doubly Occupied:

       1A    -15.537622     2A    -11.251837     3A    -11.213490
       4A    -11.208659     5A     -1.183198     6A     -1.012434
       7A     -0.931616     8A     -0.788660     9A     -0.663276
      10A     -0.610219    11A     -0.594020    12A     -0.560865
      13A     -0.535644    14A     -0.510616    15A     -0.484445
      16A     -0.470911    17A     -0.391047

  @DF-RHF Final Energy:  -173.35587837348692

   => Energetics <=

    Nuclear Repulsion Energy =            135.5860249553695098
    One-Electron Energy =                -501.9866884731278560
    Two-Electron Energy =                 193.0447851442714295
    Total Energy =                       -173.3558783734869166
  Basis Set: (AUG-CC-PVTZ AUX)
    Blend: AUG-CC-PVTZ-RI
    Molecular point group: c1

    Geometry (in Angstrom), charge = 0, multiplicity = 1:

       Center              X                  Y                   Z               Mass
    ------------   -----------------  -----------------  -----------------  -----------------
         N           -0.125545056932     1.389651981779    -0.111709588105    14.003074004430
         C            0.010904943068     0.007059981779     0.362384411895    12.000000000000
         C            1.289935943068    -0.684642018221    -0.106278588105    12.000000000000
         C           -1.226355056932    -0.769325018221    -0.062593588105    12.000000000000
         H            0.025472943068     0.059078981779     1.458129411895     1.007825032230
         H            1.372058943068    -1.698468018221     0.298639411895     1.007825032230
         H            1.301180943068    -0.754308018221    -1.199732588105     1.007825032230
         H            2.175649943068    -0.122631018221     0.206909411895     1.007825032230
         H           -2.128289056932    -0.266493018221     0.291776411895     1.007825032230
         H           -1.207604056932    -1.789267018221     0.331280411895     1.007825032230
         H           -1.276254056932    -0.832366018221    -1.155614588105     1.007825032230
         H           -0.105137456932     1.395434581779    -1.132720488105     1.007825032230
         H            0.700398843068     1.928782581779     0.149347711895     1.007825032230

  Basis Set: AUG-CC-PVTZ
    Blend: AUG-CC-PVTZ
  Basis Set: (AUG-CC-PVTZ AUX)
    Blend: AUG-CC-PVTZ-JKFIT
	 Reference Energy          =    -173.3558783734869166 [Eh]
	 Singles Energy            =      -0.0000000000000000 [Eh]
	 Same-Spin Energy          =      -0.1817279038225659 [Eh]
	 Opposite-Spin Energy      =      -0.6606704749621080 [Eh]
	 Correlation Energy        =      -0.8423983787846738 [Eh]
	 Total Energy              =    -174.1982767522715960 [Eh]

	 ================> DF-SCS-MP2 Energies <==================
	-----------------------------------------------------------
	 SCS Same-Spin Scale       =       0.3333333333333333 [-]
	 SCS Opposite-Spin Scale   =       1.2000000000000000 [-]
	 SCS Same-Spin Energy      =      -0.0605759679408553 [Eh]
	 SCS Opposite-Spin Energy  =      -0.7928045699545295 [Eh]
	 SCS Correlation Energy    =      -0.8533805378953848 [Eh]
	 SCS Total Energy          =    -174.2092589113823067 [Eh]
	-----------------------------------------------------------

  Dipole Moment: [D]
     X:     1.1373      Y:    -0.6172      Z:    -0.3635     Total:     1.3441

*** Psi4 exiting successfully. Buy a developer a beer!
