                               Psi4 1.3.2 release

  ==> Input File <==

--------------------------------------------------------------------------
#psi4
#
memory 32 gb

molecule  {
0 1
  N       -0.1252220     1.3898600    -0.1119990
  C        0.0112280     0.0072680     0.3620950
  C        1.2902590    -0.6844340    -0.1065680
  C       -1.2260320    -0.7691170    -0.0628830
  H        0.0257960     0.0592870     1.4578400
  H        1.3723820    -1.6982600     0.2983500
  H        1.3015040    -0.7541000    -1.2000220
  H        2.1759730    -0.1224230     0.2066200
  H       -2.1279660    -0.2662850     0.2914870
  H       -1.2072810    -1.7890590     0.3309910
  H       -1.2759310    -0.8321580    -1.1559040
  H       -0.1645646     1.3567874    -1.1319360
  H        0.6832134     1.9181028     0.2172238
units angstrom
no_reorient  #important for SAPT in psi4, default
symmetry c1  #important for SAPT in psi4, default
}

set PROPERTIES_ORIGIN ["COM"]
properties('MP2/aug-cc-pvtz', properties = ['dipole'])
--------------------------------------------------------------------------

    Molecular point group: c1
  Charge       = 0
  Multiplicity = 1
  Basis Set: AUG-CC-PVTZ
    Blend: AUG-CC-PVTZ
  Basis Set: (AUG-CC-PVTZ AUX)
    Blend: AUG-CC-PVTZ-JKFIT

    Orbital Energies [Eh]
    ---------------------

    Doubly Occupied:

       1A    -15.536815     2A    -11.250645     3A    -11.212828
       4A    -11.208607     5A     -1.182474     6A     -1.010538
       7A     -0.931389     8A     -0.786009     9A     -0.671876
      10A     -0.606568    11A     -0.597099    12A     -0.562077
      13A     -0.535274    14A     -0.507543    15A     -0.483995
      16A     -0.471537    17A     -0.387246

  @DF-RHF Final Energy:  -173.35495338855787

   => Energetics <=

    Nuclear Repulsion Energy =            135.6488221436028709
    One-Electron Energy =                -502.1225116791447363
    Two-Electron Energy =                 193.1187361469840198
    Total Energy =                       -173.3549533885578740
  Basis Set: (AUG-CC-PVTZ AUX)
    Blend: AUG-CC-PVTZ-RI
    Molecular point group: c1

    Geometry (in Angstrom), charge = 0, multiplicity = 1:

       Center              X                  Y                   Z               Mass
    ------------   -----------------  -----------------  -----------------  -----------------
         N           -0.124226982792     1.390500623575    -0.112890848761    14.003074004430
         C            0.012223017208     0.007908623575     0.361203151239    12.000000000000
         C            1.291254017208    -0.683793376425    -0.107459848761    12.000000000000
         C           -1.225036982792    -0.768476376425    -0.063774848761    12.000000000000
         H            0.026791017208     0.059927623575     1.456948151239     1.007825032230
         H            1.373377017208    -1.697619376425     0.297458151239     1.007825032230
         H            1.302499017208    -0.753459376425    -1.200913848761     1.007825032230
         H            2.176968017208    -0.121782376425     0.205728151239     1.007825032230
         H           -2.126970982792    -0.265644376425     0.290595151239     1.007825032230
         H           -1.206285982792    -1.788418376425     0.330099151239     1.007825032230
         H           -1.274935982792    -0.831517376425    -1.156795848761     1.007825032230
         H           -0.163569582792     1.357428023575    -1.132827848761     1.007825032230
         H            0.684208417208     1.918743423575     0.216331951239     1.007825032230

  Basis Set: AUG-CC-PVTZ
    Blend: AUG-CC-PVTZ
  Basis Set: (AUG-CC-PVTZ AUX)
    Blend: AUG-CC-PVTZ-JKFIT
	 Reference Energy          =    -173.3549533885578740 [Eh]
	 Singles Energy            =      -0.0000000000000000 [Eh]
	 Same-Spin Energy          =      -0.1818081184385719 [Eh]
	 Opposite-Spin Energy      =      -0.6607051571280073 [Eh]
	 Correlation Energy        =      -0.8425132755665792 [Eh]
	 Total Energy              =    -174.1974666641244482 [Eh]

	 ================> DF-SCS-MP2 Energies <==================
	-----------------------------------------------------------
	 SCS Same-Spin Scale       =       0.3333333333333333 [-]
	 SCS Opposite-Spin Scale   =       1.2000000000000000 [-]
	 SCS Same-Spin Energy      =      -0.0606027061461906 [Eh]
	 SCS Opposite-Spin Energy  =      -0.7928461885536087 [Eh]
	 SCS Correlation Energy    =      -0.8534488946997993 [Eh]
	 SCS Total Energy          =    -174.2084022832576693 [Eh]
	-----------------------------------------------------------

  Dipole Moment: [D]
     X:     1.0645      Y:    -0.6059      Z:    -0.3116     Total:     1.2639

*** Psi4 exiting successfully. Buy a developer a beer!
