                               Psi4 1.3.2 release

  ==> Input File <==

--------------------------------------------------------------------------
#psi4
#
memory 32 gb

molecule  {
0 1
  N       -0.1252220     1.3898600    -0.1119990
  C        0.0121530    -0.0007422     0.3377763
  C        1.2902590    -0.6844340    -0.1065680
  C       -1.2260320    -0.7691170    -0.0628830
  H        0.0257960     0.0592870     1.4578400
  H        1.3723820    -1.6982600     0.2983500
  H        1.3015040    -0.7541000    -1.2000220
  H        2.1759730    -0.1224230     0.2066200
  H       -2.1279660    -0.2662850     0.2914870
  H       -1.2072810    -1.7890590     0.3309910
  H       -1.2759310    -0.8321580    -1.1559040
  H       -0.1179749     1.3681909    -1.1329746
  H        0.6967190     1.9265130     0.1662320
units angstrom
no_reorient  #important for SAPT in psi4, default
symmetry c1  #important for SAPT in psi4, default
}

set PROPERTIES_ORIGIN ["COM"]
properties('MP2/aug-cc-pvtz', properties = ['dipole'])
--------------------------------------------------------------------------

    Molecular point group: c1
  Charge       = 0
  Multiplicity = 1
  Basis Set: AUG-CC-PVTZ
    Blend: AUG-CC-PVTZ
  Basis Set: (AUG-CC-PVTZ AUX)
    Blend: AUG-CC-PVTZ-JKFIT

    Orbital Energies [Eh]
    ---------------------

    Doubly Occupied:

       1A    -15.538056     2A    -11.252239     3A    -11.213610
       4A    -11.208739     5A     -1.184487     6A     -1.014333
       7A     -0.933943     8A     -0.783450     9A     -0.667495
      10A     -0.610647    11A     -0.595293    12A     -0.562150
      13A     -0.536059    14A     -0.510414    15A     -0.486832
      16A     -0.464469    17A     -0.392401

  @DF-RHF Final Energy:  -173.35462862458431

   => Energetics <=

    Nuclear Repulsion Energy =            135.7873894625131470
    One-Electron Energy =                -502.3748015933728652
    Two-Electron Energy =                 193.2327835062754104
    Total Energy =                       -173.3546286245843078
  Basis Set: (AUG-CC-PVTZ AUX)
    Blend: AUG-CC-PVTZ-RI
    Molecular point group: c1

    Geometry (in Angstrom), charge = 0, multiplicity = 1:

       Center              X                  Y                   Z               Mass
    ------------   -----------------  -----------------  -----------------  -----------------
         N           -0.125440141797     1.391789757588    -0.107063160480    14.003074004430
         C            0.011934858203     0.001187557588     0.342712139520    12.000000000000
         C            1.290040858203    -0.682504242412    -0.101632160480    12.000000000000
         C           -1.226250141797    -0.767187242412    -0.057947160480    12.000000000000
         H            0.025577858203     0.061216757588     1.462775839520     1.007825032230
         H            1.372163858203    -1.696330242412     0.303285839520     1.007825032230
         H            1.301285858203    -0.752170242412    -1.195086160480     1.007825032230
         H            2.175754858203    -0.120493242412     0.211555839520     1.007825032230
         H           -2.128184141797    -0.264355242412     0.296422839520     1.007825032230
         H           -1.207499141797    -1.787129242412     0.335926839520     1.007825032230
         H           -1.276149141797    -0.830228242412    -1.150968160480     1.007825032230
         H           -0.118193041797     1.370120657588    -1.128038760480     1.007825032230
         H            0.696500858203     1.928442757588     0.171167839520     1.007825032230

  Basis Set: AUG-CC-PVTZ
    Blend: AUG-CC-PVTZ
  Basis Set: (AUG-CC-PVTZ AUX)
    Blend: AUG-CC-PVTZ-JKFIT
	 Reference Energy          =    -173.3546286245843078 [Eh]
	 Singles Energy            =      -0.0000000000000000 [Eh]
	 Same-Spin Energy          =      -0.1819373746936364 [Eh]
	 Opposite-Spin Energy      =      -0.6609509697042559 [Eh]
	 Correlation Energy        =      -0.8428883443978923 [Eh]
	 Total Energy              =    -174.1975169689821996 [Eh]

	 ================> DF-SCS-MP2 Energies <==================
	-----------------------------------------------------------
	 SCS Same-Spin Scale       =       0.3333333333333333 [-]
	 SCS Opposite-Spin Scale   =       1.2000000000000000 [-]
	 SCS Same-Spin Energy      =      -0.0606457915645454 [Eh]
	 SCS Opposite-Spin Energy  =      -0.7931411636451071 [Eh]
	 SCS Correlation Energy    =      -0.8537869552096525 [Eh]
	 SCS Total Energy          =    -174.2084155797939502 [Eh]
	-----------------------------------------------------------

  Dipole Moment: [D]
     X:     1.1312      Y:    -0.6346      Z:    -0.3641     Total:     1.3471

*** Psi4 exiting successfully. Buy a developer a beer!
