                               Psi4 1.3.2 release

  ==> Input File <==

--------------------------------------------------------------------------
#psi4
#
memory 32 gb

molecule  {
0 1
  N       -0.1252220     1.3898600    -0.1119990
  C        0.0112280     0.0072680     0.3620950
  C        1.2902590    -0.6844340    -0.1065680
  C       -1.2260320    -0.7691170    -0.0628830
  H        0.0257960     0.0592870     1.4578400
  H        1.3723820    -1.6982600     0.2983500
  H        1.3015040    -0.7541000    -1.2000220
  H        2.1759730    -0.1224230     0.2066200
  H       -2.1279660    -0.2662850     0.2914870
  H       -1.2072810    -1.7890590     0.3309910
  H       -1.2759310    -0.8321580    -1.1559040
  H       -0.1346953     1.3762066    -1.1330950
  H        0.6924658     1.9238720     0.1833210
units angstrom
no_reorient  #important for SAPT in psi4, default
symmetry c1  #important for SAPT in psi4, default
}

set PROPERTIES_ORIGIN ["COM"]
properties('MP2/aug-cc-pvtz', properties = ['dipole'])
--------------------------------------------------------------------------

    Molecular point group: c1
  Charge       = 0
  Multiplicity = 1
  Basis Set: AUG-CC-PVTZ
    Blend: AUG-CC-PVTZ
  Basis Set: (AUG-CC-PVTZ AUX)
    Blend: AUG-CC-PVTZ-JKFIT

    Orbital Energies [Eh]
    ---------------------

    Doubly Occupied:

       1A    -15.537238     2A    -11.251235     3A    -11.213160
       4A    -11.208628     5A     -1.182778     6A     -1.011454
       7A     -0.931496     8A     -0.787289     9A     -0.667463
      10A     -0.608376    11A     -0.595664    12A     -0.561596
      13A     -0.535447    14A     -0.509120    15A     -0.484223
      16A     -0.471275    17A     -0.389176

  @DF-RHF Final Energy:  -173.35586635895331

   => Energetics <=

    Nuclear Repulsion Energy =            135.6161764042882680
    One-Electron Energy =                -502.0528485597002373
    Two-Electron Energy =                 193.0808057964586908
    Total Energy =                       -173.3558663589533069
  Basis Set: (AUG-CC-PVTZ AUX)
    Blend: AUG-CC-PVTZ-RI
    Molecular point group: c1

    Geometry (in Angstrom), charge = 0, multiplicity = 1:

       Center              X                  Y                   Z               Mass
    ------------   -----------------  -----------------  -----------------  -----------------
         N           -0.124894419612     1.390070896196    -0.112292675974    14.003074004430
         C            0.011555580388     0.007478896196     0.361801324026    12.000000000000
         C            1.290586580388    -0.684223103804    -0.106861675974    12.000000000000
         C           -1.225704419612    -0.768906103804    -0.063176675974    12.000000000000
         H            0.026123580388     0.059497896196     1.457546324026     1.007825032230
         H            1.372709580388    -1.698049103804     0.298056324026     1.007825032230
         H            1.301831580388    -0.753889103804    -1.200315675974     1.007825032230
         H            2.176300580388    -0.122212103804     0.206326324026     1.007825032230
         H           -2.127638419612    -0.266074103804     0.291193324026     1.007825032230
         H           -1.206953419612    -1.788848103804     0.330697324026     1.007825032230
         H           -1.275603419612    -0.831947103804    -1.156197675974     1.007825032230
         H           -0.134367719612     1.376417496196    -1.133388675974     1.007825032230
         H            0.692793380388     1.924082896196     0.183027324026     1.007825032230

  Basis Set: AUG-CC-PVTZ
    Blend: AUG-CC-PVTZ
  Basis Set: (AUG-CC-PVTZ AUX)
    Blend: AUG-CC-PVTZ-JKFIT
	 Reference Energy          =    -173.3558663589533069 [Eh]
	 Singles Energy            =      -0.0000000000000000 [Eh]
	 Same-Spin Energy          =      -0.1817458875725018 [Eh]
	 Opposite-Spin Energy      =      -0.6606554891366532 [Eh]
	 Correlation Energy        =      -0.8424013767091549 [Eh]
	 Total Energy              =    -174.1982677356624549 [Eh]

	 ================> DF-SCS-MP2 Energies <==================
	-----------------------------------------------------------
	 SCS Same-Spin Scale       =       0.3333333333333333 [-]
	 SCS Opposite-Spin Scale   =       1.2000000000000000 [-]
	 SCS Same-Spin Energy      =      -0.0605819625241673 [Eh]
	 SCS Opposite-Spin Energy  =      -0.7927865869639837 [Eh]
	 SCS Correlation Energy    =      -0.8533685494881510 [Eh]
	 SCS Total Energy          =    -174.2092349084414593 [Eh]
	-----------------------------------------------------------

  Dipole Moment: [D]
     X:     1.1017      Y:    -0.6113      Z:    -0.3381     Total:     1.3045

*** Psi4 exiting successfully. Buy a developer a beer!
