                               Psi4 1.4a3.dev225

  ==> Input File <==

--------------------------------------------------------------------------
#psi4
#
memory 32 gb

molecule  {
0 1
  N       -0.1469120     1.4236990     0.0545040
  C        0.0032921    -0.0221797    -0.3884523
  C       -1.1263120    -0.8911600     0.1097180
  C        1.3605930    -0.4776830     0.0847150
  H       -0.0123590     0.0390410    -1.4711690
  H       -1.0014230    -1.9137900    -0.2617640
  H       -1.1380790    -0.9271980     1.2051720
  H       -2.1014050    -0.5250040    -0.2284640
  H        2.1497210     0.1825180    -0.2814950
  H        1.5482070    -1.4933870    -0.2755620
  H        1.4087220    -0.4951910     1.1798760
  H       -0.1651660     1.4506720     1.0754960
  H       -1.0556140     1.7771540    -0.2469470
units angstrom
no_reorient  #important for SAPT in psi4, default
symmetry c1  #important for SAPT in psi4, default
}

set PROPERTIES_ORIGIN ["COM"]
properties('MP2/aug-cc-pvtz', properties = ['dipole'])
--------------------------------------------------------------------------

    Molecular point group: c1
  Charge       = 0
  Multiplicity = 1
  Basis Set: AUG-CC-PVTZ
    Blend: AUG-CC-PVTZ
  Basis Set: (AUG-CC-PVTZ AUX)
    Blend: AUG-CC-PVTZ-JKFIT

    Orbital Energies [Eh]
    ---------------------

    Doubly Occupied:

       1A    -15.535152     2A    -11.252340     3A    -11.214767
       4A    -11.209561     5A     -1.169723     6A     -1.016009
       7A     -0.935054     8A     -0.788074     9A     -0.659833
      10A     -0.608442    11A     -0.594099    12A     -0.561549
      13A     -0.537437    14A     -0.503537    15A     -0.482433
      16A     -0.478474    17A     -0.390065

  @DF-RHF Final Energy:  -173.35345192883392

   => Energetics <=

    Nuclear Repulsion Energy =            135.3045699664274650
    One-Electron Energy =                -501.4429440963954789
    Two-Electron Energy =                 192.7849222011341226
    Total Energy =                       -173.3534519288339197
  Basis Set: (AUG-CC-PVTZ AUX)
    Blend: AUG-CC-PVTZ-RI
    Molecular point group: c1

    Geometry (in Angstrom), charge = 0, multiplicity = 1:

       Center              X                  Y                   Z               Mass
    ------------   -----------------  -----------------  -----------------  -----------------
         N           -0.154079117428     1.401289680444     0.069137051172    14.003074004430
         C           -0.003875017428    -0.044589019556    -0.373819248828    12.000000000000
         C           -1.133479117428    -0.913569319556     0.124351051172    12.000000000000
         C            1.353425882572    -0.500092319556     0.099348051172    12.000000000000
         H           -0.019526117428     0.016631680444    -1.456535948828     1.007825032230
         H           -1.008590117428    -1.936199319556    -0.247130948828     1.007825032230
         H           -1.145246117428    -0.949607319556     1.219805051172     1.007825032230
         H           -2.108572117428    -0.547413319556    -0.213830948828     1.007825032230
         H            2.142553882572     0.160108680444    -0.266861948828     1.007825032230
         H            1.541039882572    -1.515796319556    -0.260928948828     1.007825032230
         H            1.401554882572    -0.517600319556     1.194509051172     1.007825032230
         H           -0.172333117428     1.428262680444     1.090129051172     1.007825032230
         H           -1.062781117428     1.754744680444    -0.232313948828     1.007825032230

  Basis Set: AUG-CC-PVTZ
    Blend: AUG-CC-PVTZ
  Basis Set: (AUG-CC-PVTZ AUX)
    Blend: AUG-CC-PVTZ-JKFIT
	 Reference Energy          =    -173.3534519288339197 [Eh]
	 Singles Energy            =      -0.0000000000000000 [Eh]
	 Same-Spin Energy          =      -0.1817665718949044 [Eh]
	 Opposite-Spin Energy      =      -0.6611249618051565 [Eh]
	 Correlation Energy        =      -0.8428915337000609 [Eh]
	 Total Energy              =    -174.1963434625339744 [Eh]

	 ================> DF-SCS-MP2 Energies <==================
	-----------------------------------------------------------
	 SCS Same-Spin Scale       =       0.3333333333333333 [-]
	 SCS Opposite-Spin Scale   =       1.2000000000000000 [-]
	 SCS Same-Spin Energy      =      -0.0605888572983015 [Eh]
	 SCS Opposite-Spin Energy  =      -0.7933499541661877 [Eh]
	 SCS Correlation Energy    =      -0.8539388114644891 [Eh]
	 SCS Total Energy          =    -174.2073907402984219 [Eh]
	-----------------------------------------------------------

  Dipole Moment: [D]
     X:    -0.9781      Y:    -0.9471      Z:     0.3456     Total:     1.4046

*** Psi4 exiting successfully. Buy a developer a beer!
