                               Psi4 1.3.2 release

  ==> Input File <==

--------------------------------------------------------------------------
#psi4
#
memory 32 gb

molecule  {
0 1
  N       -0.1252220     1.3898600    -0.1119990
  C        0.0112280     0.0072680     0.3620950
  C        1.2902590    -0.6844340    -0.1065680
  C       -1.2260320    -0.7691170    -0.0628830
  H        0.0257960     0.0592870     1.4578400
  H        1.3723820    -1.6982600     0.2983500
  H        1.3015040    -0.7541000    -1.2000220
  H        2.1759730    -0.1224230     0.2066200
  H       -2.1279660    -0.2662850     0.2914870
  H       -1.2072810    -1.7890590     0.3309910
  H       -1.2759310    -0.8321580    -1.1559040
  H       -0.1272247     1.3810650    -1.1331904
  H        0.6946236     1.9252129     0.1747874
units angstrom
no_reorient  #important for SAPT in psi4, default
symmetry c1  #important for SAPT in psi4, default
}

set PROPERTIES_ORIGIN ["COM"]
properties('MP2/aug-cc-pvtz', properties = ['dipole'])
--------------------------------------------------------------------------

    Molecular point group: c1
  Charge       = 0
  Multiplicity = 1
  Basis Set: AUG-CC-PVTZ
    Blend: AUG-CC-PVTZ
  Basis Set: (AUG-CC-PVTZ AUX)
    Blend: AUG-CC-PVTZ-JKFIT

    Orbital Energies [Eh]
    ---------------------

    Doubly Occupied:

       1A    -15.537338     2A    -11.251385     3A    -11.213242
       4A    -11.208635     5A     -1.182872     6A     -1.011693
       7A     -0.931525     8A     -0.787623     9A     -0.666390
      10A     -0.608834    11A     -0.595272    12A     -0.561440
      13A     -0.535494    14A     -0.509503    15A     -0.484279
      16A     -0.471194    17A     -0.389649

  @DF-RHF Final Energy:  -173.35595543950245

   => Energetics <=

    Nuclear Repulsion Energy =            135.6084023202386106
    One-Electron Energy =                -502.0359788472518972
    Two-Electron Energy =                 193.0716210875108345
    Total Energy =                       -173.3559554395024520
  Basis Set: (AUG-CC-PVTZ AUX)
    Blend: AUG-CC-PVTZ-RI
    Molecular point group: c1

    Geometry (in Angstrom), charge = 0, multiplicity = 1:

       Center              X                  Y                   Z               Mass
    ------------   -----------------  -----------------  -----------------  -----------------
         N           -0.125058685191     1.389965132871    -0.112145460686    14.003074004430
         C            0.011391314809     0.007373132871     0.361948539314    12.000000000000
         C            1.290422314809    -0.684328867129    -0.106714460686    12.000000000000
         C           -1.225868685191    -0.769011867129    -0.063029460686    12.000000000000
         H            0.025959314809     0.059392132871     1.457693539314     1.007825032230
         H            1.372545314809    -1.698154867129     0.298203539314     1.007825032230
         H            1.301667314809    -0.753994867129    -1.200168460686     1.007825032230
         H            2.176136314809    -0.122317867129     0.206473539314     1.007825032230
         H           -2.127802685191    -0.266179867129     0.291340539314     1.007825032230
         H           -1.207117685191    -1.788953867129     0.330844539314     1.007825032230
         H           -1.275767685191    -0.832052867129    -1.156050460686     1.007825032230
         H           -0.127061385191     1.381170132871    -1.133336860686     1.007825032230
         H            0.694786914809     1.925318032871     0.174640939314     1.007825032230

  Basis Set: AUG-CC-PVTZ
    Blend: AUG-CC-PVTZ
  Basis Set: (AUG-CC-PVTZ AUX)
    Blend: AUG-CC-PVTZ-JKFIT
	 Reference Energy          =    -173.3559554395024520 [Eh]
	 Singles Energy            =      -0.0000000000000000 [Eh]
	 Same-Spin Energy          =      -0.1817371890581805 [Eh]
	 Opposite-Spin Energy      =      -0.6606529968089483 [Eh]
	 Correlation Energy        =      -0.8423901858671288 [Eh]
	 Total Energy              =    -174.1983456253695692 [Eh]

	 ================> DF-SCS-MP2 Energies <==================
	-----------------------------------------------------------
	 SCS Same-Spin Scale       =       0.3333333333333333 [-]
	 SCS Opposite-Spin Scale   =       1.2000000000000000 [-]
	 SCS Same-Spin Energy      =      -0.0605790630193935 [Eh]
	 SCS Opposite-Spin Energy  =      -0.7927835961707379 [Eh]
	 SCS Correlation Energy    =      -0.8533626591901314 [Eh]
	 SCS Total Energy          =    -174.2093180986925915 [Eh]
	-----------------------------------------------------------

  Dipole Moment: [D]
     X:     1.1107      Y:    -0.6127      Z:    -0.3446     Total:     1.3145

*** Psi4 exiting successfully. Buy a developer a beer!
