                               Psi4 1.3.2 release

  ==> Input File <==

--------------------------------------------------------------------------
#psi4
#
memory 32 gb

molecule  {
0 1
  N       -0.1252220     1.3898600    -0.1119990
  C        0.0130361    -0.0083289     0.3133207
  C        1.2902590    -0.6844340    -0.1065680
  C       -1.2260320    -0.7691170    -0.0628830
  H        0.0257960     0.0592870     1.4578400
  H        1.3723820    -1.6982600     0.2983500
  H        1.3015040    -0.7541000    -1.2000220
  H        2.1759730    -0.1224230     0.2066200
  H       -2.1279660    -0.2662850     0.2914870
  H       -1.2072810    -1.7890590     0.3309910
  H       -1.2759310    -0.8321580    -1.1559040
  H       -0.1161979     1.3504645    -1.1324302
  H        0.6967190     1.9265130     0.1662320
units angstrom
no_reorient  #important for SAPT in psi4, default
symmetry c1  #important for SAPT in psi4, default
}

set PROPERTIES_ORIGIN ["COM"]
properties('MP2/aug-cc-pvtz', properties = ['dipole'])
--------------------------------------------------------------------------

    Molecular point group: c1
  Charge       = 0
  Multiplicity = 1
  Basis Set: AUG-CC-PVTZ
    Blend: AUG-CC-PVTZ
  Basis Set: (AUG-CC-PVTZ AUX)
    Blend: AUG-CC-PVTZ-JKFIT

    Orbital Energies [Eh]
    ---------------------

    Doubly Occupied:

       1A    -15.538773     2A    -11.253192     3A    -11.213985
       4A    -11.208949     5A     -1.186138     6A     -1.016791
       7A     -0.936383     8A     -0.779258     9A     -0.669699
      10A     -0.612533    11A     -0.595576    12A     -0.563069
      13A     -0.536628    14A     -0.510987    15A     -0.490462
      16A     -0.456281    17A     -0.394402

  @DF-RHF Final Energy:  -173.35160628591922

   => Energetics <=

    Nuclear Repulsion Energy =            135.9704465164333840
    One-Electron Energy =                -502.7178918123790368
    Two-Electron Energy =                 193.3958390100264637
    Total Energy =                       -173.3516062859192175
  Basis Set: (AUG-CC-PVTZ AUX)
    Blend: AUG-CC-PVTZ-RI
    Molecular point group: c1

    Geometry (in Angstrom), charge = 0, multiplicity = 1:

       Center              X                  Y                   Z               Mass
    ------------   -----------------  -----------------  -----------------  -----------------
         N           -0.125649848438     1.393633317068    -0.102104616572    14.003074004430
         C            0.012608251562    -0.004555582932     0.323215083428    12.000000000000
         C            1.289831151562    -0.680660682932    -0.096673616572    12.000000000000
         C           -1.226459848438    -0.765343682932    -0.052988616572    12.000000000000
         H            0.025368151562     0.063060317068     1.467734383428     1.007825032230
         H            1.371954151562    -1.694486682932     0.308244383428     1.007825032230
         H            1.301076151562    -0.750326682932    -1.190127616572     1.007825032230
         H            2.175545151562    -0.118649682932     0.216514383428     1.007825032230
         H           -2.128393848438    -0.262511682932     0.301381383428     1.007825032230
         H           -1.207708848438    -1.785285682932     0.340885383428     1.007825032230
         H           -1.276358848438    -0.828384682932    -1.146009616572     1.007825032230
         H           -0.116625748438     1.354237817068    -1.122535816572     1.007825032230
         H            0.696291151562     1.930286317068     0.176126383428     1.007825032230

  Basis Set: AUG-CC-PVTZ
    Blend: AUG-CC-PVTZ
  Basis Set: (AUG-CC-PVTZ AUX)
    Blend: AUG-CC-PVTZ-JKFIT
	 Reference Energy          =    -173.3516062859192175 [Eh]
	 Singles Energy            =      -0.0000000000000000 [Eh]
	 Same-Spin Energy          =      -0.1821820570873052 [Eh]
	 Opposite-Spin Energy      =      -0.6613432565688071 [Eh]
	 Correlation Energy        =      -0.8435253136561123 [Eh]
	 Total Energy              =    -174.1951315995753191 [Eh]

	 ================> DF-SCS-MP2 Energies <==================
	-----------------------------------------------------------
	 SCS Same-Spin Scale       =       0.3333333333333333 [-]
	 SCS Opposite-Spin Scale   =       1.2000000000000000 [-]
	 SCS Same-Spin Energy      =      -0.0607273523624351 [Eh]
	 SCS Opposite-Spin Energy  =      -0.7936119078825685 [Eh]
	 SCS Correlation Energy    =      -0.8543392602450036 [Eh]
	 SCS Total Energy          =    -174.2059455461642301 [Eh]
	-----------------------------------------------------------

  Dipole Moment: [D]
     X:     1.1419      Y:    -0.6537      Z:    -0.3790     Total:     1.3693

*** Psi4 exiting successfully. Buy a developer a beer!
