                               Psi4 1.4a3.dev225

  ==> Input File <==

--------------------------------------------------------------------------
#psi4
#
memory 32 gb

molecule  {
0 1
  N       -0.1469120     1.4236990     0.0545040
  C       -0.0016500     0.0253930    -0.3738780
  C       -1.1263120    -0.8911600     0.1097180
  C        1.3605930    -0.4776830     0.0847150
  H       -0.0123590     0.0390410    -1.4711690
  H       -1.0014230    -1.9137900    -0.2617640
  H       -1.1380790    -0.9271980     1.2051720
  H       -2.1014050    -0.5250040    -0.2284640
  H        2.1497210     0.1825180    -0.2814950
  H        1.5482070    -1.4933870    -0.2755620
  H        1.4087220    -0.4951910     1.1798760
  H       -0.1655234     1.4512001     1.0954858
  H       -1.0556140     1.7771540    -0.2469470
units angstrom
no_reorient  #important for SAPT in psi4, default
symmetry c1  #important for SAPT in psi4, default
}

set PROPERTIES_ORIGIN ["COM"]
properties('MP2/aug-cc-pvtz', properties = ['dipole'])
--------------------------------------------------------------------------

    Molecular point group: c1
  Charge       = 0
  Multiplicity = 1
  Basis Set: AUG-CC-PVTZ
    Blend: AUG-CC-PVTZ
  Basis Set: (AUG-CC-PVTZ AUX)
    Blend: AUG-CC-PVTZ-JKFIT

    Orbital Energies [Eh]
    ---------------------

    Doubly Occupied:

       1A    -15.539946     2A    -11.252145     3A    -11.213649
       4A    -11.208960     5A     -1.180189     6A     -1.010455
       7A     -0.931309     8A     -0.786830     9A     -0.663687
      10A     -0.608032    11A     -0.593338    12A     -0.560023
      13A     -0.535453    14A     -0.509742    15A     -0.484159
      16A     -0.470859    17A     -0.390025

  @DF-RHF Final Energy:  -173.35495317499519

   => Energetics <=

    Nuclear Repulsion Energy =            135.3918093874199258
    One-Electron Energy =                -501.6159277322509524
    Two-Electron Energy =                 192.8691651698358385
    Total Energy =                       -173.3549531749951882
  Basis Set: (AUG-CC-PVTZ AUX)
    Blend: AUG-CC-PVTZ-RI
    Molecular point group: c1

    Geometry (in Angstrom), charge = 0, multiplicity = 1:

       Center              X                  Y                   Z               Mass
    ------------   -----------------  -----------------  -----------------  -----------------
         N           -0.153069097751     1.391616906032     0.065835438382    14.003074004430
         C           -0.007807097751    -0.006689093968    -0.362546561618    12.000000000000
         C           -1.132469097751    -0.923242093968     0.121049438382    12.000000000000
         C            1.354435902249    -0.509765093968     0.096046438382    12.000000000000
         H           -0.018516097751     0.006958906032    -1.459837561618     1.007825032230
         H           -1.007580097751    -1.945872093968    -0.250432561618     1.007825032230
         H           -1.144236097751    -0.959280093968     1.216503438382     1.007825032230
         H           -2.107562097751    -0.557086093968    -0.217132561618     1.007825032230
         H            2.143563902249     0.150435906032    -0.270163561618     1.007825032230
         H            1.542049902249    -1.525469093968    -0.264230561618     1.007825032230
         H            1.402564902249    -0.527273093968     1.191207438382     1.007825032230
         H           -0.171680497751     1.419118006032     1.106817238382     1.007825032230
         H           -1.061771097751     1.745071906032    -0.235615561618     1.007825032230

  Basis Set: AUG-CC-PVTZ
    Blend: AUG-CC-PVTZ
  Basis Set: (AUG-CC-PVTZ AUX)
    Blend: AUG-CC-PVTZ-JKFIT
	 Reference Energy          =    -173.3549531749951882 [Eh]
	 Singles Energy            =      -0.0000000000000000 [Eh]
	 Same-Spin Energy          =      -0.1817970536565435 [Eh]
	 Opposite-Spin Energy      =      -0.6610266096732091 [Eh]
	 Correlation Energy        =      -0.8428236633297527 [Eh]
	 Total Energy              =    -174.1977768383249270 [Eh]

	 ================> DF-SCS-MP2 Energies <==================
	-----------------------------------------------------------
	 SCS Same-Spin Scale       =       0.3333333333333333 [-]
	 SCS Opposite-Spin Scale   =       1.2000000000000000 [-]
	 SCS Same-Spin Energy      =      -0.0605990178855145 [Eh]
	 SCS Opposite-Spin Energy  =      -0.7932319316078510 [Eh]
	 SCS Correlation Energy    =      -0.8538309494933655 [Eh]
	 SCS Total Energy          =    -174.2087841244885453 [Eh]
	-----------------------------------------------------------

  Dipole Moment: [D]
     X:    -0.9788      Y:    -0.8160      Z:     0.3644     Total:     1.3254

*** Psi4 exiting successfully. Buy a developer a beer!
