                               Psi4 1.3.2 release

  ==> Input File <==

--------------------------------------------------------------------------
#psi4
#
memory 32 gb

molecule  {
0 1
  N       -0.1252220     1.3898600    -0.1119990
  C        0.0112280     0.0072680     0.3620950
  C        1.2902590    -0.6844340    -0.1065680
  C       -1.2260320    -0.7691170    -0.0628830
  H        0.0257960     0.0592870     1.4578400
  H        1.3723820    -1.6982600     0.2983500
  H        1.3015040    -0.7541000    -1.2000220
  H        2.1759730    -0.1224230     0.2066200
  H       -2.1279660    -0.2662850     0.2914870
  H       -1.2072810    -1.7890590     0.3309910
  H       -1.2759310    -0.8321580    -1.1559040
  H       -0.1202894     1.3863094    -1.0332102
  H        0.6967190     1.9265130     0.1662320
units angstrom
no_reorient  #important for SAPT in psi4, default
symmetry c1  #important for SAPT in psi4, default
}

set PROPERTIES_ORIGIN ["COM"]
properties('MP2/aug-cc-pvtz', properties = ['dipole'])
--------------------------------------------------------------------------

    Molecular point group: c1
  Charge       = 0
  Multiplicity = 1
  Basis Set: AUG-CC-PVTZ
    Blend: AUG-CC-PVTZ
  Basis Set: (AUG-CC-PVTZ AUX)
    Blend: AUG-CC-PVTZ-JKFIT

    Orbital Energies [Eh]
    ---------------------

    Doubly Occupied:

       1A    -15.525302     2A    -11.251145     3A    -11.213512
       4A    -11.208801     5A     -1.196557     6A     -1.018352
       7A     -0.931742     8A     -0.793878     9A     -0.672691
      10A     -0.615463    11A     -0.599288    12A     -0.565126
      13A     -0.535924    14A     -0.509996    15A     -0.484555
      16A     -0.472011    17A     -0.391337

  @DF-RHF Final Energy:  -173.34956347703479

   => Energetics <=

    Nuclear Repulsion Energy =            136.1147058355568049
    One-Electron Energy =                -502.9571830955331961
    Two-Electron Energy =                 193.4929137829415708
    Total Energy =                       -173.3495634770347920
  Basis Set: (AUG-CC-PVTZ AUX)
    Blend: AUG-CC-PVTZ-RI
    Molecular point group: c1

    Geometry (in Angstrom), charge = 0, multiplicity = 1:

       Center              X                  Y                   Z               Mass
    ------------   -----------------  -----------------  -----------------  -----------------
         N           -0.125212753693     1.389853480251    -0.113705215959    14.003074004430
         C            0.011237246307     0.007261480251     0.360388784041    12.000000000000
         C            1.290268246307    -0.684440519749    -0.108274215959    12.000000000000
         C           -1.226022753693    -0.769123519749    -0.064589215959    12.000000000000
         H            0.025805246307     0.059280480251     1.456133784041     1.007825032230
         H            1.372391246307    -1.698266519749     0.296643784041     1.007825032230
         H            1.301513246307    -0.754106519749    -1.201728215959     1.007825032230
         H            2.175982246307    -0.122429519749     0.204913784041     1.007825032230
         H           -2.127956753693    -0.266291519749     0.289780784041     1.007825032230
         H           -1.207271753693    -1.789065519749     0.329284784041     1.007825032230
         H           -1.275921753693    -0.832164519749    -1.157610215959     1.007825032230
         H           -0.120280153693     1.386302880251    -1.034916415959     1.007825032230
         H            0.696728246307     1.926506480251     0.164525784041     1.007825032230

  Basis Set: AUG-CC-PVTZ
    Blend: AUG-CC-PVTZ
  Basis Set: (AUG-CC-PVTZ AUX)
    Blend: AUG-CC-PVTZ-JKFIT
	 Reference Energy          =    -173.3495634770347920 [Eh]
	 Singles Energy            =      -0.0000000000000000 [Eh]
	 Same-Spin Energy          =      -0.1812310494581410 [Eh]
	 Opposite-Spin Energy      =      -0.6591223422184156 [Eh]
	 Correlation Energy        =      -0.8403533916765566 [Eh]
	 Total Energy              =    -174.1899168687113502 [Eh]

	 ================> DF-SCS-MP2 Energies <==================
	-----------------------------------------------------------
	 SCS Same-Spin Scale       =       0.3333333333333333 [-]
	 SCS Opposite-Spin Scale   =       1.2000000000000000 [-]
	 SCS Same-Spin Energy      =      -0.0604103498193803 [Eh]
	 SCS Opposite-Spin Energy  =      -0.7909468106620987 [Eh]
	 SCS Correlation Energy    =      -0.8513571604814790 [Eh]
	 SCS Total Energy          =    -174.2009206375162762 [Eh]
	-----------------------------------------------------------

  Dipole Moment: [D]
     X:     1.1332      Y:    -0.6115      Z:    -0.3443     Total:     1.3329

*** Psi4 exiting successfully. Buy a developer a beer!
