                               Psi4 1.4a3.dev225

  ==> Input File <==

--------------------------------------------------------------------------
#psi4
#
memory 32 gb

molecule  {
0 1
  N       -0.1469120     1.4236990     0.0545040
  C       -0.0016500     0.0253930    -0.3738780
  C       -1.1263120    -0.8911600     0.1097180
  C        1.3605930    -0.4776830     0.0847150
  H       -0.0123590     0.0390410    -1.4711690
  H       -1.0014230    -1.9137900    -0.2617640
  H       -1.1380790    -0.9271980     1.2051720
  H       -2.1014050    -0.5250040    -0.2284640
  H        2.1497210     0.1825180    -0.2814950
  H        1.5482070    -1.4933870    -0.2755620
  H        1.4087220    -0.4951910     1.1798760
  H       -0.1648086     1.4501439     1.0555062
  H       -1.0556140     1.7771540    -0.2469470
units angstrom
no_reorient  #important for SAPT in psi4, default
symmetry c1  #important for SAPT in psi4, default
}

set PROPERTIES_ORIGIN ["COM"]
properties('MP2/aug-cc-pvtz', properties = ['dipole'])
--------------------------------------------------------------------------

    Molecular point group: c1
  Charge       = 0
  Multiplicity = 1
  Basis Set: AUG-CC-PVTZ
    Blend: AUG-CC-PVTZ
  Basis Set: (AUG-CC-PVTZ AUX)
    Blend: AUG-CC-PVTZ-JKFIT

    Orbital Energies [Eh]
    ---------------------

    Doubly Occupied:

       1A    -15.535307     2A    -11.251932     3A    -11.213700
       4A    -11.209012     5A     -1.184606     6A     -1.012719
       7A     -0.931368     8A     -0.788836     9A     -0.666177
      10A     -0.609830    11A     -0.595710    12A     -0.562077
      13A     -0.535627    14A     -0.509765    15A     -0.484204
      16A     -0.471260    17A     -0.390431

  @DF-RHF Final Energy:  -173.35624895560741

   => Energetics <=

    Nuclear Repulsion Energy =            135.5816758443574770
    One-Electron Energy =                -501.9707247624047568
    Two-Electron Energy =                 193.0327999624398387
    Total Energy =                       -173.3562489556074127
  Basis Set: (AUG-CC-PVTZ AUX)
    Blend: AUG-CC-PVTZ-RI
    Molecular point group: c1

    Geometry (in Angstrom), charge = 0, multiplicity = 1:

       Center              X                  Y                   Z               Mass
    ------------   -----------------  -----------------  -----------------  -----------------
         N           -0.153081292616     1.391634925360     0.066517511429    14.003074004430
         C           -0.007819292616    -0.006671074640    -0.361864488571    12.000000000000
         C           -1.132481292616    -0.923224074640     0.121731511429    12.000000000000
         C            1.354423707384    -0.509747074640     0.096728511429    12.000000000000
         H           -0.018528292616     0.006976925360    -1.459155488571     1.007825032230
         H           -1.007592292616    -1.945854074640    -0.249750488571     1.007825032230
         H           -1.144248292616    -0.959262074640     1.217185511429     1.007825032230
         H           -2.107574292616    -0.557068074640    -0.216450488571     1.007825032230
         H            2.143551707384     0.150453925360    -0.269481488571     1.007825032230
         H            1.542037707384    -1.525451074640    -0.263548488571     1.007825032230
         H            1.402552707384    -0.527255074640     1.191889511429     1.007825032230
         H           -0.170977892616     1.418079825360     1.067519711429     1.007825032230
         H           -1.061783292616     1.745089925360    -0.234933488571     1.007825032230

  Basis Set: AUG-CC-PVTZ
    Blend: AUG-CC-PVTZ
  Basis Set: (AUG-CC-PVTZ AUX)
    Blend: AUG-CC-PVTZ-JKFIT
	 Reference Energy          =    -173.3562489556074127 [Eh]
	 Singles Energy            =      -0.0000000000000000 [Eh]
	 Same-Spin Energy          =      -0.1815944934186703 [Eh]
	 Opposite-Spin Energy      =      -0.6603520218329090 [Eh]
	 Correlation Energy        =      -0.8419465152515793 [Eh]
	 Total Energy              =    -174.1981954708589910 [Eh]

	 ================> DF-SCS-MP2 Energies <==================
	-----------------------------------------------------------
	 SCS Same-Spin Scale       =       0.3333333333333333 [-]
	 SCS Opposite-Spin Scale   =       1.2000000000000000 [-]
	 SCS Same-Spin Energy      =      -0.0605314978062234 [Eh]
	 SCS Opposite-Spin Energy  =      -0.7924224261994908 [Eh]
	 SCS Correlation Energy    =      -0.8529539240057142 [Eh]
	 SCS Total Energy          =    -174.2092028796131160 [Eh]
	-----------------------------------------------------------

  Dipole Moment: [D]
     X:    -0.9839      Y:    -0.8147      Z:     0.3642     Total:     1.3284

*** Psi4 exiting successfully. Buy a developer a beer!
