                               Psi4 1.3.2 release

  ==> Input File <==

--------------------------------------------------------------------------
#psi4
#
memory 32 gb

molecule  {
0 1
  N       -0.1252220     1.3898600    -0.1119990
  C        0.0112280     0.0072680     0.3620950
  C        1.2902590    -0.6844340    -0.1065680
  C       -1.2260320    -0.7691170    -0.0628830
  H        0.0257960     0.0592870     1.4578400
  H        1.3723820    -1.6982600     0.2983500
  H        1.3015040    -0.7541000    -1.2000220
  H        2.1759730    -0.1224230     0.2066200
  H       -2.1279660    -0.2662850     0.2914870
  H       -1.2072810    -1.7890590     0.3309910
  H       -1.2759310    -0.8321580    -1.1559040
  H       -0.1186831     1.3851532    -1.3332036
  H        0.6967190     1.9265130     0.1662320
units angstrom
no_reorient  #important for SAPT in psi4, default
symmetry c1  #important for SAPT in psi4, default
}

set PROPERTIES_ORIGIN ["COM"]
properties('MP2/aug-cc-pvtz', properties = ['dipole'])
--------------------------------------------------------------------------

    Molecular point group: c1
  Charge       = 0
  Multiplicity = 1
  Basis Set: AUG-CC-PVTZ
    Blend: AUG-CC-PVTZ
  Basis Set: (AUG-CC-PVTZ AUX)
    Blend: AUG-CC-PVTZ-JKFIT

    Orbital Energies [Eh]
    ---------------------

    Doubly Occupied:

       1A    -15.558451     2A    -11.253216     3A    -11.213351
       4A    -11.208539     5A     -1.168553     6A     -1.003611
       7A     -0.931471     8A     -0.781002     9A     -0.657162
      10A     -0.605533    11A     -0.583749    12A     -0.544881
      13A     -0.533573    14A     -0.509907    15A     -0.484580
      16A     -0.468299    17A     -0.388674

  @DF-RHF Final Energy:  -173.32858776001643

   => Energetics <=

    Nuclear Repulsion Energy =            134.7696092567210258
    One-Electron Energy =                -500.4072925860526766
    Two-Electron Energy =                 192.3090955693152182
    Total Energy =                       -173.3285877600164326
  Basis Set: (AUG-CC-PVTZ AUX)
    Blend: AUG-CC-PVTZ-RI
    Molecular point group: c1

    Geometry (in Angstrom), charge = 0, multiplicity = 1:

       Center              X                  Y                   Z               Mass
    ------------   -----------------  -----------------  -----------------  -----------------
         N           -0.125240158017     1.389873205633    -0.108587170446    14.003074004430
         C            0.011209841983     0.007281205633     0.365506829554    12.000000000000
         C            1.290240841983    -0.684420794367    -0.103156170446    12.000000000000
         C           -1.226050158017    -0.769103794367    -0.059471170446    12.000000000000
         H            0.025777841983     0.059300205633     1.461251829554     1.007825032230
         H            1.372363841983    -1.698246794367     0.301761829554     1.007825032230
         H            1.301485841983    -0.754086794367    -1.196610170446     1.007825032230
         H            2.175954841983    -0.122409794367     0.210031829554     1.007825032230
         H           -2.127984158017    -0.266271794367     0.294898829554     1.007825032230
         H           -1.207299158017    -1.789045794367     0.334402829554     1.007825032230
         H           -1.275949158017    -0.832144794367    -1.152492170446     1.007825032230
         H           -0.118701258017     1.385166405633    -1.329791770446     1.007825032230
         H            0.696700841983     1.926526205633     0.169643829554     1.007825032230

  Basis Set: AUG-CC-PVTZ
    Blend: AUG-CC-PVTZ
  Basis Set: (AUG-CC-PVTZ AUX)
    Blend: AUG-CC-PVTZ-JKFIT
	 Reference Energy          =    -173.3285877600164326 [Eh]
	 Singles Energy            =      -0.0000000000000000 [Eh]
	 Same-Spin Energy          =      -0.1826584195284986 [Eh]
	 Opposite-Spin Energy      =      -0.6644586875021673 [Eh]
	 Correlation Energy        =      -0.8471171070306659 [Eh]
	 Total Energy              =    -174.1757048670471022 [Eh]

	 ================> DF-SCS-MP2 Energies <==================
	-----------------------------------------------------------
	 SCS Same-Spin Scale       =       0.3333333333333333 [-]
	 SCS Opposite-Spin Scale   =       1.2000000000000000 [-]
	 SCS Same-Spin Energy      =      -0.0608861398428329 [Eh]
	 SCS Opposite-Spin Energy  =      -0.7973504250026008 [Eh]
	 SCS Correlation Energy    =      -0.8582365648454336 [Eh]
	 SCS Total Energy          =    -174.1868243248618739 [Eh]
	-----------------------------------------------------------

  Dipole Moment: [D]
     X:     1.1015      Y:    -0.6377      Z:    -0.3242     Total:     1.3134

*** Psi4 exiting successfully. Buy a developer a beer!
