                               Psi4 1.3.2 release

  ==> Input File <==

--------------------------------------------------------------------------
#psi4
#
memory 32 gb

molecule  {
0 1
  N       -0.1252220     1.3898600    -0.1119990
  C        0.0112280     0.0072680     0.3620950
  C        1.2902590    -0.6844340    -0.1065680
  C       -1.2260320    -0.7691170    -0.0628830
  H        0.0257960     0.0592870     1.4578400
  H        1.3723820    -1.6982600     0.2983500
  H        1.3015040    -0.7541000    -1.2000220
  H        2.1759730    -0.1224230     0.2066200
  H       -2.1279660    -0.2662850     0.2914870
  H       -1.2072810    -1.7890590     0.3309910
  H       -1.2759310    -0.8321580    -1.1559040
  H       -0.1197540     1.3859240    -1.1332080
  H        0.6967190     1.9265130     0.1662320
units angstrom
no_reorient  #important for SAPT in psi4, default
symmetry c1  #important for SAPT in psi4, default
}

set PROPERTIES_ORIGIN ["COM"]
properties('MP2/aug-cc-pvtz', properties = ['dipole'])
--------------------------------------------------------------------------

    Molecular point group: c1
  Charge       = 0
  Multiplicity = 1
  Basis Set: AUG-CC-PVTZ
    Blend: AUG-CC-PVTZ
  Basis Set: (AUG-CC-PVTZ AUX)
    Blend: AUG-CC-PVTZ-JKFIT

    Orbital Energies [Eh]
    ---------------------

    Doubly Occupied:

       1A    -15.537435     2A    -11.251535     3A    -11.213325
       4A    -11.208642     5A     -1.182973     6A     -1.011936
       7A     -0.931555     8A     -0.787963     9A     -0.665334
      10A     -0.609294    11A     -0.594867    12A     -0.561266
      13A     -0.535543    14A     -0.509880    15A     -0.484335
      16A     -0.471107    17A     -0.390119

  @DF-RHF Final Energy:  -173.35598755355713

   => Energetics <=

    Nuclear Repulsion Energy =            135.6007852175413575
    One-Electron Energy =                -502.0193288783569869
    Two-Electron Energy =                 193.0625561072585299
    Total Energy =                       -173.3559875535571280
  Basis Set: (AUG-CC-PVTZ AUX)
    Blend: AUG-CC-PVTZ-RI
    Molecular point group: c1

    Geometry (in Angstrom), charge = 0, multiplicity = 1:

       Center              X                  Y                   Z               Mass
    ------------   -----------------  -----------------  -----------------  -----------------
         N           -0.125221887899     1.389860055379    -0.111999200788    14.003074004430
         C            0.011228112101     0.007268055379     0.362094799212    12.000000000000
         C            1.290259112101    -0.684433944621    -0.106568200788    12.000000000000
         C           -1.226031887899    -0.769116944621    -0.062883200788    12.000000000000
         H            0.025796112101     0.059287055379     1.457839799212     1.007825032230
         H            1.372382112101    -1.698259944621     0.298349799212     1.007825032230
         H            1.301504112101    -0.754099944621    -1.200022200788     1.007825032230
         H            2.175973112101    -0.122422944621     0.206619799212     1.007825032230
         H           -2.127965887899    -0.266284944621     0.291486799212     1.007825032230
         H           -1.207280887899    -1.789058944621     0.330990799212     1.007825032230
         H           -1.275930887899    -0.832157944621    -1.155904200788     1.007825032230
         H           -0.119753887899     1.385924055379    -1.133208200788     1.007825032230
         H            0.696719112101     1.926513055379     0.166231799212     1.007825032230

  Basis Set: AUG-CC-PVTZ
    Blend: AUG-CC-PVTZ
  Basis Set: (AUG-CC-PVTZ AUX)
    Blend: AUG-CC-PVTZ-JKFIT
	 Reference Energy          =    -173.3559875535571280 [Eh]
	 Singles Energy            =      -0.0000000000000000 [Eh]
	 Same-Spin Energy          =      -0.1817312780596908 [Eh]
	 Opposite-Spin Energy      =      -0.6606546197423684 [Eh]
	 Correlation Energy        =      -0.8423858978020592 [Eh]
	 Total Energy              =    -174.1983734513591742 [Eh]

	 ================> DF-SCS-MP2 Energies <==================
	-----------------------------------------------------------
	 SCS Same-Spin Scale       =       0.3333333333333333 [-]
	 SCS Opposite-Spin Scale   =       1.2000000000000000 [-]
	 SCS Same-Spin Energy      =      -0.0605770926865636 [Eh]
	 SCS Opposite-Spin Energy  =      -0.7927855436908421 [Eh]
	 SCS Correlation Energy    =      -0.8533626363774057 [Eh]
	 SCS Total Energy          =    -174.2093501899345256 [Eh]
	-----------------------------------------------------------

  Dipole Moment: [D]
     X:     1.1197      Y:    -0.6142      Z:    -0.3510     Total:     1.3244

*** Psi4 exiting successfully. Buy a developer a beer!
