                               Psi4 1.3.2 release

  ==> Input File <==

--------------------------------------------------------------------------
#psi4
#
memory 32 gb

molecule  {
0 1
  N       -0.1252220     1.3898600    -0.1119990
  C        0.0205231    -0.0869158     0.3943908
  C        1.2902590    -0.6844340    -0.1065680
  C       -1.2260320    -0.7691170    -0.0628830
  H        0.0257960     0.0592870     1.4578400
  H        1.3723820    -1.6982600     0.2983500
  H        1.3015040    -0.7541000    -1.2000220
  H        2.1759730    -0.1224230     0.2066200
  H       -2.1279660    -0.2662850     0.2914870
  H       -1.2072810    -1.7890590     0.3309910
  H       -1.2759310    -0.8321580    -1.1559040
  H       -0.1197540     1.3859240    -1.1332080
  H        0.6967190     1.9265130     0.1662320
units angstrom
no_reorient  #important for SAPT in psi4, default
symmetry c1  #important for SAPT in psi4, default
}

set PROPERTIES_ORIGIN ["COM"]
properties('MP2/aug-cc-pvtz', properties = ['dipole'])
--------------------------------------------------------------------------

    Molecular point group: c1
  Charge       = 0
  Multiplicity = 1
  Basis Set: AUG-CC-PVTZ
    Blend: AUG-CC-PVTZ
  Basis Set: (AUG-CC-PVTZ AUX)
    Blend: AUG-CC-PVTZ-JKFIT

    Orbital Energies [Eh]
    ---------------------

    Doubly Occupied:

       1A    -15.532043     2A    -11.253001     3A    -11.215626
       4A    -11.210068     5A     -1.159798     6A     -1.020348
       7A     -0.939141     8A     -0.788874     9A     -0.656337
      10A     -0.609869    11A     -0.593518    12A     -0.562602
      13A     -0.539399    14A     -0.503671    15A     -0.485608
      16A     -0.474087    17A     -0.387554

  @DF-RHF Final Energy:  -173.34697456959915

   => Energetics <=

    Nuclear Repulsion Energy =            135.2465603951266075
    One-Electron Energy =                -501.3239838990970156
    Two-Electron Energy =                 192.7304489343712532
    Total Energy =                       -173.3469745695991548
  Basis Set: (AUG-CC-PVTZ AUX)
    Blend: AUG-CC-PVTZ-RI
    Molecular point group: c1

    Geometry (in Angstrom), charge = 0, multiplicity = 1:

       Center              X                  Y                   Z               Mass
    ------------   -----------------  -----------------  -----------------  -----------------
         N           -0.127110064515     1.408992248553    -0.118559665373    14.003074004430
         C            0.018635035485    -0.067783551447     0.387830134627    12.000000000000
         C            1.288370935485    -0.665301751447    -0.113128665373    12.000000000000
         C           -1.227920064515    -0.749984751447    -0.069443665373    12.000000000000
         H            0.023907935485     0.078419248553     1.451279334627     1.007825032230
         H            1.370493935485    -1.679127751447     0.291789334627     1.007825032230
         H            1.299615935485    -0.734967751447    -1.206582665373     1.007825032230
         H            2.174084935485    -0.103290751447     0.200059334627     1.007825032230
         H           -2.129854064515    -0.247152751447     0.284926334627     1.007825032230
         H           -1.209169064515    -1.769926751447     0.324430334627     1.007825032230
         H           -1.277819064515    -0.813025751447    -1.162464665373     1.007825032230
         H           -0.121642064515     1.405056248553    -1.139768665373     1.007825032230
         H            0.694830935485     1.945645248553     0.159671334627     1.007825032230

  Basis Set: AUG-CC-PVTZ
    Blend: AUG-CC-PVTZ
  Basis Set: (AUG-CC-PVTZ AUX)
    Blend: AUG-CC-PVTZ-JKFIT
	 Reference Energy          =    -173.3469745695991548 [Eh]
	 Singles Energy            =      -0.0000000000000000 [Eh]
	 Same-Spin Energy          =      -0.1820534090279709 [Eh]
	 Opposite-Spin Energy      =      -0.6618466377541522 [Eh]
	 Correlation Energy        =      -0.8439000467821232 [Eh]
	 Total Energy              =    -174.1908746163812793 [Eh]

	 ================> DF-SCS-MP2 Energies <==================
	-----------------------------------------------------------
	 SCS Same-Spin Scale       =       0.3333333333333333 [-]
	 SCS Opposite-Spin Scale   =       1.2000000000000000 [-]
	 SCS Same-Spin Energy      =      -0.0606844696759903 [Eh]
	 SCS Opposite-Spin Energy  =      -0.7942159653049826 [Eh]
	 SCS Correlation Energy    =      -0.8549004349809729 [Eh]
	 SCS Total Energy          =    -174.2018750045801312 [Eh]
	-----------------------------------------------------------

  Dipole Moment: [D]
     X:     1.1624      Y:    -0.8680      Z:    -0.3059     Total:     1.4826

*** Psi4 exiting successfully. Buy a developer a beer!
