                               Psi4 1.3.2 release

  ==> Input File <==

--------------------------------------------------------------------------
#psi4
#
memory 32 gb

molecule  {
0 1
  N       -0.1252220     1.3898600    -0.1119990
  C       -0.0073623     0.1956355     0.2975033
  C        1.2902590    -0.6844340    -0.1065680
  C       -1.2260320    -0.7691170    -0.0628830
  H        0.0257960     0.0592870     1.4578400
  H        1.3723820    -1.6982600     0.2983500
  H        1.3015040    -0.7541000    -1.2000220
  H        2.1759730    -0.1224230     0.2066200
  H       -2.1279660    -0.2662850     0.2914870
  H       -1.2072810    -1.7890590     0.3309910
  H       -1.2759310    -0.8321580    -1.1559040
  H       -0.1197540     1.3859240    -1.1332080
  H        0.6967190     1.9265130     0.1662320
units angstrom
no_reorient  #important for SAPT in psi4, default
symmetry c1  #important for SAPT in psi4, default
}

set PROPERTIES_ORIGIN ["COM"]
properties('MP2/aug-cc-pvtz', properties = ['dipole'])
--------------------------------------------------------------------------

    Molecular point group: c1
  Charge       = 0
  Multiplicity = 1
  Basis Set: AUG-CC-PVTZ
    Blend: AUG-CC-PVTZ
  Basis Set: (AUG-CC-PVTZ AUX)
    Blend: AUG-CC-PVTZ-JKFIT

    Orbital Energies [Eh]
    ---------------------

    Doubly Occupied:

       1A    -15.545774     2A    -11.257807     3A    -11.208227
       4A    -11.208180     5A     -1.258066     6A     -0.991014
       7A     -0.917775     8A     -0.794357     9A     -0.697639
      10A     -0.627358    11A     -0.598641    12A     -0.558650
      13A     -0.539533    14A     -0.527479    15A     -0.488145
      16A     -0.430529    17A     -0.366056

  @DF-RHF Final Energy:  -173.30762698579497

   => Energetics <=

    Nuclear Repulsion Energy =            136.5456038208988048
    One-Electron Energy =                -503.6760042685677945
    Two-Electron Energy =                 193.8227734618740215
    Total Energy =                       -173.3076269857949683
  Basis Set: (AUG-CC-PVTZ AUX)
    Blend: AUG-CC-PVTZ-RI
    Molecular point group: c1

    Geometry (in Angstrom), charge = 0, multiplicity = 1:

       Center              X                  Y                   Z               Mass
    ------------   -----------------  -----------------  -----------------  -----------------
         N           -0.121445514353     1.351595689343    -0.098878251306    14.003074004430
         C           -0.003585814353     0.157371189343     0.310624048694    12.000000000000
         C            1.294035485647    -0.722698310657    -0.093447251306    12.000000000000
         C           -1.222255514353    -0.807381310657    -0.049762251306    12.000000000000
         H            0.029572485647     0.021022689343     1.470960748694     1.007825032230
         H            1.376158485647    -1.736524310657     0.311470748694     1.007825032230
         H            1.305280485647    -0.792364310657    -1.186901251306     1.007825032230
         H            2.179749485647    -0.160687310657     0.219740748694     1.007825032230
         H           -2.124189514353    -0.304549310657     0.304607748694     1.007825032230
         H           -1.203504514353    -1.827323310657     0.344111748694     1.007825032230
         H           -1.272154514353    -0.870422310657    -1.142783251306     1.007825032230
         H           -0.115977514353     1.347659689343    -1.120087251306     1.007825032230
         H            0.700495485647     1.888248689343     0.179352748694     1.007825032230

  Basis Set: AUG-CC-PVTZ
    Blend: AUG-CC-PVTZ
  Basis Set: (AUG-CC-PVTZ AUX)
    Blend: AUG-CC-PVTZ-JKFIT
	 Reference Energy          =    -173.3076269857949683 [Eh]
	 Singles Energy            =      -0.0000000000000000 [Eh]
	 Same-Spin Energy          =      -0.1835917964306090 [Eh]
	 Opposite-Spin Energy      =      -0.6624064684883186 [Eh]
	 Correlation Energy        =      -0.8459982649189276 [Eh]
	 Total Energy              =    -174.1536252507139011 [Eh]

	 ================> DF-SCS-MP2 Energies <==================
	-----------------------------------------------------------
	 SCS Same-Spin Scale       =       0.3333333333333333 [-]
	 SCS Opposite-Spin Scale   =       1.2000000000000000 [-]
	 SCS Same-Spin Energy      =      -0.0611972654768697 [Eh]
	 SCS Opposite-Spin Energy  =      -0.7948877621859823 [Eh]
	 SCS Correlation Energy    =      -0.8560850276628520 [Eh]
	 SCS Total Energy          =    -174.1637120134578254 [Eh]
	-----------------------------------------------------------

  Dipole Moment: [D]
     X:     0.9722      Y:     0.0177      Z:    -0.4741     Total:     1.0818

*** Psi4 exiting successfully. Buy a developer a beer!
