                               Psi4 1.3.2 release

  ==> Input File <==

--------------------------------------------------------------------------
#psi4
#
memory 32 gb

molecule  {
0 1
  N       -0.1252220     1.3898600    -0.1119990
  C        0.0019329     0.1014518     0.3297992
  C        1.2902590    -0.6844340    -0.1065680
  C       -1.2260320    -0.7691170    -0.0628830
  H        0.0257960     0.0592870     1.4578400
  H        1.3723820    -1.6982600     0.2983500
  H        1.3015040    -0.7541000    -1.2000220
  H        2.1759730    -0.1224230     0.2066200
  H       -2.1279660    -0.2662850     0.2914870
  H       -1.2072810    -1.7890590     0.3309910
  H       -1.2759310    -0.8321580    -1.1559040
  H       -0.1197540     1.3859240    -1.1332080
  H        0.6967190     1.9265130     0.1662320
units angstrom
no_reorient  #important for SAPT in psi4, default
symmetry c1  #important for SAPT in psi4, default
}

set PROPERTIES_ORIGIN ["COM"]
properties('MP2/aug-cc-pvtz', properties = ['dipole'])
--------------------------------------------------------------------------

    Molecular point group: c1
  Charge       = 0
  Multiplicity = 1
  Basis Set: AUG-CC-PVTZ
    Blend: AUG-CC-PVTZ
  Basis Set: (AUG-CC-PVTZ AUX)
    Blend: AUG-CC-PVTZ-JKFIT

    Orbital Energies [Eh]
    ---------------------

    Doubly Occupied:

       1A    -15.541597     2A    -11.253288     3A    -11.211137
       4A    -11.208158     5A     -1.215117     6A     -1.002001
       7A     -0.924487     8A     -0.789207     9A     -0.678876
      10A     -0.615619    11A     -0.595548    12A     -0.560544
      13A     -0.532393    14A     -0.526534    15A     -0.483991
      16A     -0.452531    17A     -0.382851

  @DF-RHF Final Energy:  -173.34543289589431

   => Energetics <=

    Nuclear Repulsion Energy =            136.0147999081036119
    One-Electron Energy =                -502.7727064364779608
    Two-Electron Energy =                 193.4124736324800438
    Total Energy =                       -173.3454328958943051
  Basis Set: (AUG-CC-PVTZ AUX)
    Blend: AUG-CC-PVTZ-RI
    Molecular point group: c1

    Geometry (in Angstrom), charge = 0, multiplicity = 1:

       Center              X                  Y                   Z               Mass
    ------------   -----------------  -----------------  -----------------  -----------------
         N           -0.123333711283     1.370727862204    -0.105438736204    14.003074004430
         C            0.003821188717     0.082319662204     0.336359463796    12.000000000000
         C            1.292147288717    -0.703566137796    -0.100007736204    12.000000000000
         C           -1.224143711283    -0.788249137796    -0.056322736204    12.000000000000
         H            0.027684288717     0.040154862204     1.464400263796     1.007825032230
         H            1.374270288717    -1.717392137796     0.304910263796     1.007825032230
         H            1.303392288717    -0.773232137796    -1.193461736204     1.007825032230
         H            2.177861288717    -0.141555137796     0.213180263796     1.007825032230
         H           -2.126077711283    -0.285417137796     0.298047263796     1.007825032230
         H           -1.205392711283    -1.808191137796     0.337551263796     1.007825032230
         H           -1.274042711283    -0.851290137796    -1.149343736204     1.007825032230
         H           -0.117865711283     1.366791862204    -1.126647736204     1.007825032230
         H            0.698607288717     1.907380862204     0.172792263796     1.007825032230

  Basis Set: AUG-CC-PVTZ
    Blend: AUG-CC-PVTZ
  Basis Set: (AUG-CC-PVTZ AUX)
    Blend: AUG-CC-PVTZ-JKFIT
	 Reference Energy          =    -173.3454328958943051 [Eh]
	 Singles Energy            =      -0.0000000000000000 [Eh]
	 Same-Spin Energy          =      -0.1822051704092560 [Eh]
	 Opposite-Spin Energy      =      -0.6608038736481381 [Eh]
	 Correlation Energy        =      -0.8430090440573941 [Eh]
	 Total Energy              =    -174.1884419399517014 [Eh]

	 ================> DF-SCS-MP2 Energies <==================
	-----------------------------------------------------------
	 SCS Same-Spin Scale       =       0.3333333333333333 [-]
	 SCS Opposite-Spin Scale   =       1.2000000000000000 [-]
	 SCS Same-Spin Energy      =      -0.0607350568030853 [Eh]
	 SCS Opposite-Spin Energy  =      -0.7929646483777657 [Eh]
	 SCS Correlation Energy    =      -0.8536997051808510 [Eh]
	 SCS Total Energy          =    -174.1991326010751493 [Eh]
	-----------------------------------------------------------

  Dipole Moment: [D]
     X:     1.0597      Y:    -0.3300      Z:    -0.4044     Total:     1.1812

*** Psi4 exiting successfully. Buy a developer a beer!
