                               Psi4 1.3.2 release

  ==> Input File <==

--------------------------------------------------------------------------
#psi4
#
memory 32 gb

molecule  {
0 1
  O        1.8013450    -0.1222670    -0.0001450
  C       -0.5611510    -0.4520200    -0.0000120
  C        0.6707050     0.3546130    -0.0000040
  C       -1.7652780     0.1406350     0.0001500
  H       -0.4438416    -1.5324394     0.2498560
  H        0.5134400     1.4540710     0.0000460
  H       -2.6894370    -0.4270490     0.0001690
  H       -1.8565530     1.2241520     0.0002830
units angstrom
no_reorient  #important for SAPT in psi4, default
symmetry c1  #important for SAPT in psi4, default
}

set PROPERTIES_ORIGIN ["COM"]
properties('MP2/aug-cc-pvtz', properties = ['dipole'])
--------------------------------------------------------------------------

    Molecular point group: c1
  Charge       = 0
  Multiplicity = 1
  Basis Set: AUG-CC-PVTZ
    Blend: AUG-CC-PVTZ
  Basis Set: (AUG-CC-PVTZ AUX)
    Blend: AUG-CC-PVTZ-JKFIT

    Orbital Energies [Eh]
    ---------------------

    Doubly Occupied:

       1A    -20.560213     2A    -11.340570     3A    -11.276012
       4A    -11.263423     5A     -1.383115     6A     -1.089066
       7A     -0.889703     8A     -0.784849     9A     -0.671654
      10A     -0.665399    11A     -0.603475    12A     -0.560154
      13A     -0.535679    14A     -0.434614    15A     -0.399756

  @DF-RHF Final Energy:  -190.82925531665580

   => Energetics <=

    Nuclear Repulsion Energy =            102.4982700493802952
    One-Electron Energy =                -461.7396868398952847
    Two-Electron Energy =                 168.4121614738592143
    Total Energy =                       -190.8292553166558037
  Basis Set: (AUG-CC-PVTZ AUX)
    Blend: AUG-CC-PVTZ-RI
    Molecular point group: c1

    Geometry (in Angstrom), charge = 0, multiplicity = 1:

       Center              X                  Y                   Z               Mass
    ------------   -----------------  -----------------  -----------------  -----------------
         O            1.722234676614    -0.109548748239    -0.004635786440    15.994914619570
         C           -0.640261323386    -0.439301748239    -0.004502786440    12.000000000000
         C            0.591594676614     0.367331251761    -0.004494786440    12.000000000000
         C           -1.844388323386     0.153353251761    -0.004340786440    12.000000000000
         H           -0.522951923386    -1.519721148239     0.245365213560     1.007825032230
         H            0.434329676614     1.466789251761    -0.004444786440     1.007825032230
         H           -2.768547323386    -0.414330748239    -0.004321786440     1.007825032230
         H           -1.935663323386     1.236870251761    -0.004207786440     1.007825032230

  Basis Set: AUG-CC-PVTZ
    Blend: AUG-CC-PVTZ
  Basis Set: (AUG-CC-PVTZ AUX)
    Blend: AUG-CC-PVTZ-JKFIT
	 Reference Energy          =    -190.8292553166558037 [Eh]
	 Singles Energy            =      -0.0000000000000000 [Eh]
	 Same-Spin Energy          =      -0.1839118869404345 [Eh]
	 Opposite-Spin Energy      =      -0.6067672129938136 [Eh]
	 Correlation Energy        =      -0.7906790999342481 [Eh]
	 Total Energy              =    -191.6199344165900413 [Eh]

	 ================> DF-SCS-MP2 Energies <==================
	-----------------------------------------------------------
	 SCS Same-Spin Scale       =       0.3333333333333333 [-]
	 SCS Opposite-Spin Scale   =       1.2000000000000000 [-]
	 SCS Same-Spin Energy      =      -0.0613039623134782 [Eh]
	 SCS Opposite-Spin Energy  =      -0.7281206555925763 [Eh]
	 SCS Correlation Energy    =      -0.7894246179060544 [Eh]
	 SCS Total Energy          =    -191.6186799345618681 [Eh]
	-----------------------------------------------------------

  Dipole Moment: [D]
     X:    -3.2099      Y:     0.6876      Z:     0.1775     Total:     3.2875

*** Psi4 exiting successfully. Buy a developer a beer!
