                               Psi4 1.3.2 release

  ==> Input File <==

--------------------------------------------------------------------------
#psi4
#
memory 32 gb

molecule  {
0 1
  O        1.8013450    -0.1222670    -0.0001450
  C       -0.5611510    -0.4520200    -0.0000120
  C        0.6707050     0.3546130    -0.0000040
  C       -1.7652780     0.1406350     0.0001500
  H       -0.4438526    -1.5324218     0.0998560
  H        0.5134400     1.4540710     0.0000460
  H       -2.6894370    -0.4270490     0.0001690
  H       -1.8565530     1.2241520     0.0002830
units angstrom
no_reorient  #important for SAPT in psi4, default
symmetry c1  #important for SAPT in psi4, default
}

set PROPERTIES_ORIGIN ["COM"]
properties('MP2/aug-cc-pvtz', properties = ['dipole'])
--------------------------------------------------------------------------

    Molecular point group: c1
  Charge       = 0
  Multiplicity = 1
  Basis Set: AUG-CC-PVTZ
    Blend: AUG-CC-PVTZ
  Basis Set: (AUG-CC-PVTZ AUX)
    Blend: AUG-CC-PVTZ-JKFIT

    Orbital Energies [Eh]
    ---------------------

    Doubly Occupied:

       1A    -20.560170     2A    -11.340513     3A    -11.275357
       4A    -11.261229     5A     -1.383138     6A     -1.089382
       7A     -0.889631     8A     -0.788028     9A     -0.671824
      10A     -0.666351    11A     -0.603977    12A     -0.560839
      13A     -0.538223    14A     -0.434366    15A     -0.400653

  @DF-RHF Final Energy:  -190.83284681684830

   => Energetics <=

    Nuclear Repulsion Energy =            102.5843855289502926
    One-Electron Energy =                -461.9071068085931984
    Two-Electron Energy =                 168.4898744627946030
    Total Energy =                       -190.8328468168483028
  Basis Set: (AUG-CC-PVTZ AUX)
    Blend: AUG-CC-PVTZ-RI
    Molecular point group: c1

    Geometry (in Angstrom), charge = 0, multiplicity = 1:

       Center              X                  Y                   Z               Mass
    ------------   -----------------  -----------------  -----------------  -----------------
         O            1.722234874487    -0.109549064836    -0.001937518219    15.994914619570
         C           -0.640261125513    -0.439302064836    -0.001804518219    12.000000000000
         C            0.591594874487     0.367330935164    -0.001796518219    12.000000000000
         C           -1.844388125513     0.153352935164    -0.001642518219    12.000000000000
         H           -0.522962725513    -1.519703864836     0.098063481781     1.007825032230
         H            0.434329874487     1.466788935164    -0.001746518219     1.007825032230
         H           -2.768547125513    -0.414331064836    -0.001623518219     1.007825032230
         H           -1.935663125513     1.236869935164    -0.001509518219     1.007825032230

  Basis Set: AUG-CC-PVTZ
    Blend: AUG-CC-PVTZ
  Basis Set: (AUG-CC-PVTZ AUX)
    Blend: AUG-CC-PVTZ-JKFIT
	 Reference Energy          =    -190.8328468168483028 [Eh]
	 Singles Energy            =      -0.0000000000000000 [Eh]
	 Same-Spin Energy          =      -0.1837762820704366 [Eh]
	 Opposite-Spin Energy      =      -0.6063787738473397 [Eh]
	 Correlation Energy        =      -0.7901550559177763 [Eh]
	 Total Energy              =    -191.6230018727660820 [Eh]

	 ================> DF-SCS-MP2 Energies <==================
	-----------------------------------------------------------
	 SCS Same-Spin Scale       =       0.3333333333333333 [-]
	 SCS Opposite-Spin Scale   =       1.2000000000000000 [-]
	 SCS Same-Spin Energy      =      -0.0612587606901455 [Eh]
	 SCS Opposite-Spin Energy  =      -0.7276545286168077 [Eh]
	 SCS Correlation Energy    =      -0.7889132893069533 [Eh]
	 SCS Total Energy          =    -191.6217601061552500 [Eh]
	-----------------------------------------------------------

  Dipole Moment: [D]
     X:    -3.2061      Y:     0.6638      Z:     0.0720     Total:     3.2749

*** Psi4 exiting successfully. Buy a developer a beer!
