                               Psi4 1.3.2 release

  ==> Input File <==

--------------------------------------------------------------------------
#psi4
#
memory 32 gb

molecule  {
0 1
  O        1.8013450    -0.1222670    -0.0001450
  C       -0.5611510    -0.4520200    -0.0000120
  C        0.6707050     0.3546130    -0.0000040
  C       -1.7652780     0.1406350     0.0001500
  H       -0.4438490    -1.5324276     0.1498560
  H        0.5134400     1.4540710     0.0000460
  H       -2.6894370    -0.4270490     0.0001690
  H       -1.8565530     1.2241520     0.0002830
units angstrom
no_reorient  #important for SAPT in psi4, default
symmetry c1  #important for SAPT in psi4, default
}

set PROPERTIES_ORIGIN ["COM"]
properties('MP2/aug-cc-pvtz', properties = ['dipole'])
--------------------------------------------------------------------------

    Molecular point group: c1
  Charge       = 0
  Multiplicity = 1
  Basis Set: AUG-CC-PVTZ
    Blend: AUG-CC-PVTZ
  Basis Set: (AUG-CC-PVTZ AUX)
    Blend: AUG-CC-PVTZ-JKFIT

    Orbital Energies [Eh]
    ---------------------

    Doubly Occupied:

       1A    -20.560180     2A    -11.340525     3A    -11.275513
       4A    -11.261758     5A     -1.383132     6A     -1.089301
       7A     -0.889645     8A     -0.787236     9A     -0.671767
      10A     -0.666126    11A     -0.603851    12A     -0.560684
      13A     -0.537617    14A     -0.434426    15A     -0.400434

  @DF-RHF Final Energy:  -190.83203417944762

   => Energetics <=

    Nuclear Repulsion Energy =            102.5634816920774739
    One-Electron Energy =                -461.8666398338507975
    Two-Electron Energy =                 168.4711239623257200
    Total Energy =                       -190.8320341794476178
  Basis Set: (AUG-CC-PVTZ AUX)
    Blend: AUG-CC-PVTZ-RI
    Molecular point group: c1

    Geometry (in Angstrom), charge = 0, multiplicity = 1:

       Center              X                  Y                   Z               Mass
    ------------   -----------------  -----------------  -----------------  -----------------
         O            1.722234809729    -0.109548960503    -0.002836940959    15.994914619570
         C           -0.640261190271    -0.439301960503    -0.002703940959    12.000000000000
         C            0.591594809729     0.367331039497    -0.002695940959    12.000000000000
         C           -1.844388190271     0.153353039497    -0.002541940959    12.000000000000
         H           -0.522959190271    -1.519709560503     0.147164059041     1.007825032230
         H            0.434329809729     1.466789039497    -0.002645940959     1.007825032230
         H           -2.768547190271    -0.414330960503    -0.002522940959     1.007825032230
         H           -1.935663190271     1.236870039497    -0.002408940959     1.007825032230

  Basis Set: AUG-CC-PVTZ
    Blend: AUG-CC-PVTZ
  Basis Set: (AUG-CC-PVTZ AUX)
    Blend: AUG-CC-PVTZ-JKFIT
	 Reference Energy          =    -190.8320341794476178 [Eh]
	 Singles Energy            =      -0.0000000000000000 [Eh]
	 Same-Spin Energy          =      -0.1838088962494183 [Eh]
	 Opposite-Spin Energy      =      -0.6064681917441908 [Eh]
	 Correlation Energy        =      -0.7902770879936091 [Eh]
	 Total Energy              =    -191.6223112674412334 [Eh]

	 ================> DF-SCS-MP2 Energies <==================
	-----------------------------------------------------------
	 SCS Same-Spin Scale       =       0.3333333333333333 [-]
	 SCS Opposite-Spin Scale   =       1.2000000000000000 [-]
	 SCS Same-Spin Energy      =      -0.0612696320831394 [Eh]
	 SCS Opposite-Spin Energy  =      -0.7277618300930289 [Eh]
	 SCS Correlation Energy    =      -0.7890314621761683 [Eh]
	 SCS Total Energy          =    -191.6210656416237725 [Eh]
	-----------------------------------------------------------

  Dipole Moment: [D]
     X:    -3.2070      Y:     0.6695      Z:     0.1076     Total:     3.2779

*** Psi4 exiting successfully. Buy a developer a beer!
