                               Psi4 1.3.2 release

  ==> Input File <==

--------------------------------------------------------------------------
#psi4
#
memory 32 gb

molecule  {
0 1
  O        1.8013450    -0.1222670    -0.0001450
  C       -0.5611510    -0.4520200    -0.0000120
  C        0.6707050     0.3546130    -0.0000040
  C       -1.7652780     0.1406350     0.0001500
  H       -0.4438600    -1.5324100    -0.0001440
  H        0.5134236     1.4540879    -0.2499540
  H       -2.6894370    -0.4270490     0.0001690
  H       -1.8565530     1.2241520     0.0002830
units angstrom
no_reorient  #important for SAPT in psi4, default
symmetry c1  #important for SAPT in psi4, default
}

set PROPERTIES_ORIGIN ["COM"]
properties('MP2/aug-cc-pvtz', properties = ['dipole'])
--------------------------------------------------------------------------

    Molecular point group: c1
  Charge       = 0
  Multiplicity = 1
  Basis Set: AUG-CC-PVTZ
    Blend: AUG-CC-PVTZ
  Basis Set: (AUG-CC-PVTZ AUX)
    Blend: AUG-CC-PVTZ-JKFIT

    Orbital Energies [Eh]
    ---------------------

    Doubly Occupied:

       1A    -20.561446     2A    -11.343440     3A    -11.275138
       4A    -11.261386     5A     -1.384000     6A     -1.089349
       7A     -0.888334     8A     -0.784196     9A     -0.671718
      10A     -0.665018    11A     -0.603712    12A     -0.561494
      13A     -0.538172    14A     -0.432988    15A     -0.400739

  @DF-RHF Final Energy:  -190.82959190746504

   => Energetics <=

    Nuclear Repulsion Energy =            102.4991189504597600
    One-Electron Energy =                -461.7351623360099211
    Two-Electron Energy =                 168.4064514780851027
    Total Energy =                       -190.8295919074650442
  Basis Set: (AUG-CC-PVTZ AUX)
    Blend: AUG-CC-PVTZ-RI
    Molecular point group: c1

    Geometry (in Angstrom), charge = 0, multiplicity = 1:

       Center              X                  Y                   Z               Mass
    ------------   -----------------  -----------------  -----------------  -----------------
         O            1.722235302612    -0.109549581105     0.004358440965    15.994914619570
         C           -0.640260697388    -0.439302581105     0.004491440965    12.000000000000
         C            0.591595302612     0.367330418895     0.004499440965    12.000000000000
         C           -1.844387697388     0.153352418895     0.004653440965    12.000000000000
         H           -0.522969697388    -1.519692581105     0.004359440965     1.007825032230
         H            0.434313902612     1.466805318895    -0.245450559035     1.007825032230
         H           -2.768546697388    -0.414331581105     0.004672440965     1.007825032230
         H           -1.935662697388     1.236869418895     0.004786440965     1.007825032230

  Basis Set: AUG-CC-PVTZ
    Blend: AUG-CC-PVTZ
  Basis Set: (AUG-CC-PVTZ AUX)
    Blend: AUG-CC-PVTZ-JKFIT
	 Reference Energy          =    -190.8295919074650442 [Eh]
	 Singles Energy            =      -0.0000000000000000 [Eh]
	 Same-Spin Energy          =      -0.1839810325573712 [Eh]
	 Opposite-Spin Energy      =      -0.6068521826673013 [Eh]
	 Correlation Energy        =      -0.7908332152246726 [Eh]
	 Total Energy              =    -191.6204251226897100 [Eh]

	 ================> DF-SCS-MP2 Energies <==================
	-----------------------------------------------------------
	 SCS Same-Spin Scale       =       0.3333333333333333 [-]
	 SCS Opposite-Spin Scale   =       1.2000000000000000 [-]
	 SCS Same-Spin Energy      =      -0.0613270108524571 [Eh]
	 SCS Opposite-Spin Energy  =      -0.7282226192007616 [Eh]
	 SCS Correlation Energy    =      -0.7895496300532187 [Eh]
	 SCS Total Energy          =    -191.6191415375182601 [Eh]
	-----------------------------------------------------------

  Dipole Moment: [D]
     X:    -3.1889      Y:     0.6112      Z:    -0.0923     Total:     3.2482

*** Psi4 exiting successfully. Buy a developer a beer!
