                               Psi4 1.3.2 release

  ==> Input File <==

--------------------------------------------------------------------------
#psi4
#
memory 32 gb

molecule  {
0 1
  O        1.8013450    -0.1222670    -0.0001450
  C       -0.5611510    -0.4520200    -0.0000120
  C        0.6707050     0.3546130    -0.0000040
  C       -1.7652780     0.1406350     0.0001500
  H       -0.4438600    -1.5324100    -0.0001440
  H        0.5134269     1.4540845    -0.1999540
  H       -2.6894370    -0.4270490     0.0001690
  H       -1.8565530     1.2241520     0.0002830
units angstrom
no_reorient  #important for SAPT in psi4, default
symmetry c1  #important for SAPT in psi4, default
}

set PROPERTIES_ORIGIN ["COM"]
properties('MP2/aug-cc-pvtz', properties = ['dipole'])
--------------------------------------------------------------------------

    Molecular point group: c1
  Charge       = 0
  Multiplicity = 1
  Basis Set: AUG-CC-PVTZ
    Blend: AUG-CC-PVTZ
  Basis Set: (AUG-CC-PVTZ AUX)
    Blend: AUG-CC-PVTZ-JKFIT

    Orbital Energies [Eh]
    ---------------------

    Doubly Occupied:

       1A    -20.560984     2A    -11.342395     3A    -11.275167
       4A    -11.261175     5A     -1.383692     6A     -1.089379
       7A     -0.888761     8A     -0.785754     9A     -0.671730
      10A     -0.665597    11A     -0.603852    12A     -0.561306
      13A     -0.538348    14A     -0.433468    15A     -0.400777

  @DF-RHF Final Energy:  -190.83105140711652

   => Energetics <=

    Nuclear Repulsion Energy =            102.5352343177507777
    One-Electron Energy =                -461.8078025343330637
    Two-Electron Energy =                 168.4415168094657531
    Total Energy =                       -190.8310514071165187
  Basis Set: (AUG-CC-PVTZ AUX)
    Blend: AUG-CC-PVTZ-RI
    Molecular point group: c1

    Geometry (in Angstrom), charge = 0, multiplicity = 1:

       Center              X                  Y                   Z               Mass
    ------------   -----------------  -----------------  -----------------  -----------------
         O            1.722235243250    -0.109549519944     0.003459018225    15.994914619570
         C           -0.640260756750    -0.439302519944     0.003592018225    12.000000000000
         C            0.591595243250     0.367330480056     0.003600018225    12.000000000000
         C           -1.844387756750     0.153352480056     0.003754018225    12.000000000000
         H           -0.522969756750    -1.519692519944     0.003460018225     1.007825032230
         H            0.434317143250     1.466801980056    -0.196349981775     1.007825032230
         H           -2.768546756750    -0.414331519944     0.003773018225     1.007825032230
         H           -1.935662756750     1.236869480056     0.003887018225     1.007825032230

  Basis Set: AUG-CC-PVTZ
    Blend: AUG-CC-PVTZ
  Basis Set: (AUG-CC-PVTZ AUX)
    Blend: AUG-CC-PVTZ-JKFIT
	 Reference Energy          =    -190.8310514071165187 [Eh]
	 Singles Energy            =      -0.0000000000000000 [Eh]
	 Same-Spin Energy          =      -0.1838981808778641 [Eh]
	 Opposite-Spin Energy      =      -0.6066510056897194 [Eh]
	 Correlation Energy        =      -0.7905491865675834 [Eh]
	 Total Energy              =    -191.6216005936840929 [Eh]

	 ================> DF-SCS-MP2 Energies <==================
	-----------------------------------------------------------
	 SCS Same-Spin Scale       =       0.3333333333333333 [-]
	 SCS Opposite-Spin Scale   =       1.2000000000000000 [-]
	 SCS Same-Spin Energy      =      -0.0612993936259547 [Eh]
	 SCS Opposite-Spin Energy  =      -0.7279812068276633 [Eh]
	 SCS Correlation Energy    =      -0.7892806004536180 [Eh]
	 SCS Total Energy          =    -191.6203320075701413 [Eh]
	-----------------------------------------------------------

  Dipole Moment: [D]
     X:    -3.1947      Y:     0.6285      Z:    -0.0753     Total:     3.2568

*** Psi4 exiting successfully. Buy a developer a beer!
