                               Psi4 1.3.2 release

  ==> Input File <==

--------------------------------------------------------------------------
#psi4
#
memory 32 gb

molecule  {
0 1
  O        1.8013450    -0.1222670    -0.0001450
  C       -0.5611510    -0.4520200    -0.0000120
  C        0.6707050     0.3546130    -0.0000040
  C       -1.7652780     0.1406350     0.0001500
  H       -0.4438600    -1.5324100    -0.0001440
  H        0.5134334     1.4540777    -0.0999540
  H       -2.6894370    -0.4270490     0.0001690
  H       -1.8565530     1.2241520     0.0002830
units angstrom
no_reorient  #important for SAPT in psi4, default
symmetry c1  #important for SAPT in psi4, default
}

set PROPERTIES_ORIGIN ["COM"]
properties('MP2/aug-cc-pvtz', properties = ['dipole'])
--------------------------------------------------------------------------

    Molecular point group: c1
  Charge       = 0
  Multiplicity = 1
  Basis Set: AUG-CC-PVTZ
    Blend: AUG-CC-PVTZ
  Basis Set: (AUG-CC-PVTZ AUX)
    Blend: AUG-CC-PVTZ-JKFIT

    Orbital Energies [Eh]
    ---------------------

    Doubly Occupied:

       1A    -20.560368     2A    -11.340981     3A    -11.275215
       4A    -11.260895     5A     -1.383281     6A     -1.089429
       7A     -0.889393     8A     -0.787928     9A     -0.671823
      10A     -0.666310    11A     -0.604026    12A     -0.561047
      13A     -0.538611    14A     -0.434105    15A     -0.400819

  @DF-RHF Final Energy:  -190.83289149904630

   => Energetics <=

    Nuclear Repulsion Energy =            102.5845482081301725
    One-Electron Energy =                -461.9064159065337094
    Two-Electron Energy =                 168.4889761993572392
    Total Energy =                       -190.8328914990462977
  Basis Set: (AUG-CC-PVTZ AUX)
    Blend: AUG-CC-PVTZ-RI
    Molecular point group: c1

    Geometry (in Angstrom), charge = 0, multiplicity = 1:

       Center              X                  Y                   Z               Mass
    ------------   -----------------  -----------------  -----------------  -----------------
         O            1.722235126325    -0.109549397622     0.001660172743    15.994914619570
         C           -0.640260873675    -0.439302397622     0.001793172743    12.000000000000
         C            0.591595126325     0.367330602378     0.001801172743    12.000000000000
         C           -1.844387873675     0.153352602378     0.001955172743    12.000000000000
         H           -0.522969873675    -1.519692397622     0.001661172743     1.007825032230
         H            0.434323526325     1.466795302378    -0.098148827257     1.007825032230
         H           -2.768546873675    -0.414331397622     0.001974172743     1.007825032230
         H           -1.935662873675     1.236869602378     0.002088172743     1.007825032230

  Basis Set: AUG-CC-PVTZ
    Blend: AUG-CC-PVTZ
  Basis Set: (AUG-CC-PVTZ AUX)
    Blend: AUG-CC-PVTZ-JKFIT
	 Reference Energy          =    -190.8328914990462977 [Eh]
	 Singles Energy            =      -0.0000000000000000 [Eh]
	 Same-Spin Energy          =      -0.1837872026797155 [Eh]
	 Opposite-Spin Energy      =      -0.6063927154921950 [Eh]
	 Correlation Energy        =      -0.7901799181719105 [Eh]
	 Total Energy              =    -191.6230714172181990 [Eh]

	 ================> DF-SCS-MP2 Energies <==================
	-----------------------------------------------------------
	 SCS Same-Spin Scale       =       0.3333333333333333 [-]
	 SCS Opposite-Spin Scale   =       1.2000000000000000 [-]
	 SCS Same-Spin Energy      =      -0.0612624008932385 [Eh]
	 SCS Opposite-Spin Energy  =      -0.7276712585906340 [Eh]
	 SCS Correlation Energy    =      -0.7889336594838725 [Eh]
	 SCS Total Energy          =    -191.6218251585301573 [Eh]
	-----------------------------------------------------------

  Dipole Moment: [D]
     X:    -3.2026      Y:     0.6515      Z:    -0.0385     Total:     3.2685

*** Psi4 exiting successfully. Buy a developer a beer!
