                               Psi4 1.3.2 release

  ==> Input File <==

--------------------------------------------------------------------------
#psi4
#
memory 32 gb

molecule  {
0 1
  O        1.8013450    -0.1222670    -0.0001450
  C       -0.5611510    -0.4520200    -0.0000120
  C        0.6707050     0.3546130    -0.0000040
  C       -1.7652780     0.1406350     0.0001500
  H       -0.4438600    -1.5324100    -0.0001440
  H        0.5134301     1.4540811    -0.1499540
  H       -2.6894370    -0.4270490     0.0001690
  H       -1.8565530     1.2241520     0.0002830
units angstrom
no_reorient  #important for SAPT in psi4, default
symmetry c1  #important for SAPT in psi4, default
}

set PROPERTIES_ORIGIN ["COM"]
properties('MP2/aug-cc-pvtz', properties = ['dipole'])
--------------------------------------------------------------------------

    Molecular point group: c1
  Charge       = 0
  Multiplicity = 1
  Basis Set: AUG-CC-PVTZ
    Blend: AUG-CC-PVTZ
  Basis Set: (AUG-CC-PVTZ AUX)
    Blend: AUG-CC-PVTZ-JKFIT

    Orbital Energies [Eh]
    ---------------------

    Doubly Occupied:

       1A    -20.560625     2A    -11.341573     3A    -11.275194
       4A    -11.261011     5A     -1.383452     6A     -1.089406
       7A     -0.889121     8A     -0.787008     9A     -0.671772
      10A     -0.666023    11A     -0.603955    12A     -0.561156
      13A     -0.538497    14A     -0.433840    15A     -0.400803

  @DF-RHF Final Energy:  -190.83214042564941

   => Energetics <=

    Nuclear Repulsion Energy =            102.5638353525097415
    One-Electron Energy =                -461.8650774673925525
    Two-Electron Energy =                 168.4691016892334119
    Total Energy =                       -190.8321404256494134
  Basis Set: (AUG-CC-PVTZ AUX)
    Blend: AUG-CC-PVTZ-RI
    Molecular point group: c1

    Geometry (in Angstrom), charge = 0, multiplicity = 1:

       Center              X                  Y                   Z               Mass
    ------------   -----------------  -----------------  -----------------  -----------------
         O            1.722235185687    -0.109549458783     0.002559595484    15.994914619570
         C           -0.640260814313    -0.439302458783     0.002692595484    12.000000000000
         C            0.591595185687     0.367330541217     0.002700595484    12.000000000000
         C           -1.844387814313     0.153352541217     0.002854595484    12.000000000000
         H           -0.522969814313    -1.519692458783     0.002560595484     1.007825032230
         H            0.434320285687     1.466798641217    -0.147249404516     1.007825032230
         H           -2.768546814313    -0.414331458783     0.002873595484     1.007825032230
         H           -1.935662814313     1.236869541217     0.002987595484     1.007825032230

  Basis Set: AUG-CC-PVTZ
    Blend: AUG-CC-PVTZ
  Basis Set: (AUG-CC-PVTZ AUX)
    Blend: AUG-CC-PVTZ-JKFIT
	 Reference Energy          =    -190.8321404256494134 [Eh]
	 Singles Energy            =      -0.0000000000000000 [Eh]
	 Same-Spin Energy          =      -0.1838335147248673 [Eh]
	 Opposite-Spin Energy      =      -0.6064986468708523 [Eh]
	 Correlation Energy        =      -0.7903321615957196 [Eh]
	 Total Energy              =    -191.6224725872451415 [Eh]

	 ================> DF-SCS-MP2 Energies <==================
	-----------------------------------------------------------
	 SCS Same-Spin Scale       =       0.3333333333333333 [-]
	 SCS Opposite-Spin Scale   =       1.2000000000000000 [-]
	 SCS Same-Spin Energy      =      -0.0612778382416224 [Eh]
	 SCS Opposite-Spin Energy  =      -0.7277983762450227 [Eh]
	 SCS Correlation Energy    =      -0.7890762144866452 [Eh]
	 SCS Total Energy          =    -191.6212166401360548 [Eh]
	-----------------------------------------------------------

  Dipole Moment: [D]
     X:    -3.1993      Y:     0.6419      Z:    -0.0573     Total:     3.2636

*** Psi4 exiting successfully. Buy a developer a beer!
