                               Psi4 1.3.2 release

  ==> Input File <==

--------------------------------------------------------------------------
#psi4
#
memory 32 gb

molecule  {
0 1
  O        1.8013450    -0.1222670    -0.0001450
  C       -0.5611510    -0.4520200    -0.0000120
  C        0.6707050     0.3546130    -0.0000040
  C       -1.7652780     0.1406350     0.0001500
  H       -0.4438563    -1.5324159     0.0498560
  H        0.5134400     1.4540710     0.0000460
  H       -2.6894370    -0.4270490     0.0001690
  H       -1.8565530     1.2241520     0.0002830
units angstrom
no_reorient  #important for SAPT in psi4, default
symmetry c1  #important for SAPT in psi4, default
}

set PROPERTIES_ORIGIN ["COM"]
properties('MP2/aug-cc-pvtz', properties = ['dipole'])
--------------------------------------------------------------------------

    Molecular point group: c1
  Charge       = 0
  Multiplicity = 1
  Basis Set: AUG-CC-PVTZ
    Blend: AUG-CC-PVTZ
  Basis Set: (AUG-CC-PVTZ AUX)
    Blend: AUG-CC-PVTZ-JKFIT

    Orbital Energies [Eh]
    ---------------------

    Doubly Occupied:

       1A    -20.560164     2A    -11.340507     3A    -11.275264
       4A    -11.260909     5A     -1.383142     6A     -1.089432
       7A     -0.889623     8A     -0.788514     9A     -0.671863
      10A     -0.666484    11A     -0.604055    12A     -0.560929
      13A     -0.538586    14A     -0.434329    15A     -0.400787

  @DF-RHF Final Energy:  -190.83332033682657

   => Energetics <=

    Nuclear Repulsion Energy =            102.5970531552366509
    One-Electron Energy =                -461.9315709808853967
    Two-Electron Energy =                 168.5011974888221573
    Total Energy =                       -190.8333203368265742
  Basis Set: (AUG-CC-PVTZ AUX)
    Blend: AUG-CC-PVTZ-RI
    Molecular point group: c1

    Geometry (in Angstrom), charge = 0, multiplicity = 1:

       Center              X                  Y                   Z               Mass
    ------------   -----------------  -----------------  -----------------  -----------------
         O            1.722234941044    -0.109549170968    -0.001038095478    15.994914619570
         C           -0.640261058956    -0.439302170968    -0.000905095478    12.000000000000
         C            0.591594941044     0.367330829032    -0.000897095478    12.000000000000
         C           -1.844388058956     0.153352829032    -0.000743095478    12.000000000000
         H           -0.522966358956    -1.519698070968     0.048962904522     1.007825032230
         H            0.434329941044     1.466788829032    -0.000847095478     1.007825032230
         H           -2.768547058956    -0.414331170968    -0.000724095478     1.007825032230
         H           -1.935663058956     1.236869829032    -0.000610095478     1.007825032230

  Basis Set: AUG-CC-PVTZ
    Blend: AUG-CC-PVTZ
  Basis Set: (AUG-CC-PVTZ AUX)
    Blend: AUG-CC-PVTZ-JKFIT
	 Reference Energy          =    -190.8333203368265742 [Eh]
	 Singles Energy            =      -0.0000000000000000 [Eh]
	 Same-Spin Energy          =      -0.1837566252230041 [Eh]
	 Opposite-Spin Energy      =      -0.6063269727112854 [Eh]
	 Correlation Energy        =      -0.7900835979342895 [Eh]
	 Total Energy              =    -191.6234039347608586 [Eh]

	 ================> DF-SCS-MP2 Energies <==================
	-----------------------------------------------------------
	 SCS Same-Spin Scale       =       0.3333333333333333 [-]
	 SCS Opposite-Spin Scale   =       1.2000000000000000 [-]
	 SCS Same-Spin Energy      =      -0.0612522084076680 [Eh]
	 SCS Opposite-Spin Energy  =      -0.7275923672535425 [Eh]
	 SCS Correlation Energy    =      -0.7888445756612105 [Eh]
	 SCS Total Energy          =    -191.6221649124877899 [Eh]
	-----------------------------------------------------------

  Dipole Moment: [D]
     X:    -3.2055      Y:     0.6603      Z:     0.0362     Total:     3.2730

*** Psi4 exiting successfully. Buy a developer a beer!
