                               Psi4 1.3.2 release

  ==> Input File <==

--------------------------------------------------------------------------
#psi4
#
memory 32 gb

molecule  {
0 1
  O        1.8013450    -0.1222670    -0.0001450
  C       -0.5611510    -0.4520200    -0.0000120
  C        0.6707050     0.3546130    -0.0000040
  C       -1.7652780     0.1406350     0.0001500
  H       -0.4438600    -1.5324100    -0.0001440
  H        0.5134203     1.4540912    -0.2999540
  H       -2.6894370    -0.4270490     0.0001690
  H       -1.8565530     1.2241520     0.0002830
units angstrom
no_reorient  #important for SAPT in psi4, default
symmetry c1  #important for SAPT in psi4, default
}

set PROPERTIES_ORIGIN ["COM"]
properties('MP2/aug-cc-pvtz', properties = ['dipole'])
--------------------------------------------------------------------------

    Molecular point group: c1
  Charge       = 0
  Multiplicity = 1
  Basis Set: AUG-CC-PVTZ
    Blend: AUG-CC-PVTZ
  Basis Set: (AUG-CC-PVTZ AUX)
    Blend: AUG-CC-PVTZ-JKFIT

    Orbital Energies [Eh]
    ---------------------

    Doubly Occupied:

       1A    -20.562011     2A    -11.344700     3A    -11.275108
       4A    -11.261646     5A     -1.384379     6A     -1.089322
       7A     -0.887859     8A     -0.782375     9A     -0.671751
      10A     -0.664277    11A     -0.603529    12A     -0.561717
      13A     -0.537982    14A     -0.432400    15A     -0.400683

  @DF-RHF Final Energy:  -190.82772672095587

   => Energetics <=

    Nuclear Repulsion Energy =            102.4559422604204570
    One-Electron Energy =                -461.6478582005157136
    Two-Electron Energy =                 168.3641892191394049
    Total Energy =                       -190.8277267209558659
  Basis Set: (AUG-CC-PVTZ AUX)
    Blend: AUG-CC-PVTZ-RI
    Molecular point group: c1

    Geometry (in Angstrom), charge = 0, multiplicity = 1:

       Center              X                  Y                   Z               Mass
    ------------   -----------------  -----------------  -----------------  -----------------
         O            1.722235361974    -0.109549640466     0.005257863706    15.994914619570
         C           -0.640260638026    -0.439302640466     0.005390863706    12.000000000000
         C            0.591595361974     0.367330359534     0.005398863706    12.000000000000
         C           -1.844387638026     0.153352359534     0.005552863706    12.000000000000
         H           -0.522969638026    -1.519692640466     0.005258863706     1.007825032230
         H            0.434310661974     1.466808559534    -0.294551136294     1.007825032230
         H           -2.768546638026    -0.414331640466     0.005571863706     1.007825032230
         H           -1.935662638026     1.236869359534     0.005685863706     1.007825032230

  Basis Set: AUG-CC-PVTZ
    Blend: AUG-CC-PVTZ
  Basis Set: (AUG-CC-PVTZ AUX)
    Blend: AUG-CC-PVTZ-JKFIT
	 Reference Energy          =    -190.8277267209558659 [Eh]
	 Singles Energy            =      -0.0000000000000000 [Eh]
	 Same-Spin Energy          =      -0.1840818454015599 [Eh]
	 Opposite-Spin Energy      =      -0.6071040151316753 [Eh]
	 Correlation Energy        =      -0.7911858605332353 [Eh]
	 Total Energy              =    -191.6189125814890986 [Eh]

	 ================> DF-SCS-MP2 Energies <==================
	-----------------------------------------------------------
	 SCS Same-Spin Scale       =       0.3333333333333333 [-]
	 SCS Opposite-Spin Scale   =       1.2000000000000000 [-]
	 SCS Same-Spin Energy      =      -0.0613606151338533 [Eh]
	 SCS Opposite-Spin Energy  =      -0.7285248181580104 [Eh]
	 SCS Correlation Energy    =      -0.7898854332918637 [Eh]
	 SCS Total Energy          =    -191.6176121542477233 [Eh]
	-----------------------------------------------------------

  Dipole Moment: [D]
     X:    -3.1819      Y:     0.5900      Z:    -0.1081     Total:     3.2380

*** Psi4 exiting successfully. Buy a developer a beer!
