                               Psi4 1.3.2 release

  ==> Input File <==

--------------------------------------------------------------------------
#psi4
#
memory 32 gb

molecule  {
0 1
  O        1.8013450    -0.1222670    -0.0001450
  C       -0.5611510    -0.4520200    -0.0000120
  C        0.6707050     0.3546130    -0.0000040
  C       -1.7652780     0.1406350     0.0001500
  H       -0.4438453    -1.5324335     0.1998560
  H        0.5134400     1.4540710     0.0000460
  H       -2.6894370    -0.4270490     0.0001690
  H       -1.8565530     1.2241520     0.0002830
units angstrom
no_reorient  #important for SAPT in psi4, default
symmetry c1  #important for SAPT in psi4, default
}

set PROPERTIES_ORIGIN ["COM"]
properties('MP2/aug-cc-pvtz', properties = ['dipole'])
--------------------------------------------------------------------------

    Molecular point group: c1
  Charge       = 0
  Multiplicity = 1
  Basis Set: AUG-CC-PVTZ
    Blend: AUG-CC-PVTZ
  Basis Set: (AUG-CC-PVTZ AUX)
    Blend: AUG-CC-PVTZ-JKFIT

    Orbital Energies [Eh]
    ---------------------

    Doubly Occupied:

       1A    -20.560194     2A    -11.340543     3A    -11.275731
       4A    -11.262492     5A     -1.383124     6A     -1.089194
       7A     -0.889668     8A     -0.786165     9A     -0.671707
      10A     -0.665809    11A     -0.603682    12A     -0.560458
      13A     -0.536770    14A     -0.434510    15A     -0.400133

  @DF-RHF Final Energy:  -190.83085024853969

   => Energetics <=

    Nuclear Repulsion Energy =            102.5346423520964407
    One-Electron Energy =                -461.8106246217330408
    Two-Electron Energy =                 168.4451320210968959
    Total Energy =                       -190.8308502485396900
  Basis Set: (AUG-CC-PVTZ AUX)
    Blend: AUG-CC-PVTZ-RI
    Molecular point group: c1

    Geometry (in Angstrom), charge = 0, multiplicity = 1:

       Center              X                  Y                   Z               Mass
    ------------   -----------------  -----------------  -----------------  -----------------
         O            1.722234743171    -0.109548854371    -0.003736363700    15.994914619570
         C           -0.640261256829    -0.439301854371    -0.003603363700    12.000000000000
         C            0.591594743171     0.367331145629    -0.003595363700    12.000000000000
         C           -1.844388256829     0.153353145629    -0.003441363700    12.000000000000
         H           -0.522955556829    -1.519715354371     0.196264636300     1.007825032230
         H            0.434329743171     1.466789145629    -0.003545363700     1.007825032230
         H           -2.768547256829    -0.414330854371    -0.003422363700     1.007825032230
         H           -1.935663256829     1.236870145629    -0.003308363700     1.007825032230

  Basis Set: AUG-CC-PVTZ
    Blend: AUG-CC-PVTZ
  Basis Set: (AUG-CC-PVTZ AUX)
    Blend: AUG-CC-PVTZ-JKFIT
	 Reference Energy          =    -190.8308502485396900 [Eh]
	 Singles Energy            =      -0.0000000000000000 [Eh]
	 Same-Spin Energy          =      -0.1838542168498888 [Eh]
	 Opposite-Spin Energy      =      -0.6065973582073423 [Eh]
	 Correlation Energy        =      -0.7904515750572312 [Eh]
	 Total Energy              =    -191.6213018235969230 [Eh]

	 ================> DF-SCS-MP2 Energies <==================
	-----------------------------------------------------------
	 SCS Same-Spin Scale       =       0.3333333333333333 [-]
	 SCS Opposite-Spin Scale   =       1.2000000000000000 [-]
	 SCS Same-Spin Energy      =      -0.0612847389499629 [Eh]
	 SCS Opposite-Spin Energy  =      -0.7279168298488107 [Eh]
	 SCS Correlation Energy    =      -0.7892015687987737 [Eh]
	 SCS Total Energy          =    -191.6200518173384637 [Eh]
	-----------------------------------------------------------

  Dipole Moment: [D]
     X:    -3.2083      Y:     0.6775      Z:     0.1428     Total:     3.2822

*** Psi4 exiting successfully. Buy a developer a beer!
