                               Psi4 1.3.2 release

  ==> Input File <==

--------------------------------------------------------------------------
#psi4
#
memory 32 gb

molecule  {
0 1
  O        1.8013450    -0.1222670    -0.0001450
  C       -0.5611510    -0.4520200    -0.0000120
  C        0.6707050     0.3546130    -0.0000040
  C       -1.7652780     0.1406350     0.0001500
  H       -0.4438600    -1.5324100    -0.0001440
  H        0.5134367     1.4540744    -0.0499540
  H       -2.6894370    -0.4270490     0.0001690
  H       -1.8565530     1.2241520     0.0002830
units angstrom
no_reorient  #important for SAPT in psi4, default
symmetry c1  #important for SAPT in psi4, default
}

set PROPERTIES_ORIGIN ["COM"]
properties('MP2/aug-cc-pvtz', properties = ['dipole'])
--------------------------------------------------------------------------

    Molecular point group: c1
  Charge       = 0
  Multiplicity = 1
  Basis Set: AUG-CC-PVTZ
    Blend: AUG-CC-PVTZ
  Basis Set: (AUG-CC-PVTZ AUX)
    Blend: AUG-CC-PVTZ-JKFIT

    Orbital Energies [Eh]
    ---------------------

    Doubly Occupied:

       1A    -20.560214     2A    -11.340624     3A    -11.275228
       4A    -11.260826     5A     -1.383178     6A     -1.089444
       7A     -0.889563     8A     -0.788489     9A     -0.671863
      10A     -0.666475    11A     -0.604068    12A     -0.560981
      13A     -0.538682    14A     -0.434264    15A     -0.400828

  @DF-RHF Final Energy:  -190.83333090519838

   => Energetics <=

    Nuclear Repulsion Energy =            102.5970928855121258
    One-Electron Energy =                -461.9313947959615803
    Two-Electron Energy =                 168.5009710052510457
    Total Energy =                       -190.8333309051983804
  Basis Set: (AUG-CC-PVTZ AUX)
    Blend: AUG-CC-PVTZ-RI
    Molecular point group: c1

    Geometry (in Angstrom), charge = 0, multiplicity = 1:

       Center              X                  Y                   Z               Mass
    ------------   -----------------  -----------------  -----------------  -----------------
         O            1.722235066963    -0.109549338260     0.000760750003    15.994914619570
         C           -0.640260933037    -0.439302338260     0.000893750003    12.000000000000
         C            0.591595066963     0.367330661740     0.000901750003    12.000000000000
         C           -1.844387933037     0.153352661740     0.001055750003    12.000000000000
         H           -0.522969933037    -1.519692338260     0.000761750003     1.007825032230
         H            0.434326766963     1.466792061740    -0.049048249997     1.007825032230
         H           -2.768546933037    -0.414331338260     0.001074750003     1.007825032230
         H           -1.935662933037     1.236869661740     0.001188750003     1.007825032230

  Basis Set: AUG-CC-PVTZ
    Blend: AUG-CC-PVTZ
  Basis Set: (AUG-CC-PVTZ AUX)
    Blend: AUG-CC-PVTZ-JKFIT
	 Reference Energy          =    -190.8333309051983804 [Eh]
	 Singles Energy            =      -0.0000000000000000 [Eh]
	 Same-Spin Energy          =      -0.1837593617784662 [Eh]
	 Opposite-Spin Energy      =      -0.6063305940269390 [Eh]
	 Correlation Energy        =      -0.7900899558054053 [Eh]
	 Total Energy              =    -191.6234208610037797 [Eh]

	 ================> DF-SCS-MP2 Energies <==================
	-----------------------------------------------------------
	 SCS Same-Spin Scale       =       0.3333333333333333 [-]
	 SCS Opposite-Spin Scale   =       1.2000000000000000 [-]
	 SCS Same-Spin Energy      =      -0.0612531205928221 [Eh]
	 SCS Opposite-Spin Energy  =      -0.7275967128323267 [Eh]
	 SCS Correlation Energy    =      -0.7888498334251488 [Eh]
	 SCS Total Energy          =    -191.6221807386235412 [Eh]
	-----------------------------------------------------------

  Dipole Moment: [D]
     X:    -3.2047      Y:     0.6572      Z:    -0.0192     Total:     3.2714

*** Psi4 exiting successfully. Buy a developer a beer!
