                               Psi4 1.3.2 release

  ==> Input File <==

--------------------------------------------------------------------------
#psi4
#
memory 32 gb

molecule  {
0 1
  O        1.8013450    -0.1222670    -0.0001450
  C       -0.5611510    -0.4520200    -0.0000120
  C        0.6707050     0.3546130    -0.0000040
  C       -1.7652780     0.1406350     0.0001500
  H       -0.4438379    -1.5324453     0.2998560
  H        0.5134400     1.4540710     0.0000460
  H       -2.6894370    -0.4270490     0.0001690
  H       -1.8565530     1.2241520     0.0002830
units angstrom
no_reorient  #important for SAPT in psi4, default
symmetry c1  #important for SAPT in psi4, default
}

set PROPERTIES_ORIGIN ["COM"]
properties('MP2/aug-cc-pvtz', properties = ['dipole'])
--------------------------------------------------------------------------

    Molecular point group: c1
  Charge       = 0
  Multiplicity = 1
  Basis Set: AUG-CC-PVTZ
    Blend: AUG-CC-PVTZ
  Basis Set: (AUG-CC-PVTZ AUX)
    Blend: AUG-CC-PVTZ-JKFIT

    Orbital Energies [Eh]
    ---------------------

    Doubly Occupied:

       1A    -20.560236     2A    -11.340606     3A    -11.276353
       4A    -11.264541     5A     -1.383107     6A     -1.088921
       7A     -0.889751     8A     -0.783329     9A     -0.671621
      10A     -0.664903    11A     -0.603240    12A     -0.559763
      13A     -0.534341    14A     -0.434738    15A     -0.399309

  @DF-RHF Final Energy:  -190.82720641472645

   => Energetics <=

    Nuclear Repulsion Energy =            102.4548497595267236
    One-Electron Energy =                -461.6545975405157378
    Two-Electron Energy =                 168.3725413662625670
    Total Energy =                       -190.8272064147264473
  Basis Set: (AUG-CC-PVTZ AUX)
    Blend: AUG-CC-PVTZ-RI
    Molecular point group: c1

    Geometry (in Angstrom), charge = 0, multiplicity = 1:

       Center              X                  Y                   Z               Mass
    ------------   -----------------  -----------------  -----------------  -----------------
         O            1.722234610057    -0.109548642107    -0.005535209181    15.994914619570
         C           -0.640261389943    -0.439301642107    -0.005402209181    12.000000000000
         C            0.591594610057     0.367331357893    -0.005394209181    12.000000000000
         C           -1.844388389943     0.153353357893    -0.005240209181    12.000000000000
         H           -0.522948289943    -1.519726942107     0.294465790819     1.007825032230
         H            0.434329610057     1.466789357893    -0.005344209181     1.007825032230
         H           -2.768547389943    -0.414330642107    -0.005221209181     1.007825032230
         H           -1.935663389943     1.236870357893    -0.005107209181     1.007825032230

  Basis Set: AUG-CC-PVTZ
    Blend: AUG-CC-PVTZ
  Basis Set: (AUG-CC-PVTZ AUX)
    Blend: AUG-CC-PVTZ-JKFIT
	 Reference Energy          =    -190.8272064147264473 [Eh]
	 Singles Energy            =      -0.0000000000000000 [Eh]
	 Same-Spin Energy          =      -0.1839814681730494 [Eh]
	 Opposite-Spin Energy      =      -0.6069778477360075 [Eh]
	 Correlation Energy        =      -0.7909593159090569 [Eh]
	 Total Energy              =    -191.6181657306354964 [Eh]

	 ================> DF-SCS-MP2 Energies <==================
	-----------------------------------------------------------
	 SCS Same-Spin Scale       =       0.3333333333333333 [-]
	 SCS Opposite-Spin Scale   =       1.2000000000000000 [-]
	 SCS Same-Spin Energy      =      -0.0613271560576831 [Eh]
	 SCS Opposite-Spin Energy  =      -0.7283734172832089 [Eh]
	 SCS Correlation Energy    =      -0.7897005733408921 [Eh]
	 SCS Total Energy          =    -191.6169069880673419 [Eh]
	-----------------------------------------------------------

  Dipole Moment: [D]
     X:    -3.2118      Y:     0.6999      Z:     0.2118     Total:     3.2940

*** Psi4 exiting successfully. Buy a developer a beer!
