                               Psi4 1.4a2.dev612

  ==> Input File <==

--------------------------------------------------------------------------
#psi4
#
memory 32 gb

molecule  {
-1 1
  O       -2.9259140    -0.9099280    -0.5693610
  O       -2.5318610     1.2678500    -0.0507790
  C        2.5515340     0.1562790    -0.6847320
  C        1.3133740    -0.4576390    -0.0973370
  C        0.1996320     0.2215300     0.2212070
  C       -0.9237276    -0.3531180     0.6636067
  C        3.7521530     0.0645780     0.2634350
  C       -2.2854840     0.0250790    -0.0044070
  H        2.8053070    -0.3466590    -1.6276820
  H        2.3518550     1.2059430    -0.9306210
  H        1.3523840    -1.5323490     0.0963350
  H        0.1538580     1.2934970     0.0216010
  H       -0.9504340    -1.4608690     0.8884060
  H       -1.1707130     0.0247460     1.8437960
  H        3.9732670    -0.9779260     0.5120620
  H        3.5426510     0.5954950     1.1964510
  H        4.6498360     0.5017940    -0.1852730
units angstrom
no_reorient  #important for SAPT in psi4, default
symmetry c1  #important for SAPT in psi4, default
}

set PROPERTIES_ORIGIN ["COM"]
properties('MP2/aug-cc-pvtz', properties = ['dipole'])
--------------------------------------------------------------------------

    Molecular point group: c1
  Charge       = -1
  Multiplicity = 1
  Basis Set: AUG-CC-PVTZ
    Blend: AUG-CC-PVTZ
  Basis Set: (AUG-CC-PVTZ AUX)
    Blend: AUG-CC-PVTZ-JKFIT

    Orbital Energies [Eh]
    ---------------------

    Doubly Occupied:

       1A    -20.301776     2A    -20.298067     3A    -11.149992
       4A    -11.122800     5A    -11.120503     6A    -11.094354
       7A    -11.091072     8A    -11.077693     9A     -1.168409
      10A     -1.067602    11A     -0.978971    12A     -0.920620
      13A     -0.807295    14A     -0.716510    15A     -0.626774
      16A     -0.546602    17A     -0.517081    18A     -0.498991
      19A     -0.465743    20A     -0.444375    21A     -0.422344
      22A     -0.414361    23A     -0.400594    24A     -0.384810
      25A     -0.370765    26A     -0.349683    27A     -0.319225
      28A     -0.238845    29A     -0.212188    30A     -0.197956
      31A     -0.177625

  @DF-RHF Final Energy:  -382.29275500022311

   => Energetics <=

    Nuclear Repulsion Energy =            340.8413909451443260
    One-Electron Energy =               -1207.2610341060935752
    Two-Electron Energy =                 484.1268881607261392
    Total Energy =                       -382.2927550002231101
  Basis Set: (AUG-CC-PVTZ AUX)
    Blend: AUG-CC-PVTZ-RI
    Molecular point group: c1

    Geometry (in Angstrom), charge = -1, multiplicity = 1:

       Center              X                  Y                   Z               Mass
    ------------   -----------------  -----------------  -----------------  -----------------
         O           -2.791754416896    -0.917920756121    -0.536205794863    15.994914619570
         O           -2.397701416896     1.259857243879    -0.017623794863    15.994914619570
         C            2.685693583104     0.148286243879    -0.651576794863    12.000000000000
         C            1.447533583104    -0.465631756121    -0.064181794863    12.000000000000
         C            0.333791583104     0.213537243879     0.254362205137    12.000000000000
         C           -0.789568016896    -0.361110756121     0.696761905137    12.000000000000
         C            3.886312583104     0.056585243879     0.296590205137    12.000000000000
         C           -2.151324416896     0.017086243879     0.028748205137    12.000000000000
         H            2.939466583104    -0.354651756121    -1.594526794863     1.007825032230
         H            2.486014583104     1.197950243879    -0.897465794863     1.007825032230
         H            1.486543583104    -1.540341756121     0.129490205137     1.007825032230
         H            0.288017583104     1.285504243879     0.054756205137     1.007825032230
         H           -0.816274416896    -1.468861756121     0.921561205137     1.007825032230
         H           -1.036553416896     0.016753243879     1.876951205137     1.007825032230
         H            4.107426583104    -0.985918756121     0.545217205137     1.007825032230
         H            3.676810583104     0.587502243879     1.229606205137     1.007825032230
         H            4.783995583104     0.493801243879    -0.152117794863     1.007825032230

  Basis Set: AUG-CC-PVTZ
    Blend: AUG-CC-PVTZ
  Basis Set: (AUG-CC-PVTZ AUX)
    Blend: AUG-CC-PVTZ-JKFIT
	 Reference Energy          =    -382.2927550002231101 [Eh]
	 Singles Energy            =      -0.0000000000000000 [Eh]
	 Same-Spin Energy          =      -0.3938806794317292 [Eh]
	 Opposite-Spin Energy      =      -1.2632592168193115 [Eh]
	 Correlation Energy        =      -1.6571398962510409 [Eh]
	 Total Energy              =    -383.9498948964741771 [Eh]

	 ================> DF-SCS-MP2 Energies <==================
	-----------------------------------------------------------
	 SCS Same-Spin Scale       =       0.3333333333333333 [-]
	 SCS Opposite-Spin Scale   =       1.2000000000000000 [-]
	 SCS Same-Spin Energy      =      -0.1312935598105764 [Eh]
	 SCS Opposite-Spin Energy  =      -1.5159110601831738 [Eh]
	 SCS Correlation Energy    =      -1.6472046199937502 [Eh]
	 SCS Total Energy          =    -383.9399596202168823 [Eh]
	-----------------------------------------------------------

  Dipole Moment: [D]
     X:    10.5296      Y:    -0.6995      Z:     1.3953     Total:    10.6447

*** Psi4 exiting successfully. Buy a developer a beer!
