                               Psi4 1.4a2.dev612

  ==> Input File <==

--------------------------------------------------------------------------
#psi4
#
memory 32 gb

molecule  {
-1 1
  O       -2.9259140    -0.9099280    -0.5693610
  O       -2.5318610     1.2678500    -0.0507790
  C        2.5515340     0.1562790    -0.6847320
  C        1.3133740    -0.4576390    -0.0973370
  C        0.1996320     0.2215300     0.2212070
  C       -0.9525067    -0.3575885     0.7042488
  C        3.7521530     0.0645780     0.2634350
  C       -2.2854840     0.0250790    -0.0044070
  H        2.8053070    -0.3466590    -1.6276820
  H        2.3518550     1.2059430    -0.9306210
  H        1.3523840    -1.5323490     0.0963350
  H        0.1538580     1.2934970     0.0216010
  H       -0.9504340    -1.4608690     0.8884060
  H       -1.1707130     0.0247460     1.8437960
  H        3.9732670    -0.9779260     0.5120620
  H        3.5426510     0.5954950     1.1964510
  H        4.6498360     0.5017940    -0.1852730
units angstrom
no_reorient  #important for SAPT in psi4, default
symmetry c1  #important for SAPT in psi4, default
}

set PROPERTIES_ORIGIN ["COM"]
properties('MP2/aug-cc-pvtz', properties = ['dipole'])
--------------------------------------------------------------------------

    Molecular point group: c1
  Charge       = -1
  Multiplicity = 1
  Basis Set: AUG-CC-PVTZ
    Blend: AUG-CC-PVTZ
  Basis Set: (AUG-CC-PVTZ AUX)
    Blend: AUG-CC-PVTZ-JKFIT

    Orbital Energies [Eh]
    ---------------------

    Doubly Occupied:

       1A    -20.300426     2A    -20.297298     3A    -11.147814
       4A    -11.123050     5A    -11.120756     6A    -11.095070
       7A    -11.093294     8A    -11.075130     9A     -1.167478
      10A     -1.066627    11A     -0.975201    12A     -0.915449
      13A     -0.807062    14A     -0.718143    15A     -0.625661
      16A     -0.542319    17A     -0.516170    18A     -0.499202
      19A     -0.462955    20A     -0.443440    21A     -0.423401
      22A     -0.415180    23A     -0.400647    24A     -0.384257
      25A     -0.370900    26A     -0.349690    27A     -0.322096
      28A     -0.239207    29A     -0.211863    30A     -0.197139
      31A     -0.181393

  @DF-RHF Final Energy:  -382.31034505774136

   => Energetics <=

    Nuclear Repulsion Energy =            340.3404090011200651
    One-Electron Energy =               -1206.3248741446182066
    Two-Electron Energy =                 483.6741200857567833
    Total Energy =                       -382.3103450577413582
  Basis Set: (AUG-CC-PVTZ AUX)
    Blend: AUG-CC-PVTZ-RI
    Molecular point group: c1

    Geometry (in Angstrom), charge = -1, multiplicity = 1:

       Center              X                  Y                   Z               Mass
    ------------   -----------------  -----------------  -----------------  -----------------
         O           -2.788699858056    -0.917446265769    -0.540519469920    15.994914619570
         O           -2.394646858056     1.260331734231    -0.021937469920    15.994914619570
         C            2.688748141944     0.148760734231    -0.655890469920    12.000000000000
         C            1.450588141944    -0.465157265769    -0.068495469920    12.000000000000
         C            0.336846141944     0.214011734231     0.250048530080    12.000000000000
         C           -0.815292558056    -0.365106765769     0.733090330080    12.000000000000
         C            3.889367141944     0.057059734231     0.292276530080    12.000000000000
         C           -2.148269858056     0.017560734231     0.024434530080    12.000000000000
         H            2.942521141944    -0.354177265769    -1.598840469920     1.007825032230
         H            2.489069141944     1.198424734231    -0.901779469920     1.007825032230
         H            1.489598141944    -1.539867265769     0.125176530080     1.007825032230
         H            0.291072141944     1.285978734231     0.050442530080     1.007825032230
         H           -0.813219858056    -1.468387265769     0.917247530080     1.007825032230
         H           -1.033498858056     0.017227734231     1.872637530080     1.007825032230
         H            4.110481141944    -0.985444265769     0.540903530080     1.007825032230
         H            3.679865141944     0.587976734231     1.225292530080     1.007825032230
         H            4.787050141944     0.494275734231    -0.156431469920     1.007825032230

  Basis Set: AUG-CC-PVTZ
    Blend: AUG-CC-PVTZ
  Basis Set: (AUG-CC-PVTZ AUX)
    Blend: AUG-CC-PVTZ-JKFIT
	 Reference Energy          =    -382.3103450577413582 [Eh]
	 Singles Energy            =      -0.0000000000000000 [Eh]
	 Same-Spin Energy          =      -0.3928689204422746 [Eh]
	 Opposite-Spin Energy      =      -1.2618336269570414 [Eh]
	 Correlation Energy        =      -1.6547025473993160 [Eh]
	 Total Energy              =    -383.9650476051406827 [Eh]

	 ================> DF-SCS-MP2 Energies <==================
	-----------------------------------------------------------
	 SCS Same-Spin Scale       =       0.3333333333333333 [-]
	 SCS Opposite-Spin Scale   =       1.2000000000000000 [-]
	 SCS Same-Spin Energy      =      -0.1309563068140915 [Eh]
	 SCS Opposite-Spin Energy  =      -1.5142003523484495 [Eh]
	 SCS Correlation Energy    =      -1.6451566591625411 [Eh]
	 SCS Total Energy          =    -383.9555017169038820 [Eh]
	-----------------------------------------------------------

  Dipole Moment: [D]
     X:    10.5901      Y:    -0.7069      Z:     1.4723     Total:    10.7153

*** Psi4 exiting successfully. Buy a developer a beer!
