                               Psi4 1.4a2.dev612

  ==> Input File <==

--------------------------------------------------------------------------
#psi4
#
memory 32 gb

molecule  {
-1 1
  O       -2.9259140    -0.9099280    -0.5693610
  O       -2.5318610     1.2678500    -0.0507790
  C        2.5515340     0.1562790    -0.6847320
  C        1.3133740    -0.4576390    -0.0973370
  C        0.1996320     0.2215300     0.2212070
  C       -1.0388440    -0.3710000     0.8261750
  C        3.7521530     0.0645780     0.2634350
  C       -2.2854840     0.0250790    -0.0044070
  H        2.8053070    -0.3466590    -1.6276820
  H        2.3518550     1.2059430    -0.9306210
  H        1.3523840    -1.5323490     0.0963350
  H        0.0990734     1.2665270    -0.1154073
  H       -0.9504340    -1.4608690     0.8884060
  H       -1.1707130     0.0247460     1.8437960
  H        3.9732670    -0.9779260     0.5120620
  H        3.5426510     0.5954950     1.1964510
  H        4.6498360     0.5017940    -0.1852730
units angstrom
no_reorient  #important for SAPT in psi4, default
symmetry c1  #important for SAPT in psi4, default
}

set PROPERTIES_ORIGIN ["COM"]
properties('MP2/aug-cc-pvtz', properties = ['dipole'])
--------------------------------------------------------------------------

    Molecular point group: c1
  Charge       = -1
  Multiplicity = 1
  Basis Set: AUG-CC-PVTZ
    Blend: AUG-CC-PVTZ
  Basis Set: (AUG-CC-PVTZ AUX)
    Blend: AUG-CC-PVTZ-JKFIT

    Orbital Energies [Eh]
    ---------------------

    Doubly Occupied:

       1A    -20.297954     2A    -20.296041     3A    -11.144083
       4A    -11.123747     5A    -11.121464     6A    -11.100542
       7A    -11.096069     8A    -11.069497     9A     -1.165786
      10A     -1.064952    11A     -0.968755    12A     -0.900483
      13A     -0.806922    14A     -0.722290    15A     -0.620733
      16A     -0.533689    17A     -0.514648    18A     -0.498855
      19A     -0.452989    20A     -0.442481    21A     -0.433610
      22A     -0.414763    23A     -0.400148    24A     -0.383076
      25A     -0.373313    26A     -0.348293    27A     -0.323992
      28A     -0.237779    29A     -0.211296    30A     -0.195752
      31A     -0.189099

  @DF-RHF Final Energy:  -382.33153781213275

   => Energetics <=

    Nuclear Repulsion Energy =            338.8590562980022582
    One-Electron Energy =               -1203.4749855166892303
    Two-Electron Energy =                 482.2843914065541640
    Total Energy =                       -382.3315378121327512
  Basis Set: (AUG-CC-PVTZ AUX)
    Blend: AUG-CC-PVTZ-RI
    Molecular point group: c1

    Geometry (in Angstrom), charge = -1, multiplicity = 1:

       Center              X                  Y                   Z               Mass
    ------------   -----------------  -----------------  -----------------  -----------------
         O           -2.779047828739    -0.915782382719    -0.552239185316    15.994914619570
         O           -2.384994828739     1.261995617281    -0.033657185316    15.994914619570
         C            2.698400171261     0.150424617281    -0.667610185316    12.000000000000
         C            1.460240171261    -0.463493382719    -0.080215185316    12.000000000000
         C            0.346498171261     0.215675617281     0.238328814684    12.000000000000
         C           -0.891977828739    -0.376854382719     0.843296814684    12.000000000000
         C            3.899019171261     0.058723617281     0.280556814684    12.000000000000
         C           -2.138617828739     0.019224617281     0.012714814684    12.000000000000
         H            2.952173171261    -0.352513382719    -1.610560185316     1.007825032230
         H            2.498721171261     1.200088617281    -0.913499185316     1.007825032230
         H            1.499250171261    -1.538203382719     0.113456814684     1.007825032230
         H            0.245939571261     1.260672617281    -0.098285485316     1.007825032230
         H           -0.803567828739    -1.466723382719     0.905527814684     1.007825032230
         H           -1.023846828739     0.018891617281     1.860917814684     1.007825032230
         H            4.120133171261    -0.983780382719     0.529183814684     1.007825032230
         H            3.689517171261     0.589640617281     1.213572814684     1.007825032230
         H            4.796702171261     0.495939617281    -0.168151185316     1.007825032230

  Basis Set: AUG-CC-PVTZ
    Blend: AUG-CC-PVTZ
  Basis Set: (AUG-CC-PVTZ AUX)
    Blend: AUG-CC-PVTZ-JKFIT
	 Reference Energy          =    -382.3315378121327512 [Eh]
	 Singles Energy            =      -0.0000000000000000 [Eh]
	 Same-Spin Energy          =      -0.3910779720531409 [Eh]
	 Opposite-Spin Energy      =      -1.2598189236255832 [Eh]
	 Correlation Energy        =      -1.6508968956787240 [Eh]
	 Total Energy              =    -383.9824347078114783 [Eh]

	 ================> DF-SCS-MP2 Energies <==================
	-----------------------------------------------------------
	 SCS Same-Spin Scale       =       0.3333333333333333 [-]
	 SCS Opposite-Spin Scale   =       1.2000000000000000 [-]
	 SCS Same-Spin Energy      =      -0.1303593240177136 [Eh]
	 SCS Opposite-Spin Energy  =      -1.5117827083506998 [Eh]
	 SCS Correlation Energy    =      -1.6421420323684135 [Eh]
	 SCS Total Energy          =    -383.9736798445011914 [Eh]
	-----------------------------------------------------------

  Dipole Moment: [D]
     X:    10.6728      Y:    -0.7436      Z:     1.5823     Total:    10.8151

*** Psi4 exiting successfully. Buy a developer a beer!
