                               Psi4 1.4a2.dev612

  ==> Input File <==

--------------------------------------------------------------------------
#psi4
#
memory 32 gb

molecule  {
-1 1
  O       -2.9259140    -0.9099280    -0.5693610
  O       -2.5318610     1.2678500    -0.0507790
  C        2.5515340     0.1562790    -0.6847320
  C        1.3133740    -0.4576390    -0.0973370
  C        0.1996320     0.2215300     0.2212070
  C       -1.0388440    -0.3710000     0.8261750
  C        3.7521530     0.0645780     0.2634350
  C       -2.2854840     0.0250790    -0.0044070
  H        2.8053070    -0.3466590    -1.6276820
  H        2.3518550     1.2059430    -0.9306210
  H        1.3882155    -1.5153341     0.1881315
  H        0.1538580     1.2934970     0.0216010
  H       -0.9504340    -1.4608690     0.8884060
  H       -1.1707130     0.0247460     1.8437960
  H        3.9732670    -0.9779260     0.5120620
  H        3.5426510     0.5954950     1.1964510
  H        4.6498360     0.5017940    -0.1852730
units angstrom
no_reorient  #important for SAPT in psi4, default
symmetry c1  #important for SAPT in psi4, default
}

set PROPERTIES_ORIGIN ["COM"]
properties('MP2/aug-cc-pvtz', properties = ['dipole'])
--------------------------------------------------------------------------

    Molecular point group: c1
  Charge       = -1
  Multiplicity = 1
  Basis Set: AUG-CC-PVTZ
    Blend: AUG-CC-PVTZ
  Basis Set: (AUG-CC-PVTZ AUX)
    Blend: AUG-CC-PVTZ-JKFIT

    Orbital Energies [Eh]
    ---------------------

    Doubly Occupied:

       1A    -20.297662     2A    -20.295820     3A    -11.144015
       4A    -11.123970     5A    -11.121470     6A    -11.100248
       7A    -11.096244     8A    -11.069541     9A     -1.165475
      10A     -1.064636    11A     -0.968927    12A     -0.900764
      13A     -0.806760    14A     -0.722688    15A     -0.621870
      16A     -0.533152    17A     -0.514051    18A     -0.500380
      19A     -0.453339    20A     -0.442457    21A     -0.432691
      22A     -0.414799    23A     -0.401378    24A     -0.383247
      25A     -0.373852    26A     -0.348126    27A     -0.324104
      28A     -0.237495    29A     -0.210955    30A     -0.195431
      31A     -0.189370

  @DF-RHF Final Energy:  -382.33233628242385

   => Energetics <=

    Nuclear Repulsion Energy =            338.8211976473800746
    One-Electron Energy =               -1203.3972338804319406
    Two-Electron Energy =                 482.2436999506279562
    Total Energy =                       -382.3323362824238529
  Basis Set: (AUG-CC-PVTZ AUX)
    Blend: AUG-CC-PVTZ-RI
    Molecular point group: c1

    Geometry (in Angstrom), charge = -1, multiplicity = 1:

       Center              X                  Y                   Z               Mass
    ------------   -----------------  -----------------  -----------------  -----------------
         O           -2.779855585402    -0.916174466422    -0.554278763291    15.994914619570
         O           -2.385802585402     1.261603533578    -0.035696763291    15.994914619570
         C            2.697592414598     0.150032533578    -0.669649763291    12.000000000000
         C            1.459432414598    -0.463885466422    -0.082254763291    12.000000000000
         C            0.345690414598     0.215283533578     0.236289236709    12.000000000000
         C           -0.892785585402    -0.377246466422     0.841257236709    12.000000000000
         C            3.898211414598     0.058331533578     0.278517236709    12.000000000000
         C           -2.139425585402     0.018832533578     0.010675236709    12.000000000000
         H            2.951365414598    -0.352905466422    -1.612599763291     1.007825032230
         H            2.497913414598     1.199696533578    -0.915538763291     1.007825032230
         H            1.534273914598    -1.521580566422     0.203213736709     1.007825032230
         H            0.299916414598     1.287250533578     0.036683236709     1.007825032230
         H           -0.804375585402    -1.467115466422     0.903488236709     1.007825032230
         H           -1.024654585402     0.018499533578     1.858878236709     1.007825032230
         H            4.119325414598    -0.984172466422     0.527144236709     1.007825032230
         H            3.688709414598     0.589248533578     1.211533236709     1.007825032230
         H            4.795894414598     0.495547533578    -0.170190763291     1.007825032230

  Basis Set: AUG-CC-PVTZ
    Blend: AUG-CC-PVTZ
  Basis Set: (AUG-CC-PVTZ AUX)
    Blend: AUG-CC-PVTZ-JKFIT
	 Reference Energy          =    -382.3323362824238529 [Eh]
	 Singles Energy            =      -0.0000000000000000 [Eh]
	 Same-Spin Energy          =      -0.3910078215782951 [Eh]
	 Opposite-Spin Energy      =      -1.2597059930709926 [Eh]
	 Correlation Energy        =      -1.6507138146492877 [Eh]
	 Total Energy              =    -383.9830500970731464 [Eh]

	 ================> DF-SCS-MP2 Energies <==================
	-----------------------------------------------------------
	 SCS Same-Spin Scale       =       0.3333333333333333 [-]
	 SCS Opposite-Spin Scale   =       1.2000000000000000 [-]
	 SCS Same-Spin Energy      =      -0.1303359405260983 [Eh]
	 SCS Opposite-Spin Energy  =      -1.5116471916851910 [Eh]
	 SCS Correlation Energy    =      -1.6419831322112894 [Eh]
	 SCS Total Energy          =    -383.9743194146351470 [Eh]
	-----------------------------------------------------------

  Dipole Moment: [D]
     X:    10.7334      Y:    -0.6896      Z:     1.7190     Total:    10.8920

*** Psi4 exiting successfully. Buy a developer a beer!
