                               Psi4 1.4a2.dev612

  ==> Input File <==

--------------------------------------------------------------------------
#psi4
#
memory 32 gb

molecule  {
-1 1
  O       -2.9259140    -0.9099280    -0.5693610
  O       -2.5318610     1.2678500    -0.0507790
  C        2.5515340     0.1562790    -0.6847320
  C        1.3133740    -0.4576390    -0.0973370
  C        0.1996320     0.2215300     0.2212070
  C       -1.0388440    -0.3710000     0.8261750
  C        3.7521530     0.0645780     0.2634350
  C       -2.2854840     0.0250790    -0.0044070
  H        2.8053070    -0.3466590    -1.6276820
  H        2.3518550     1.2059430    -0.9306210
  H        1.3523840    -1.5323490     0.0963350
  H        0.1538580     1.2934970     0.0216010
  H       -0.9504340    -1.4608690     0.8884060
  H       -1.1707130     0.0247460     1.8437960
  H        3.9732670    -0.9779260     0.5120620
  H        3.5426510     0.5954950     1.1964510
  H        4.6498360     0.5017940    -0.1852730
units angstrom
no_reorient  #important for SAPT in psi4, default
symmetry c1  #important for SAPT in psi4, default
}

set PROPERTIES_ORIGIN ["COM"]
properties('MP2/aug-cc-pvtz', properties = ['dipole'])
--------------------------------------------------------------------------

    Molecular point group: c1
  Charge       = -1
  Multiplicity = 1
  Basis Set: AUG-CC-PVTZ
    Blend: AUG-CC-PVTZ
  Basis Set: (AUG-CC-PVTZ AUX)
    Blend: AUG-CC-PVTZ-JKFIT

    Orbital Energies [Eh]
    ---------------------

    Doubly Occupied:

       1A    -20.297651     2A    -20.295796     3A    -11.143899
       4A    -11.123710     5A    -11.121420     6A    -11.100146
       7A    -11.095681     8A    -11.069507     9A     -1.165468
      10A     -1.064633    11A     -0.968857    12A     -0.900717
      13A     -0.806887    14A     -0.722516    15A     -0.622336
      16A     -0.533198    17A     -0.514257    18A     -0.500518
      19A     -0.452913    20A     -0.443080    21A     -0.432843
      22A     -0.414876    23A     -0.401409    24A     -0.383005
      25A     -0.373432    26A     -0.348439    27A     -0.323945
      28A     -0.238165    29A     -0.210989    30A     -0.195455
      31A     -0.189018

  @DF-RHF Final Energy:  -382.33301514754817

   => Energetics <=

    Nuclear Repulsion Energy =            338.8374697727078342
    One-Electron Energy =               -1203.4314371517916697
    Two-Electron Energy =                 482.2609522315356116
    Total Energy =                       -382.3330151475481671
  Basis Set: (AUG-CC-PVTZ AUX)
    Blend: AUG-CC-PVTZ-RI
    Molecular point group: c1

    Geometry (in Angstrom), charge = -1, multiplicity = 1:

       Center              X                  Y                   Z               Mass
    ------------   -----------------  -----------------  -----------------  -----------------
         O           -2.779536181534    -0.916022794712    -0.553460484480    15.994914619570
         O           -2.385483181534     1.261755205288    -0.034878484480    15.994914619570
         C            2.697911818466     0.150184205288    -0.668831484480    12.000000000000
         C            1.459751818466    -0.463733794712    -0.081436484480    12.000000000000
         C            0.346009818466     0.215435205288     0.237107515520    12.000000000000
         C           -0.892466181534    -0.377094794712     0.842075515520    12.000000000000
         C            3.898530818466     0.058483205288     0.279335515520    12.000000000000
         C           -2.139106181534     0.018984205288     0.011493515520    12.000000000000
         H            2.951684818466    -0.352753794712    -1.611781484480     1.007825032230
         H            2.498232818466     1.199848205288    -0.914720484480     1.007825032230
         H            1.498761818466    -1.538443794712     0.112235515520     1.007825032230
         H            0.300235818466     1.287402205288     0.037501515520     1.007825032230
         H           -0.804056181534    -1.466963794712     0.904306515520     1.007825032230
         H           -1.024335181534     0.018651205288     1.859696515520     1.007825032230
         H            4.119644818466    -0.984020794712     0.527962515520     1.007825032230
         H            3.689028818466     0.589400205288     1.212351515520     1.007825032230
         H            4.796213818466     0.495699205288    -0.169372484480     1.007825032230

  Basis Set: AUG-CC-PVTZ
    Blend: AUG-CC-PVTZ
  Basis Set: (AUG-CC-PVTZ AUX)
    Blend: AUG-CC-PVTZ-JKFIT
	 Reference Energy          =    -382.3330151475481671 [Eh]
	 Singles Energy            =      -0.0000000000000000 [Eh]
	 Same-Spin Energy          =      -0.3909421927942316 [Eh]
	 Opposite-Spin Energy      =      -1.2595757082575982 [Eh]
	 Correlation Energy        =      -1.6505179010518298 [Eh]
	 Total Energy              =    -383.9835330486000089 [Eh]

	 ================> DF-SCS-MP2 Energies <==================
	-----------------------------------------------------------
	 SCS Same-Spin Scale       =       0.3333333333333333 [-]
	 SCS Opposite-Spin Scale   =       1.2000000000000000 [-]
	 SCS Same-Spin Energy      =      -0.1303140642647438 [Eh]
	 SCS Opposite-Spin Energy  =      -1.5114908499091178 [Eh]
	 SCS Correlation Energy    =      -1.6418049141738615 [Eh]
	 SCS Total Energy          =    -383.9748200617220277 [Eh]
	-----------------------------------------------------------

  Dipole Moment: [D]
     X:    10.7121      Y:    -0.7147      Z:     1.6632     Total:    10.8640

*** Psi4 exiting successfully. Buy a developer a beer!
