                               Psi4 1.4a2.dev612

  ==> Input File <==

--------------------------------------------------------------------------
#psi4
#
memory 32 gb

molecule  {
-1 1
  O       -2.9259140    -0.9099280    -0.5693610
  O       -2.5318610     1.2678500    -0.0507790
  C        2.5515340     0.1562790    -0.6847320
  C        1.3133740    -0.4576390    -0.0973370
  C        0.1996320     0.2215300     0.2212070
  C       -1.0388440    -0.3710000     0.8261750
  C        3.7521530     0.0645780     0.2634350
  C       -2.2854840     0.0250790    -0.0044070
  H        2.8053070    -0.3466590    -1.6276820
  H        2.3518550     1.2059430    -0.9306210
  H        1.4240471    -1.4983192     0.2799280
  H        0.1538580     1.2934970     0.0216010
  H       -0.9504340    -1.4608690     0.8884060
  H       -1.1707130     0.0247460     1.8437960
  H        3.9732670    -0.9779260     0.5120620
  H        3.5426510     0.5954950     1.1964510
  H        4.6498360     0.5017940    -0.1852730
units angstrom
no_reorient  #important for SAPT in psi4, default
symmetry c1  #important for SAPT in psi4, default
}

set PROPERTIES_ORIGIN ["COM"]
properties('MP2/aug-cc-pvtz', properties = ['dipole'])
--------------------------------------------------------------------------

    Molecular point group: c1
  Charge       = -1
  Multiplicity = 1
  Basis Set: AUG-CC-PVTZ
    Blend: AUG-CC-PVTZ
  Basis Set: (AUG-CC-PVTZ AUX)
    Blend: AUG-CC-PVTZ-JKFIT

    Orbital Energies [Eh]
    ---------------------

    Doubly Occupied:

       1A    -20.297786     2A    -20.295958     3A    -11.144258
       4A    -11.124182     5A    -11.121534     6A    -11.100840
       7A    -11.097704     8A    -11.069712     9A     -1.165598
      10A     -1.064753    11A     -0.968927    12A     -0.900904
      13A     -0.806589    14A     -0.722899    15A     -0.620159
      16A     -0.533182    17A     -0.513852    18A     -0.500332
      19A     -0.453358    20A     -0.441635    21A     -0.432545
      22A     -0.414742    23A     -0.401433    24A     -0.383447
      25A     -0.373840    26A     -0.347665    27A     -0.324379
      28A     -0.236750    29A     -0.211030    30A     -0.195514
      31A     -0.189767

  @DF-RHF Final Energy:  -382.33039685255056

   => Energetics <=

    Nuclear Repulsion Energy =            338.7714268894769702
    One-Electron Energy =               -1203.2931019552743237
    Two-Electron Energy =                 482.1912782132467896
    Total Energy =                       -382.3303968525505638
  Basis Set: (AUG-CC-PVTZ AUX)
    Blend: AUG-CC-PVTZ-RI
    Molecular point group: c1

    Geometry (in Angstrom), charge = -1, multiplicity = 1:

       Center              X                  Y                   Z               Mass
    ------------   -----------------  -----------------  -----------------  -----------------
         O           -2.780174990161    -0.916326138132    -0.555097042101    15.994914619570
         O           -2.386121990161     1.261451861868    -0.036515042101    15.994914619570
         C            2.697273009839     0.149880861868    -0.670468042101    12.000000000000
         C            1.459113009839    -0.464037138132    -0.083073042101    12.000000000000
         C            0.345371009839     0.215131861868     0.235470957899    12.000000000000
         C           -0.893104990161    -0.377398138132     0.840438957899    12.000000000000
         C            3.897892009839     0.058179861868     0.277698957899    12.000000000000
         C           -2.139744990161     0.018680861868     0.009856957899    12.000000000000
         H            2.951046009839    -0.353057138132    -1.613418042101     1.007825032230
         H            2.497594009839     1.199544861868    -0.916357042101     1.007825032230
         H            1.569786109839    -1.504717338132     0.294191957899     1.007825032230
         H            0.299597009839     1.287098861868     0.035864957899     1.007825032230
         H           -0.804694990161    -1.467267138132     0.902669957899     1.007825032230
         H           -1.024973990161     0.018347861868     1.858059957899     1.007825032230
         H            4.119006009839    -0.984324138132     0.526325957899     1.007825032230
         H            3.688390009839     0.589096861868     1.210714957899     1.007825032230
         H            4.795575009839     0.495395861868    -0.171009042101     1.007825032230

  Basis Set: AUG-CC-PVTZ
    Blend: AUG-CC-PVTZ
  Basis Set: (AUG-CC-PVTZ AUX)
    Blend: AUG-CC-PVTZ-JKFIT
	 Reference Energy          =    -382.3303968525505638 [Eh]
	 Singles Energy            =      -0.0000000000000000 [Eh]
	 Same-Spin Energy          =      -0.3911358952411059 [Eh]
	 Opposite-Spin Energy      =      -1.2600052569019287 [Eh]
	 Correlation Energy        =      -1.6511411521430346 [Eh]
	 Total Energy              =    -383.9815380046936184 [Eh]

	 ================> DF-SCS-MP2 Energies <==================
	-----------------------------------------------------------
	 SCS Same-Spin Scale       =       0.3333333333333333 [-]
	 SCS Opposite-Spin Scale   =       1.2000000000000000 [-]
	 SCS Same-Spin Energy      =      -0.1303786317470353 [Eh]
	 SCS Opposite-Spin Energy  =      -1.5120063082823143 [Eh]
	 SCS Correlation Energy    =      -1.6423849400293495 [Eh]
	 SCS Total Energy          =    -383.9727817925798945 [Eh]
	-----------------------------------------------------------

  Dipole Moment: [D]
     X:    10.7432      Y:    -0.6507      Z:     1.7719     Total:    10.9077

*** Psi4 exiting successfully. Buy a developer a beer!
