                               Psi4 1.4a2.dev612

  ==> Input File <==

--------------------------------------------------------------------------
#psi4
#
memory 32 gb

molecule  {
-1 1
  O       -2.9259140    -0.9099280    -0.5693610
  O       -2.5318610     1.2678500    -0.0507790
  C        2.5515340     0.1562790    -0.6847320
  C        1.3133740    -0.4576390    -0.0973370
  C        0.1996320     0.2215300     0.2212070
  C       -0.8661694    -0.3441770     0.5823226
  C        3.7521530     0.0645780     0.2634350
  C       -2.2854840     0.0250790    -0.0044070
  H        2.8053070    -0.3466590    -1.6276820
  H        2.3518550     1.2059430    -0.9306210
  H        1.3523840    -1.5323490     0.0963350
  H        0.1538580     1.2934970     0.0216010
  H       -0.9504340    -1.4608690     0.8884060
  H       -1.1707130     0.0247460     1.8437960
  H        3.9732670    -0.9779260     0.5120620
  H        3.5426510     0.5954950     1.1964510
  H        4.6498360     0.5017940    -0.1852730
units angstrom
no_reorient  #important for SAPT in psi4, default
symmetry c1  #important for SAPT in psi4, default
}

set PROPERTIES_ORIGIN ["COM"]
properties('MP2/aug-cc-pvtz', properties = ['dipole'])
--------------------------------------------------------------------------

    Molecular point group: c1
  Charge       = -1
  Multiplicity = 1
  Basis Set: AUG-CC-PVTZ
    Blend: AUG-CC-PVTZ
  Basis Set: (AUG-CC-PVTZ AUX)
    Blend: AUG-CC-PVTZ-JKFIT

    Orbital Energies [Eh]
    ---------------------

    Doubly Occupied:

       1A    -20.305000     2A    -20.299971     3A    -11.155396
       4A    -11.122427     5A    -11.120149     6A    -11.093974
       7A    -11.085920     8A    -11.082803     9A     -1.170565
      10A     -1.069922    11A     -0.990634    12A     -0.929927
      13A     -0.807961    14A     -0.713159    15A     -0.628708
      16A     -0.556211    17A     -0.519257    18A     -0.498861
      19A     -0.469808    20A     -0.446447    21A     -0.422829
      22A     -0.412359    23A     -0.400938    24A     -0.385933
      25A     -0.371266    26A     -0.349221    27A     -0.313989
      28A     -0.236823    29A     -0.212443    30A     -0.199813
      31A     -0.167995

  @DF-RHF Final Energy:  -382.24109830061241

   => Energetics <=

    Nuclear Repulsion Energy =            341.8498195602474539
    One-Electron Energy =               -1209.1004176859373729
    Two-Electron Energy =                 485.0094998250775689
    Total Energy =                       -382.2410983006124070
  Basis Set: (AUG-CC-PVTZ AUX)
    Blend: AUG-CC-PVTZ-RI
    Molecular point group: c1

    Geometry (in Angstrom), charge = -1, multiplicity = 1:

       Center              X                  Y                   Z               Mass
    ------------   -----------------  -----------------  -----------------  -----------------
         O           -2.797863534578    -0.918869736825    -0.527578455361    15.994914619570
         O           -2.403810534578     1.258908263175    -0.008996455361    15.994914619570
         C            2.679584465422     0.147337263175    -0.642949455361    12.000000000000
         C            1.441424465422    -0.466580736825    -0.055554455361    12.000000000000
         C            0.327682465422     0.212588263175     0.262989544639    12.000000000000
         C           -0.738118934578    -0.353118736825     0.624105144639    12.000000000000
         C            3.880203465422     0.055636263175     0.305217544639    12.000000000000
         C           -2.157433534578     0.016137263175     0.037375544639    12.000000000000
         H            2.933357465422    -0.355600736825    -1.585899455361     1.007825032230
         H            2.479905465422     1.197001263175    -0.888838455361     1.007825032230
         H            1.480434465422    -1.541290736825     0.138117544639     1.007825032230
         H            0.281908465422     1.284555263175     0.063383544639     1.007825032230
         H           -0.822383534578    -1.469810736825     0.930188544639     1.007825032230
         H           -1.042662534578     0.015804263175     1.885578544639     1.007825032230
         H            4.101317465422    -0.986867736825     0.553844544639     1.007825032230
         H            3.670701465422     0.586553263175     1.238233544639     1.007825032230
         H            4.777886465422     0.492852263175    -0.143490455361     1.007825032230

  Basis Set: AUG-CC-PVTZ
    Blend: AUG-CC-PVTZ
  Basis Set: (AUG-CC-PVTZ AUX)
    Blend: AUG-CC-PVTZ-JKFIT
	 Reference Energy          =    -382.2410983006124070 [Eh]
	 Singles Energy            =      -0.0000000000000000 [Eh]
	 Same-Spin Energy          =      -0.3964994799483055 [Eh]
	 Opposite-Spin Energy      =      -1.2672250082662782 [Eh]
	 Correlation Energy        =      -1.6637244882145836 [Eh]
	 Total Energy              =    -383.9048227888270048 [Eh]

	 ================> DF-SCS-MP2 Energies <==================
	-----------------------------------------------------------
	 SCS Same-Spin Scale       =       0.3333333333333333 [-]
	 SCS Opposite-Spin Scale   =       1.2000000000000000 [-]
	 SCS Same-Spin Energy      =      -0.1321664933161018 [Eh]
	 SCS Opposite-Spin Energy  =      -1.5206700099195338 [Eh]
	 SCS Correlation Energy    =      -1.6528365032356356 [Eh]
	 SCS Total Energy          =    -383.8939348038480261 [Eh]
	-----------------------------------------------------------

  Dipole Moment: [D]
     X:    10.3932      Y:    -0.6743      Z:     1.2152     Total:    10.4857

*** Psi4 exiting successfully. Buy a developer a beer!
