                               Psi4 1.4a2.dev612

  ==> Input File <==

--------------------------------------------------------------------------
#psi4
#
memory 32 gb

molecule  {
-1 1
  O       -2.9259140    -0.9099280    -0.5693610
  O       -2.5318610     1.2678500    -0.0507790
  C        2.5515340     0.1562790    -0.6847320
  C        1.3133740    -0.4576390    -0.0973370
  C        0.1996320     0.2215300     0.2212070
  C       -0.8949485    -0.3486475     0.6229647
  C        3.7521530     0.0645780     0.2634350
  C       -2.2854840     0.0250790    -0.0044070
  H        2.8053070    -0.3466590    -1.6276820
  H        2.3518550     1.2059430    -0.9306210
  H        1.3523840    -1.5323490     0.0963350
  H        0.1538580     1.2934970     0.0216010
  H       -0.9504340    -1.4608690     0.8884060
  H       -1.1707130     0.0247460     1.8437960
  H        3.9732670    -0.9779260     0.5120620
  H        3.5426510     0.5954950     1.1964510
  H        4.6498360     0.5017940    -0.1852730
units angstrom
no_reorient  #important for SAPT in psi4, default
symmetry c1  #important for SAPT in psi4, default
}

set PROPERTIES_ORIGIN ["COM"]
properties('MP2/aug-cc-pvtz', properties = ['dipole'])
--------------------------------------------------------------------------

    Molecular point group: c1
  Charge       = -1
  Multiplicity = 1
  Basis Set: AUG-CC-PVTZ
    Blend: AUG-CC-PVTZ
  Basis Set: (AUG-CC-PVTZ AUX)
    Blend: AUG-CC-PVTZ-JKFIT

    Orbital Energies [Eh]
    ---------------------

    Doubly Occupied:

       1A    -20.303311     2A    -20.298963     3A    -11.152540
       4A    -11.122579     5A    -11.120285     6A    -11.094010
       7A    -11.088435     8A    -11.080399     9A     -1.169446
      10A     -1.068708    11A     -0.984040    12A     -0.925525
      13A     -0.807591    14A     -0.714831    15A     -0.627814
      16A     -0.551298    17A     -0.518104    18A     -0.498876
      19A     -0.468024    20A     -0.445385    21A     -0.422280
      22A     -0.413307    23A     -0.400690    24A     -0.385368
      25A     -0.370911    26A     -0.349500    27A     -0.316359
      28A     -0.238042    29A     -0.212420    30A     -0.198862
      31A     -0.173160

  @DF-RHF Final Energy:  -382.26977229059025

   => Energetics <=

    Nuclear Repulsion Energy =            341.3441735199500613
    One-Electron Energy =               -1208.1857634056909774
    Two-Electron Energy =                 484.5718175951506055
    Total Energy =                       -382.2697722905902538
  Basis Set: (AUG-CC-PVTZ AUX)
    Blend: AUG-CC-PVTZ-RI
    Molecular point group: c1

    Geometry (in Angstrom), charge = -1, multiplicity = 1:

       Center              X                  Y                   Z               Mass
    ------------   -----------------  -----------------  -----------------  -----------------
         O           -2.794808975737    -0.918395246473    -0.531892130419    15.994914619570
         O           -2.400755975737     1.259382753527    -0.013310130419    15.994914619570
         C            2.682639024263     0.147811753527    -0.647263130419    12.000000000000
         C            1.444479024263    -0.466106246473    -0.059868130419    12.000000000000
         C            0.330737024263     0.213062753527     0.258675869581    12.000000000000
         C           -0.763843475737    -0.357114746473     0.660433569581    12.000000000000
         C            3.883258024263     0.056110753527     0.300903869581    12.000000000000
         C           -2.154378975737     0.016611753527     0.033061869581    12.000000000000
         H            2.936412024263    -0.355126246473    -1.590213130419     1.007825032230
         H            2.482960024263     1.197475753527    -0.893152130419     1.007825032230
         H            1.483489024263    -1.540816246473     0.133803869581     1.007825032230
         H            0.284963024263     1.285029753527     0.059069869581     1.007825032230
         H           -0.819328975737    -1.469336246473     0.925874869581     1.007825032230
         H           -1.039607975737     0.016278753527     1.881264869581     1.007825032230
         H            4.104372024263    -0.986393246473     0.549530869581     1.007825032230
         H            3.673756024263     0.587027753527     1.233919869581     1.007825032230
         H            4.780941024263     0.493326753527    -0.147804130419     1.007825032230

  Basis Set: AUG-CC-PVTZ
    Blend: AUG-CC-PVTZ
  Basis Set: (AUG-CC-PVTZ AUX)
    Blend: AUG-CC-PVTZ-JKFIT
	 Reference Energy          =    -382.2697722905902538 [Eh]
	 Singles Energy            =      -0.0000000000000000 [Eh]
	 Same-Spin Energy          =      -0.3950897214800488 [Eh]
	 Opposite-Spin Energy      =      -1.2650492900815076 [Eh]
	 Correlation Energy        =      -1.6601390115615564 [Eh]
	 Total Energy              =    -383.9299113021518224 [Eh]

	 ================> DF-SCS-MP2 Energies <==================
	-----------------------------------------------------------
	 SCS Same-Spin Scale       =       0.3333333333333333 [-]
	 SCS Opposite-Spin Scale   =       1.2000000000000000 [-]
	 SCS Same-Spin Energy      =      -0.1316965738266829 [Eh]
	 SCS Opposite-Spin Energy  =      -1.5180591480978090 [Eh]
	 SCS Correlation Energy    =      -1.6497557219244918 [Eh]
	 SCS Total Energy          =    -383.9195280125147178 [Eh]
	-----------------------------------------------------------

  Dipole Moment: [D]
     X:    10.4627      Y:    -0.6888      Z:     1.3101     Total:    10.5669

*** Psi4 exiting successfully. Buy a developer a beer!
