                               Psi4 1.4a2.dev612

  ==> Input File <==

--------------------------------------------------------------------------
#psi4
#
memory 32 gb

molecule  {
-1 1
  O       -2.9259140    -0.9099280    -0.5693610
  O       -2.5318610     1.2678500    -0.0507790
  C        2.5515340     0.1562790    -0.6847320
  C        1.3133740    -0.4576390    -0.0973370
  C        0.1996320     0.2215300     0.2212070
  C       -1.0388440    -0.3710000     0.8261750
  C        3.7521530     0.0645780     0.2634350
  C       -2.2854840     0.0250790    -0.0044070
  H        2.8053070    -0.3466590    -1.6276820
  H        2.3518550     1.2059430    -0.9306210
  H        1.3702998    -1.5238416     0.1422332
  H        0.1538580     1.2934970     0.0216010
  H       -0.9504340    -1.4608690     0.8884060
  H       -1.1707130     0.0247460     1.8437960
  H        3.9732670    -0.9779260     0.5120620
  H        3.5426510     0.5954950     1.1964510
  H        4.6498360     0.5017940    -0.1852730
units angstrom
no_reorient  #important for SAPT in psi4, default
symmetry c1  #important for SAPT in psi4, default
}

set PROPERTIES_ORIGIN ["COM"]
properties('MP2/aug-cc-pvtz', properties = ['dipole'])
--------------------------------------------------------------------------

    Molecular point group: c1
  Charge       = -1
  Multiplicity = 1
  Basis Set: AUG-CC-PVTZ
    Blend: AUG-CC-PVTZ
  Basis Set: (AUG-CC-PVTZ AUX)
    Blend: AUG-CC-PVTZ-JKFIT

    Orbital Energies [Eh]
    ---------------------

    Doubly Occupied:

       1A    -20.297642     2A    -20.295793     3A    -11.143941
       4A    -11.123846     5A    -11.121445     6A    -11.100137
       7A    -11.095847     8A    -11.069507     9A     -1.165457
      10A     -1.064620    11A     -0.968901    12A     -0.900729
      13A     -0.806830    14A     -0.722597    15A     -0.622268
      16A     -0.533166    17A     -0.514155    18A     -0.500440
      19A     -0.453181    20A     -0.442792    21A     -0.432764
      22A     -0.414836    23A     -0.401383    24A     -0.383129
      25A     -0.373697    26A     -0.348299    27A     -0.324010
      28A     -0.237841    29A     -0.210959    30A     -0.195429
      31A     -0.189189

  @DF-RHF Final Energy:  -382.33282109914114

   => Energetics <=

    Nuclear Repulsion Energy =            338.8336304534706755
    One-Electron Energy =               -1203.4232466588609896
    Two-Electron Energy =                 482.2567951062491147
    Total Energy =                       -382.3328210991411424
  Basis Set: (AUG-CC-PVTZ AUX)
    Blend: AUG-CC-PVTZ-RI
    Molecular point group: c1

    Geometry (in Angstrom), charge = -1, multiplicity = 1:

       Center              X                  Y                   Z               Mass
    ------------   -----------------  -----------------  -----------------  -----------------
         O           -2.779695883913    -0.916098630121    -0.553869623440    15.994914619570
         O           -2.385642883913     1.261679369879    -0.035287623440    15.994914619570
         C            2.697752116087     0.150108369879    -0.669240623440    12.000000000000
         C            1.459592116087    -0.463809630121    -0.081845623440    12.000000000000
         C            0.345850116087     0.215359369879     0.236698376560    12.000000000000
         C           -0.892625883913    -0.377170630121     0.841666376560    12.000000000000
         C            3.898371116087     0.058407369879     0.278926376560    12.000000000000
         C           -2.139265883913     0.018908369879     0.011084376560    12.000000000000
         H            2.951525116087    -0.352829630121    -1.612190623440     1.007825032230
         H            2.498073116087     1.199772369879    -0.915129623440     1.007825032230
         H            1.516517916087    -1.530012230121     0.157724576560     1.007825032230
         H            0.300076116087     1.287326369879     0.037092376560     1.007825032230
         H           -0.804215883913    -1.467039630121     0.903897376560     1.007825032230
         H           -1.024494883913     0.018575369879     1.859287376560     1.007825032230
         H            4.119485116087    -0.984096630121     0.527553376560     1.007825032230
         H            3.688869116087     0.589324369879     1.211942376560     1.007825032230
         H            4.796054116087     0.495623369879    -0.169781623440     1.007825032230

  Basis Set: AUG-CC-PVTZ
    Blend: AUG-CC-PVTZ
  Basis Set: (AUG-CC-PVTZ AUX)
    Blend: AUG-CC-PVTZ-JKFIT
	 Reference Energy          =    -382.3328210991411424 [Eh]
	 Singles Energy            =      -0.0000000000000000 [Eh]
	 Same-Spin Energy          =      -0.3909670500316546 [Eh]
	 Opposite-Spin Energy      =      -1.2596198770520175 [Eh]
	 Correlation Energy        =      -1.6505869270836722 [Eh]
	 Total Energy              =    -383.9834080262248222 [Eh]

	 ================> DF-SCS-MP2 Energies <==================
	-----------------------------------------------------------
	 SCS Same-Spin Scale       =       0.3333333333333333 [-]
	 SCS Opposite-Spin Scale   =       1.2000000000000000 [-]
	 SCS Same-Spin Energy      =      -0.1303223500105515 [Eh]
	 SCS Opposite-Spin Energy  =      -1.5115438524624210 [Eh]
	 SCS Correlation Energy    =      -1.6418662024729724 [Eh]
	 SCS Total Energy          =    -383.9746873016140967 [Eh]
	-----------------------------------------------------------

  Dipole Moment: [D]
     X:    10.7242      Y:    -0.7039      Z:     1.6913     Total:    10.8795

*** Psi4 exiting successfully. Buy a developer a beer!
