                               Psi4 1.4a2.dev612

  ==> Input File <==

--------------------------------------------------------------------------
#psi4
#
memory 32 gb

molecule  {
-1 1
  O       -2.9259140    -0.9099280    -0.5693610
  O       -2.5318610     1.2678500    -0.0507790
  C        2.5515340     0.1562790    -0.6847320
  C        1.3133740    -0.4576390    -0.0973370
  C        0.1996320     0.2215300     0.2212070
  C       -1.0388440    -0.3710000     0.8261750
  C        3.7521530     0.0645780     0.2634350
  C       -2.2854840     0.0250790    -0.0044070
  H        2.8053070    -0.3466590    -1.6276820
  H        2.3518550     1.2059430    -0.9306210
  H        1.3523840    -1.5323490     0.0963350
  H        0.1173349     1.2755170    -0.0697378
  H       -0.9504340    -1.4608690     0.8884060
  H       -1.1707130     0.0247460     1.8437960
  H        3.9732670    -0.9779260     0.5120620
  H        3.5426510     0.5954950     1.1964510
  H        4.6498360     0.5017940    -0.1852730
units angstrom
no_reorient  #important for SAPT in psi4, default
symmetry c1  #important for SAPT in psi4, default
}

set PROPERTIES_ORIGIN ["COM"]
properties('MP2/aug-cc-pvtz', properties = ['dipole'])
--------------------------------------------------------------------------

    Molecular point group: c1
  Charge       = -1
  Multiplicity = 1
  Basis Set: AUG-CC-PVTZ
    Blend: AUG-CC-PVTZ
  Basis Set: (AUG-CC-PVTZ AUX)
    Blend: AUG-CC-PVTZ-JKFIT

    Orbital Energies [Eh]
    ---------------------

    Doubly Occupied:

       1A    -20.297857     2A    -20.295976     3A    -11.144030
       4A    -11.123717     5A    -11.121434     6A    -11.100191
       7A    -11.095855     8A    -11.069494     9A     -1.165689
      10A     -1.064855    11A     -0.968783    12A     -0.900585
      13A     -0.806892    14A     -0.722368    15A     -0.621542
      16A     -0.533554    17A     -0.514564    18A     -0.499468
      19A     -0.452946    20A     -0.442684    21A     -0.433353
      22A     -0.414781    23A     -0.400688    24A     -0.383037
      25A     -0.373339    26A     -0.348542    27A     -0.323978
      28A     -0.237984    29A     -0.211206    30A     -0.195662
      31A     -0.189085

  @DF-RHF Final Energy:  -382.33237900324815

   => Energetics <=

    Nuclear Repulsion Energy =            338.8606741443180681
    One-Electron Energy =               -1203.4778258957162507
    Two-Electron Energy =                 482.2847727481500328
    Total Energy =                       -382.3323790032481497
  Basis Set: (AUG-CC-PVTZ AUX)
    Blend: AUG-CC-PVTZ-RI
    Molecular point group: c1

    Geometry (in Angstrom), charge = -1, multiplicity = 1:

       Center              X                  Y                   Z               Mass
    ------------   -----------------  -----------------  -----------------  -----------------
         O           -2.779210612707    -0.915862520050    -0.552646285632    15.994914619570
         O           -2.385157612707     1.261915479950    -0.034064285632    15.994914619570
         C            2.698237387293     0.150344479950    -0.668017285632    12.000000000000
         C            1.460077387293    -0.463573520050    -0.080622285632    12.000000000000
         C            0.346335387293     0.215595479950     0.237921714368    12.000000000000
         C           -0.892140612707    -0.376934520050     0.842889714368    12.000000000000
         C            3.898856387293     0.058643479950     0.280149714368    12.000000000000
         C           -2.138780612707     0.019144479950     0.012307714368    12.000000000000
         H            2.952010387293    -0.352593520050    -1.610967285632     1.007825032230
         H            2.498558387293     1.200008479950    -0.913906285632     1.007825032230
         H            1.499087387293    -1.538283520050     0.113049714368     1.007825032230
         H            0.264038287293     1.269582479950    -0.053023085632     1.007825032230
         H           -0.803730612707    -1.466803520050     0.905120714368     1.007825032230
         H           -1.024009612707     0.018811479950     1.860510714368     1.007825032230
         H            4.119970387293    -0.983860520050     0.528776714368     1.007825032230
         H            3.689354387293     0.589560479950     1.213165714368     1.007825032230
         H            4.796539387293     0.495859479950    -0.168558285632     1.007825032230

  Basis Set: AUG-CC-PVTZ
    Blend: AUG-CC-PVTZ
  Basis Set: (AUG-CC-PVTZ AUX)
    Blend: AUG-CC-PVTZ-JKFIT
	 Reference Energy          =    -382.3323790032481497 [Eh]
	 Singles Energy            =      -0.0000000000000000 [Eh]
	 Same-Spin Energy          =      -0.3910127104191502 [Eh]
	 Opposite-Spin Energy      =      -1.2596858655852561 [Eh]
	 Correlation Energy        =      -1.6506985760044062 [Eh]
	 Total Energy              =    -383.9830775792525515 [Eh]

	 ================> DF-SCS-MP2 Energies <==================
	-----------------------------------------------------------
	 SCS Same-Spin Scale       =       0.3333333333333333 [-]
	 SCS Opposite-Spin Scale   =       1.2000000000000000 [-]
	 SCS Same-Spin Energy      =      -0.1303375701397167 [Eh]
	 SCS Opposite-Spin Energy  =      -1.5116230387023073 [Eh]
	 SCS Correlation Energy    =      -1.6419606088420240 [Eh]
	 SCS Total Energy          =    -383.9743396120901480 [Eh]
	-----------------------------------------------------------

  Dipole Moment: [D]
     X:    10.6849      Y:    -0.7317      Z:     1.6091     Total:    10.8302

*** Psi4 exiting successfully. Buy a developer a beer!
