                               Psi4 1.4a2.dev612

  ==> Input File <==

--------------------------------------------------------------------------
#psi4
#
memory 32 gb

molecule  {
-1 1
  O       -2.9259140    -0.9099280    -0.5693610
  O       -2.5318610     1.2678500    -0.0507790
  C        2.5515340     0.1562790    -0.6847320
  C        1.3133740    -0.4576390    -0.0973370
  C        0.1996320     0.2215300     0.2212070
  C       -1.0388440    -0.3710000     0.8261750
  C        3.7521530     0.0645780     0.2634350
  C       -2.2854840     0.0250790    -0.0044070
  H        2.8053070    -0.3466590    -1.6276820
  H        2.3518550     1.2059430    -0.9306210
  H        1.4061313    -1.5068267     0.2340297
  H        0.1538580     1.2934970     0.0216010
  H       -0.9504340    -1.4608690     0.8884060
  H       -1.1707130     0.0247460     1.8437960
  H        3.9732670    -0.9779260     0.5120620
  H        3.5426510     0.5954950     1.1964510
  H        4.6498360     0.5017940    -0.1852730
units angstrom
no_reorient  #important for SAPT in psi4, default
symmetry c1  #important for SAPT in psi4, default
}

set PROPERTIES_ORIGIN ["COM"]
properties('MP2/aug-cc-pvtz', properties = ['dipole'])
--------------------------------------------------------------------------

    Molecular point group: c1
  Charge       = -1
  Multiplicity = 1
  Basis Set: AUG-CC-PVTZ
    Blend: AUG-CC-PVTZ
  Basis Set: (AUG-CC-PVTZ AUX)
    Blend: AUG-CC-PVTZ-JKFIT

    Orbital Energies [Eh]
    ---------------------

    Doubly Occupied:

       1A    -20.297710     2A    -20.295875     3A    -11.144121
       4A    -11.124082     5A    -11.121499     6A    -11.100481
       7A    -11.096867     8A    -11.069610     9A     -1.165522
      10A     -1.064680    11A     -0.968935    12A     -0.900822
      13A     -0.806678    14A     -0.722788    15A     -0.621159
      16A     -0.533157    17A     -0.513950    18A     -0.500343
      19A     -0.453393    20A     -0.442073    21A     -0.432620
      22A     -0.414767    23A     -0.401395    24A     -0.383353
      25A     -0.373900    26A     -0.347917    27A     -0.324227
      28A     -0.237130    29A     -0.210979    30A     -0.195459
      31A     -0.189563

  @DF-RHF Final Energy:  -382.33153891845632

   => Energetics <=

    Nuclear Repulsion Energy =            338.8003626066619063
    One-Electron Energy =               -1203.3536930719819793
    Two-Electron Energy =                 482.2217915468637557
    Total Energy =                       -382.3315389184563173
  Basis Set: (AUG-CC-PVTZ AUX)
    Blend: AUG-CC-PVTZ-RI
    Molecular point group: c1

    Geometry (in Angstrom), charge = -1, multiplicity = 1:

       Center              X                  Y                   Z               Mass
    ------------   -----------------  -----------------  -----------------  -----------------
         O           -2.780015287782    -0.916250301831    -0.554687902250    15.994914619570
         O           -2.385962287782     1.261527698169    -0.036105902250    15.994914619570
         C            2.697432712218     0.149956698169    -0.670058902250    12.000000000000
         C            1.459272712218    -0.463961301831    -0.082663902250    12.000000000000
         C            0.345530712218     0.215207698169     0.235880097750    12.000000000000
         C           -0.892945287782    -0.377322301831     0.840848097750    12.000000000000
         C            3.898051712218     0.058255698169     0.278108097750    12.000000000000
         C           -2.139585287782     0.018756698169     0.010266097750    12.000000000000
         H            2.951205712218    -0.352981301831    -1.613008902250     1.007825032230
         H            2.497753712218     1.199620698169    -0.915947902250     1.007825032230
         H            1.552030012218    -1.513149001831     0.248702797750     1.007825032230
         H            0.299756712218     1.287174698169     0.036274097750     1.007825032230
         H           -0.804535287782    -1.467191301831     0.903079097750     1.007825032230
         H           -1.024814287782     0.018423698169     1.858469097750     1.007825032230
         H            4.119165712218    -0.984248301831     0.526735097750     1.007825032230
         H            3.688549712218     0.589172698169     1.211124097750     1.007825032230
         H            4.795734712218     0.495471698169    -0.170599902250     1.007825032230

  Basis Set: AUG-CC-PVTZ
    Blend: AUG-CC-PVTZ
  Basis Set: (AUG-CC-PVTZ AUX)
    Blend: AUG-CC-PVTZ-JKFIT
	 Reference Energy          =    -382.3315389184563173 [Eh]
	 Singles Energy            =      -0.0000000000000000 [Eh]
	 Same-Spin Energy          =      -0.3910642483822399 [Eh]
	 Opposite-Spin Energy      =      -1.2598344057697874 [Eh]
	 Correlation Energy        =      -1.6508986541520274 [Eh]
	 Total Energy              =    -383.9824375726083190 [Eh]

	 ================> DF-SCS-MP2 Energies <==================
	-----------------------------------------------------------
	 SCS Same-Spin Scale       =       0.3333333333333333 [-]
	 SCS Opposite-Spin Scale   =       1.2000000000000000 [-]
	 SCS Same-Spin Energy      =      -0.1303547494607466 [Eh]
	 SCS Opposite-Spin Energy  =      -1.5118012869237449 [Eh]
	 SCS Correlation Energy    =      -1.6421560363844916 [Eh]
	 SCS Total Energy          =    -383.9736949548408234 [Eh]
	-----------------------------------------------------------

  Dipole Moment: [D]
     X:    10.7397      Y:    -0.6718      Z:     1.7459     Total:    10.9014

*** Psi4 exiting successfully. Buy a developer a beer!
