                               Psi4 1.4a2.dev612

  ==> Input File <==

--------------------------------------------------------------------------
#psi4
#
memory 32 gb

molecule  {
-1 1
  O       -2.9259140    -0.9099280    -0.5693610
  O       -2.5318610     1.2678500    -0.0507790
  C        2.5515340     0.1562790    -0.6847320
  C        1.3133740    -0.4576390    -0.0973370
  C        0.1996320     0.2215300     0.2212070
  C       -1.0388440    -0.3710000     0.8261750
  C        3.7521530     0.0645780     0.2634350
  C       -2.2854840     0.0250790    -0.0044070
  H        2.8053070    -0.3466590    -1.6276820
  H        2.3518550     1.2059430    -0.9306210
  H        1.3523840    -1.5323490     0.0963350
  H        0.0442887     1.2395570    -0.2524155
  H       -0.9504340    -1.4608690     0.8884060
  H       -1.1707130     0.0247460     1.8437960
  H        3.9732670    -0.9779260     0.5120620
  H        3.5426510     0.5954950     1.1964510
  H        4.6498360     0.5017940    -0.1852730
units angstrom
no_reorient  #important for SAPT in psi4, default
symmetry c1  #important for SAPT in psi4, default
}

set PROPERTIES_ORIGIN ["COM"]
properties('MP2/aug-cc-pvtz', properties = ['dipole'])
--------------------------------------------------------------------------

    Molecular point group: c1
  Charge       = -1
  Multiplicity = 1
  Basis Set: AUG-CC-PVTZ
    Blend: AUG-CC-PVTZ
  Basis Set: (AUG-CC-PVTZ AUX)
    Blend: AUG-CC-PVTZ-JKFIT

    Orbital Energies [Eh]
    ---------------------

    Doubly Occupied:

       1A    -20.298229     2A    -20.296139     3A    -11.144198
       4A    -11.123936     5A    -11.121627     6A    -11.102828
       7A    -11.097175     8A    -11.069559     9A     -1.166026
      10A     -1.065185    11A     -0.968713    12A     -0.900055
      13A     -0.807116    14A     -0.722074    15A     -0.616972
      16A     -0.533905    17A     -0.514686    18A     -0.496720
      19A     -0.453221    20A     -0.441856    21A     -0.434354
      22A     -0.414823    23A     -0.397977    24A     -0.383274
      25A     -0.373312    26A     -0.346159    27A     -0.324009
      28A     -0.236746    29A     -0.211492    30A     -0.195963
      31A     -0.189052

  @DF-RHF Final Energy:  -382.32652483704237

   => Energetics <=

    Nuclear Repulsion Energy =            338.8047137021050617
    One-Electron Energy =               -1203.3677143845961837
    Two-Electron Energy =                 482.2364758454486946
    Total Energy =                       -382.3265248370423706
  Basis Set: (AUG-CC-PVTZ AUX)
    Blend: AUG-CC-PVTZ-RI
    Molecular point group: c1

    Geometry (in Angstrom), charge = -1, multiplicity = 1:

       Center              X                  Y                   Z               Mass
    ------------   -----------------  -----------------  -----------------  -----------------
         O           -2.778559475053    -0.915541970726    -0.551017887043    15.994914619570
         O           -2.384506475053     1.262236029274    -0.032435887043    15.994914619570
         C            2.698888524947     0.150665029274    -0.666388887043    12.000000000000
         C            1.460728524947    -0.463252970726    -0.078993887043    12.000000000000
         C            0.346986524947     0.215916029274     0.239550112957    12.000000000000
         C           -0.891489475053    -0.376613970726     0.844518112957    12.000000000000
         C            3.899507524947     0.058964029274     0.281778112957    12.000000000000
         C           -2.138129475053     0.019465029274     0.013936112957    12.000000000000
         H            2.952661524947    -0.352272970726    -1.609338887043     1.007825032230
         H            2.499209524947     1.200329029274    -0.912277887043     1.007825032230
         H            1.499738524947    -1.537962970726     0.114678112957     1.007825032230
         H            0.191643224947     1.233943029274    -0.234072387043     1.007825032230
         H           -0.803079475053    -1.466482970726     0.906749112957     1.007825032230
         H           -1.023358475053     0.019132029274     1.862139112957     1.007825032230
         H            4.120621524947    -0.983539970726     0.530405112957     1.007825032230
         H            3.690005524947     0.589881029274     1.214794112957     1.007825032230
         H            4.797190524947     0.496180029274    -0.166929887043     1.007825032230

  Basis Set: AUG-CC-PVTZ
    Blend: AUG-CC-PVTZ
  Basis Set: (AUG-CC-PVTZ AUX)
    Blend: AUG-CC-PVTZ-JKFIT
	 Reference Energy          =    -382.3265248370423706 [Eh]
	 Singles Energy            =      -0.0000000000000000 [Eh]
	 Same-Spin Energy          =      -0.3913903721175224 [Eh]
	 Opposite-Spin Energy      =      -1.2605324243551070 [Eh]
	 Correlation Energy        =      -1.6519227964726295 [Eh]
	 Total Energy              =    -383.9784476335149748 [Eh]

	 ================> DF-SCS-MP2 Energies <==================
	-----------------------------------------------------------
	 SCS Same-Spin Scale       =       0.3333333333333333 [-]
	 SCS Opposite-Spin Scale   =       1.2000000000000000 [-]
	 SCS Same-Spin Energy      =      -0.1304634573725074 [Eh]
	 SCS Opposite-Spin Energy  =      -1.5126389092261283 [Eh]
	 SCS Correlation Energy    =      -1.6431023665986357 [Eh]
	 SCS Total Energy          =    -383.9696272036409823 [Eh]
	-----------------------------------------------------------

  Dipole Moment: [D]
     X:    10.6412      Y:    -0.7916      Z:     1.5052     Total:    10.7762

*** Psi4 exiting successfully. Buy a developer a beer!
