                               Psi4 1.4a2.dev612

  ==> Input File <==

--------------------------------------------------------------------------
#psi4
#
memory 32 gb

molecule  {
-1 1
  O       -2.9259140    -0.9099280    -0.5693610
  O       -2.5318610     1.2678500    -0.0507790
  C        2.5515340     0.1562790    -0.6847320
  C        1.3133740    -0.4576390    -0.0973370
  C        0.1996320     0.2215300     0.2212070
  C       -1.0388440    -0.3710000     0.8261750
  C        3.7521530     0.0645780     0.2634350
  C       -2.2854840     0.0250790    -0.0044070
  H        2.8053070    -0.3466590    -1.6276820
  H        2.3518550     1.2059430    -0.9306210
  H        1.4419628    -1.4898118     0.3258262
  H        0.1538580     1.2934970     0.0216010
  H       -0.9504340    -1.4608690     0.8884060
  H       -1.1707130     0.0247460     1.8437960
  H        3.9732670    -0.9779260     0.5120620
  H        3.5426510     0.5954950     1.1964510
  H        4.6498360     0.5017940    -0.1852730
units angstrom
no_reorient  #important for SAPT in psi4, default
symmetry c1  #important for SAPT in psi4, default
}

set PROPERTIES_ORIGIN ["COM"]
properties('MP2/aug-cc-pvtz', properties = ['dipole'])
--------------------------------------------------------------------------

    Molecular point group: c1
  Charge       = -1
  Multiplicity = 1
  Basis Set: AUG-CC-PVTZ
    Blend: AUG-CC-PVTZ
  Basis Set: (AUG-CC-PVTZ AUX)
    Blend: AUG-CC-PVTZ-JKFIT

    Orbital Energies [Eh]
    ---------------------

    Doubly Occupied:

       1A    -20.297889     2A    -20.296069     3A    -11.144425
       4A    -11.124269     5A    -11.121577     6A    -11.101333
       7A    -11.098737     8A    -11.069847     9A     -1.165702
      10A     -1.064852    11A     -0.968908    12A     -0.901011
      13A     -0.806498    14A     -0.723020    15A     -0.618903
      16A     -0.533229    17A     -0.513760    18A     -0.500352
      19A     -0.453250    20A     -0.441144    21A     -0.432457
      22A     -0.414725    23A     -0.401492    24A     -0.383528
      25A     -0.373672    26A     -0.347359    27A     -0.324557
      28A     -0.236358    29A     -0.211107    30A     -0.195596
      31A     -0.189983

  @DF-RHF Final Energy:  -382.32887119058307

   => Energetics <=

    Nuclear Repulsion Energy =            338.7347851957246689
    One-Electron Energy =               -1203.2160966960309452
    Two-Electron Energy =                 482.1524403097231470
    Total Energy =                       -382.3288711905830723
  Basis Set: (AUG-CC-PVTZ AUX)
    Blend: AUG-CC-PVTZ-RI
    Molecular point group: c1

    Geometry (in Angstrom), charge = -1, multiplicity = 1:

       Center              X                  Y                   Z               Mass
    ------------   -----------------  -----------------  -----------------  -----------------
         O           -2.780334691650    -0.916401973541    -0.555506181060    15.994914619570
         O           -2.386281691650     1.261376026459    -0.036924181060    15.994914619570
         C            2.697113308350     0.149805026459    -0.670877181060    12.000000000000
         C            1.458953308350    -0.464112973541    -0.083482181060    12.000000000000
         C            0.345211308350     0.215056026459     0.235061818940    12.000000000000
         C           -0.893264691650    -0.377473973541     0.840029818940    12.000000000000
         C            3.897732308350     0.058104026459     0.277289818940    12.000000000000
         C           -2.139904691650     0.018605026459     0.009447818940    12.000000000000
         H            2.950886308350    -0.353132973541    -1.613827181060     1.007825032230
         H            2.497434308350     1.199469026459    -0.916766181060     1.007825032230
         H            1.587542108350    -1.496285773541     0.339681018940     1.007825032230
         H            0.299437308350     1.287023026459     0.035455818940     1.007825032230
         H           -0.804854691650    -1.467342973541     0.902260818940     1.007825032230
         H           -1.025133691650     0.018272026459     1.857650818940     1.007825032230
         H            4.118846308350    -0.984399973541     0.525916818940     1.007825032230
         H            3.688230308350     0.589021026459     1.210305818940     1.007825032230
         H            4.795415308350     0.495320026459    -0.171418181060     1.007825032230

  Basis Set: AUG-CC-PVTZ
    Blend: AUG-CC-PVTZ
  Basis Set: (AUG-CC-PVTZ AUX)
    Blend: AUG-CC-PVTZ-JKFIT
	 Reference Energy          =    -382.3288711905830723 [Eh]
	 Singles Energy            =      -0.0000000000000000 [Eh]
	 Same-Spin Energy          =      -0.3912221570412801 [Eh]
	 Opposite-Spin Energy      =      -1.2602183750640765 [Eh]
	 Correlation Energy        =      -1.6514405321053567 [Eh]
	 Total Energy              =    -383.9803117226884410 [Eh]

	 ================> DF-SCS-MP2 Energies <==================
	-----------------------------------------------------------
	 SCS Same-Spin Scale       =       0.3333333333333333 [-]
	 SCS Opposite-Spin Scale   =       1.2000000000000000 [-]
	 SCS Same-Spin Energy      =      -0.1304073856804267 [Eh]
	 SCS Opposite-Spin Energy  =      -1.5122620500768917 [Eh]
	 SCS Correlation Energy    =      -1.6426694357573184 [Eh]
	 SCS Total Energy          =    -383.9715406263404134 [Eh]
	-----------------------------------------------------------

  Dipole Moment: [D]
     X:    10.7439      Y:    -0.6263      Z:     1.7967     Total:    10.9110

*** Psi4 exiting successfully. Buy a developer a beer!
