                               Psi4 1.4a2.dev612

  ==> Input File <==

--------------------------------------------------------------------------
#psi4
#
memory 32 gb

molecule  {
-1 1
  O       -2.9259140    -0.9099280    -0.5693610
  O       -2.5318610     1.2678500    -0.0507790
  C        2.5515340     0.1562790    -0.6847320
  C        1.3133740    -0.4576390    -0.0973370
  C        0.1996320     0.2215300     0.2212070
  C       -1.0388440    -0.3710000     0.8261750
  C        3.7521530     0.0645780     0.2634350
  C       -2.2854840     0.0250790    -0.0044070
  H        2.8053070    -0.3466590    -1.6276820
  H        2.3518550     1.2059430    -0.9306210
  H        1.3523840    -1.5323490     0.0963350
  H        0.1355965     1.2845070    -0.0240684
  H       -0.9504340    -1.4608690     0.8884060
  H       -1.1707130     0.0247460     1.8437960
  H        3.9732670    -0.9779260     0.5120620
  H        3.5426510     0.5954950     1.1964510
  H        4.6498360     0.5017940    -0.1852730
units angstrom
no_reorient  #important for SAPT in psi4, default
symmetry c1  #important for SAPT in psi4, default
}

set PROPERTIES_ORIGIN ["COM"]
properties('MP2/aug-cc-pvtz', properties = ['dipole'])
--------------------------------------------------------------------------

    Molecular point group: c1
  Charge       = -1
  Multiplicity = 1
  Basis Set: AUG-CC-PVTZ
    Blend: AUG-CC-PVTZ
  Basis Set: (AUG-CC-PVTZ AUX)
    Blend: AUG-CC-PVTZ-JKFIT

    Orbital Energies [Eh]
    ---------------------

    Doubly Occupied:

       1A    -20.297755     2A    -20.295894     3A    -11.143969
       4A    -11.123704     5A    -11.121419     6A    -11.100057
       7A    -11.095724     8A    -11.069497     9A     -1.165583
      10A     -1.064749    11A     -0.968817    12A     -0.900664
      13A     -0.806880    14A     -0.722444    15A     -0.622082
      16A     -0.533389    17A     -0.514435    18A     -0.500024
      19A     -0.452921    20A     -0.442884    21A     -0.433096
      22A     -0.414819    23A     -0.401111    24A     -0.383013
      25A     -0.373378    26A     -0.348587    27A     -0.323962
      28A     -0.238114    29A     -0.211104    30A     -0.195563
      31A     -0.189058

  @DF-RHF Final Energy:  -382.33286404928555

   => Energetics <=

    Nuclear Repulsion Energy =            338.8535293935428285
    One-Electron Energy =               -1203.4633910622760595
    Two-Electron Energy =                 482.2769976194476271
    Total Energy =                       -382.3328640492855470
  Basis Set: (AUG-CC-PVTZ AUX)
    Blend: AUG-CC-PVTZ-RI
    Molecular point group: c1

    Geometry (in Angstrom), charge = -1, multiplicity = 1:

       Center              X                  Y                   Z               Mass
    ------------   -----------------  -----------------  -----------------  -----------------
         O           -2.779373397566    -0.915942657381    -0.553053385056    15.994914619570
         O           -2.385320397566     1.261835342619    -0.034471385056    15.994914619570
         C            2.698074602434     0.150264342619    -0.668424385056    12.000000000000
         C            1.459914602434    -0.463653657381    -0.081029385056    12.000000000000
         C            0.346172602434     0.215515342619     0.237514614944    12.000000000000
         C           -0.892303397566    -0.377014657381     0.842482614944    12.000000000000
         C            3.898693602434     0.058563342619     0.279742614944    12.000000000000
         C           -2.138943397566     0.019064342619     0.011900614944    12.000000000000
         H            2.951847602434    -0.352673657381    -1.611374385056     1.007825032230
         H            2.498395602434     1.199928342619    -0.914313385056     1.007825032230
         H            1.498924602434    -1.538363657381     0.112642614944     1.007825032230
         H            0.282137102434     1.278492342619    -0.007760785056     1.007825032230
         H           -0.803893397566    -1.466883657381     0.904713614944     1.007825032230
         H           -1.024172397566     0.018731342619     1.860103614944     1.007825032230
         H            4.119807602434    -0.983940657381     0.528369614944     1.007825032230
         H            3.689191602434     0.589480342619     1.212758614944     1.007825032230
         H            4.796376602434     0.495779342619    -0.168965385056     1.007825032230

  Basis Set: AUG-CC-PVTZ
    Blend: AUG-CC-PVTZ
  Basis Set: (AUG-CC-PVTZ AUX)
    Blend: AUG-CC-PVTZ-JKFIT
	 Reference Energy          =    -382.3328640492855470 [Eh]
	 Singles Energy            =      -0.0000000000000000 [Eh]
	 Same-Spin Energy          =      -0.3909674362662147 [Eh]
	 Opposite-Spin Energy      =      -1.2596050035668538 [Eh]
	 Correlation Energy        =      -1.6505724398330686 [Eh]
	 Total Energy              =    -383.9834364891186169 [Eh]

	 ================> DF-SCS-MP2 Energies <==================
	-----------------------------------------------------------
	 SCS Same-Spin Scale       =       0.3333333333333333 [-]
	 SCS Opposite-Spin Scale   =       1.2000000000000000 [-]
	 SCS Same-Spin Energy      =      -0.1303224787554049 [Eh]
	 SCS Opposite-Spin Energy  =      -1.5115260042802245 [Eh]
	 SCS Correlation Energy    =      -1.6418484830356295 [Eh]
	 SCS Total Energy          =    -383.9747125323211776 [Eh]
	-----------------------------------------------------------

  Dipole Moment: [D]
     X:    10.6980      Y:    -0.7220      Z:     1.6361     Total:    10.8465

*** Psi4 exiting successfully. Buy a developer a beer!
