                               Psi4 1.4a2.dev612

  ==> Input File <==

--------------------------------------------------------------------------
#psi4
#
memory 32 gb

molecule  {
-1 1
  O       -2.9259140    -0.9099280    -0.5693610
  O       -2.5318610     1.2678500    -0.0507790
  C        2.5515340     0.1562790    -0.6847320
  C        1.3133740    -0.4576390    -0.0973370
  C        0.1996320     0.2215300     0.2212070
  C       -1.0388440    -0.3710000     0.8261750
  C        3.7521530     0.0645780     0.2634350
  C       -2.2854840     0.0250790    -0.0044070
  H        2.8053070    -0.3466590    -1.6276820
  H        2.3518550     1.2059430    -0.9306210
  H        1.4598786    -1.4813043     0.3717245
  H        0.1538580     1.2934970     0.0216010
  H       -0.9504340    -1.4608690     0.8884060
  H       -1.1707130     0.0247460     1.8437960
  H        3.9732670    -0.9779260     0.5120620
  H        3.5426510     0.5954950     1.1964510
  H        4.6498360     0.5017940    -0.1852730
units angstrom
no_reorient  #important for SAPT in psi4, default
symmetry c1  #important for SAPT in psi4, default
}

set PROPERTIES_ORIGIN ["COM"]
properties('MP2/aug-cc-pvtz', properties = ['dipole'])
--------------------------------------------------------------------------

    Molecular point group: c1
  Charge       = -1
  Multiplicity = 1
  Basis Set: AUG-CC-PVTZ
    Blend: AUG-CC-PVTZ
  Basis Set: (AUG-CC-PVTZ AUX)
    Blend: AUG-CC-PVTZ-JKFIT

    Orbital Energies [Eh]
    ---------------------

    Doubly Occupied:

       1A    -20.298017     2A    -20.296207     3A    -11.144620
       4A    -11.124343     5A    -11.121633     6A    -11.101987
       7A    -11.099927     8A    -11.070014     9A     -1.165832
      10A     -1.064978    11A     -0.968880    12A     -0.901145
      13A     -0.806409    14A     -0.723154    15A     -0.617430
      16A     -0.533298    17A     -0.513676    18A     -0.500407
      19A     -0.453093    20A     -0.440601    21A     -0.432342
      22A     -0.414721    23A     -0.401571    24A     -0.383601
      25A     -0.373395    26A     -0.346985    27A     -0.324761
      28A     -0.235958    29A     -0.211209    30A     -0.195702
      31A     -0.190211

  @DF-RHF Final Energy:  -382.32692041573586

   => Energetics <=

    Nuclear Repulsion Energy =            338.6909101141491192
    One-Electron Energy =               -1203.1234521172175391
    Two-Electron Energy =                 482.1056215873325641
    Total Energy =                       -382.3269204157358558
  Basis Set: (AUG-CC-PVTZ AUX)
    Blend: AUG-CC-PVTZ-RI
    Molecular point group: c1

    Geometry (in Angstrom), charge = -1, multiplicity = 1:

       Center              X                  Y                   Z               Mass
    ------------   -----------------  -----------------  -----------------  -----------------
         O           -2.780494394030    -0.916477809842    -0.555915320911    15.994914619570
         O           -2.386441394030     1.261300190158    -0.037333320911    15.994914619570
         C            2.696953605970     0.149729190158    -0.671286320911    12.000000000000
         C            1.458793605970    -0.464188809842    -0.083891320911    12.000000000000
         C            0.345051605970     0.214980190158     0.234652679089    12.000000000000
         C           -0.893424394030    -0.377549809842     0.839620679089    12.000000000000
         C            3.897572605970     0.058028190158     0.276880679089    12.000000000000
         C           -2.140064394030     0.018529190158     0.009038679089    12.000000000000
         H            2.950726605970    -0.353208809842    -1.614236320911     1.007825032230
         H            2.497274605970     1.199393190158    -0.917175320911     1.007825032230
         H            1.605298205970    -1.487854109842     0.385170179089     1.007825032230
         H            0.299277605970     1.286947190158     0.035046679089     1.007825032230
         H           -0.805014394030    -1.467418809842     0.901851679089     1.007825032230
         H           -1.025293394030     0.018196190158     1.857241679089     1.007825032230
         H            4.118686605970    -0.984475809842     0.525507679089     1.007825032230
         H            3.688070605970     0.588945190158     1.209896679089     1.007825032230
         H            4.795255605970     0.495244190158    -0.171827320911     1.007825032230

  Basis Set: AUG-CC-PVTZ
    Blend: AUG-CC-PVTZ
  Basis Set: (AUG-CC-PVTZ AUX)
    Blend: AUG-CC-PVTZ-JKFIT
	 Reference Energy          =    -382.3269204157358558 [Eh]
	 Singles Energy            =      -0.0000000000000000 [Eh]
	 Same-Spin Energy          =      -0.3913222675229004 [Eh]
	 Opposite-Spin Energy      =      -1.2604732478649114 [Eh]
	 Correlation Energy        =      -1.6517955153878119 [Eh]
	 Total Energy              =    -383.9787159311236451 [Eh]

	 ================> DF-SCS-MP2 Energies <==================
	-----------------------------------------------------------
	 SCS Same-Spin Scale       =       0.3333333333333333 [-]
	 SCS Opposite-Spin Scale   =       1.2000000000000000 [-]
	 SCS Same-Spin Energy      =      -0.1304407558409668 [Eh]
	 SCS Opposite-Spin Energy  =      -1.5125678974378938 [Eh]
	 SCS Correlation Energy    =      -1.6430086532788606 [Eh]
	 SCS Total Energy          =    -383.9699290690147109 [Eh]
	-----------------------------------------------------------

  Dipole Moment: [D]
     X:    10.7418      Y:    -0.5989      Z:     1.8200     Total:    10.9114

*** Psi4 exiting successfully. Buy a developer a beer!
