                               Psi4 1.4a2.dev612

  ==> Input File <==

--------------------------------------------------------------------------
#psi4
#
memory 32 gb

molecule  {
-1 1
  O       -2.9259140    -0.9099280    -0.5693610
  O       -2.5318610     1.2678500    -0.0507790
  C        2.5515340     0.1562790    -0.6847320
  C        1.3133740    -0.4576390    -0.0973370
  C        0.1996320     0.2215300     0.2212070
  C       -0.9812858    -0.3620590     0.7448909
  C        3.7521530     0.0645780     0.2634350
  C       -2.2854840     0.0250790    -0.0044070
  H        2.8053070    -0.3466590    -1.6276820
  H        2.3518550     1.2059430    -0.9306210
  H        1.3523840    -1.5323490     0.0963350
  H        0.1538580     1.2934970     0.0216010
  H       -0.9504340    -1.4608690     0.8884060
  H       -1.1707130     0.0247460     1.8437960
  H        3.9732670    -0.9779260     0.5120620
  H        3.5426510     0.5954950     1.1964510
  H        4.6498360     0.5017940    -0.1852730
units angstrom
no_reorient  #important for SAPT in psi4, default
symmetry c1  #important for SAPT in psi4, default
}

set PROPERTIES_ORIGIN ["COM"]
properties('MP2/aug-cc-pvtz', properties = ['dipole'])
--------------------------------------------------------------------------

    Molecular point group: c1
  Charge       = -1
  Multiplicity = 1
  Basis Set: AUG-CC-PVTZ
    Blend: AUG-CC-PVTZ
  Basis Set: (AUG-CC-PVTZ AUX)
    Blend: AUG-CC-PVTZ-JKFIT

    Orbital Energies [Eh]
    ---------------------

    Doubly Occupied:

       1A    -20.299280     2A    -20.296662     3A    -11.146051
       4A    -11.123297     5A    -11.121008     6A    -11.096569
       7A    -11.094552     8A    -11.072851     9A     -1.166671
      10A     -1.065801    11A     -0.972435    12A     -0.910277
      13A     -0.806899    14A     -0.719698    15A     -0.624529
      16A     -0.538602    17A     -0.515374    18A     -0.499519
      19A     -0.459744    20A     -0.442662    21A     -0.425774
      22A     -0.415475    23A     -0.400827    24A     -0.383735
      25A     -0.371409    26A     -0.349444    27A     -0.324303
      28A     -0.239165    29A     -0.211525    30A     -0.196439
      31A     -0.184506

  @DF-RHF Final Energy:  -382.32279633651297

   => Energetics <=

    Nuclear Repulsion Energy =            339.8401283692770676
    One-Electron Energy =               -1205.3756827225438428
    Two-Electron Energy =                 483.2127580167538099
    Total Energy =                       -382.3227963365129654
  Basis Set: (AUG-CC-PVTZ AUX)
    Blend: AUG-CC-PVTZ-RI
    Molecular point group: c1

    Geometry (in Angstrom), charge = -1, multiplicity = 1:

       Center              X                  Y                   Z               Mass
    ------------   -----------------  -----------------  -----------------  -----------------
         O           -2.785645299215    -0.916971775416    -0.544833144978    15.994914619570
         O           -2.391592299215     1.260806224584    -0.026251144978    15.994914619570
         C            2.691802700785     0.149235224584    -0.660204144978    12.000000000000
         C            1.453642700785    -0.464682775416    -0.072809144978    12.000000000000
         C            0.339900700785     0.214486224584     0.245734855022    12.000000000000
         C           -0.841017099215    -0.369102775416     0.769418755022    12.000000000000
         C            3.892421700785     0.057534224584     0.287962855022    12.000000000000
         C           -2.145215299215     0.018035224584     0.020120855022    12.000000000000
         H            2.945575700785    -0.353702775416    -1.603154144978     1.007825032230
         H            2.492123700785     1.198899224584    -0.906093144978     1.007825032230
         H            1.492652700785    -1.539392775416     0.120862855022     1.007825032230
         H            0.294126700785     1.286453224584     0.046128855022     1.007825032230
         H           -0.810165299215    -1.467912775416     0.912933855022     1.007825032230
         H           -1.030444299215     0.017702224584     1.868323855022     1.007825032230
         H            4.113535700785    -0.984969775416     0.536589855022     1.007825032230
         H            3.682919700785     0.588451224584     1.220978855022     1.007825032230
         H            4.790104700785     0.494750224584    -0.160745144978     1.007825032230

  Basis Set: AUG-CC-PVTZ
    Blend: AUG-CC-PVTZ
  Basis Set: (AUG-CC-PVTZ AUX)
    Blend: AUG-CC-PVTZ-JKFIT
	 Reference Energy          =    -382.3227963365129654 [Eh]
	 Singles Energy            =      -0.0000000000000000 [Eh]
	 Same-Spin Energy          =      -0.3920475896077069 [Eh]
	 Opposite-Spin Energy      =      -1.2607539352735708 [Eh]
	 Correlation Energy        =      -1.6528015248812777 [Eh]
	 Total Energy              =    -383.9755978613942489 [Eh]

	 ================> DF-SCS-MP2 Energies <==================
	-----------------------------------------------------------
	 SCS Same-Spin Scale       =       0.3333333333333333 [-]
	 SCS Opposite-Spin Scale   =       1.2000000000000000 [-]
	 SCS Same-Spin Energy      =      -0.1306825298692356 [Eh]
	 SCS Opposite-Spin Energy  =      -1.5129047223282850 [Eh]
	 SCS Correlation Energy    =      -1.6435872521975206 [Eh]
	 SCS Total Energy          =    -383.9663835887104710 [Eh]
	-----------------------------------------------------------

  Dipole Moment: [D]
     X:    10.6416      Y:    -0.7117      Z:     1.5423     Total:    10.7763

*** Psi4 exiting successfully. Buy a developer a beer!
