                               Psi4 1.4a2.dev612

  ==> Input File <==

--------------------------------------------------------------------------
#psi4
#
memory 32 gb

molecule  {
-1 1
  O       -2.9259140    -0.9099280    -0.5693610
  O       -2.5318610     1.2678500    -0.0507790
  C        2.5515340     0.1562790    -0.6847320
  C        1.3133740    -0.4576390    -0.0973370
  C        0.1996320     0.2215300     0.2212070
  C       -1.0388440    -0.3710000     0.8261750
  C        3.7521530     0.0645780     0.2634350
  C       -2.2854840     0.0250790    -0.0044070
  H        2.8053070    -0.3466590    -1.6276820
  H        2.3518550     1.2059430    -0.9306210
  H        1.3523840    -1.5323490     0.0963350
  H        0.0625503     1.2485470    -0.2067461
  H       -0.9504340    -1.4608690     0.8884060
  H       -1.1707130     0.0247460     1.8437960
  H        3.9732670    -0.9779260     0.5120620
  H        3.5426510     0.5954950     1.1964510
  H        4.6498360     0.5017940    -0.1852730
units angstrom
no_reorient  #important for SAPT in psi4, default
symmetry c1  #important for SAPT in psi4, default
}

set PROPERTIES_ORIGIN ["COM"]
properties('MP2/aug-cc-pvtz', properties = ['dipole'])
--------------------------------------------------------------------------

    Molecular point group: c1
  Charge       = -1
  Multiplicity = 1
  Basis Set: AUG-CC-PVTZ
    Blend: AUG-CC-PVTZ
  Basis Set: (AUG-CC-PVTZ AUX)
    Blend: AUG-CC-PVTZ-JKFIT

    Orbital Energies [Eh]
    ---------------------

    Doubly Occupied:

       1A    -20.298140     2A    -20.296122     3A    -11.144166
       4A    -11.123858     5A    -11.121562     6A    -11.101869
       7A    -11.096734     8A    -11.069528     9A     -1.165954
      10A     -1.065116    11A     -0.968719    12A     -0.900214
      13A     -0.807034    14A     -0.722140    15A     -0.618413
      16A     -0.533864    17A     -0.514704    18A     -0.497476
      19A     -0.453127    20A     -0.442066    21A     -0.434113
      22A     -0.414785    23A     -0.398775    24A     -0.383196
      25A     -0.373300    26A     -0.347119    27A     -0.324009
      28A     -0.237155    29A     -0.211439    30A     -0.195902
      31A     -0.189082

  @DF-RHF Final Energy:  -382.32865091808304

   => Energetics <=

    Nuclear Repulsion Energy =            338.8306785621578001
    One-Electron Energy =               -1203.4192952281075577
    Two-Electron Energy =                 482.2599657478667154
    Total Energy =                       -382.3286509180830421
  Basis Set: (AUG-CC-PVTZ AUX)
    Blend: AUG-CC-PVTZ-RI
    Molecular point group: c1

    Geometry (in Angstrom), charge = -1, multiplicity = 1:

       Center              X                  Y                   Z               Mass
    ------------   -----------------  -----------------  -----------------  -----------------
         O           -2.778722259912    -0.915622108057    -0.551424986468    15.994914619570
         O           -2.384669259912     1.262155891943    -0.032842986468    15.994914619570
         C            2.698725740088     0.150584891943    -0.666795986468    12.000000000000
         C            1.460565740088    -0.463333108057    -0.079400986468    12.000000000000
         C            0.346823740088     0.215835891943     0.239143013532    12.000000000000
         C           -0.891652259912    -0.376694108057     0.844111013532    12.000000000000
         C            3.899344740088     0.058883891943     0.281371013532    12.000000000000
         C           -2.138292259912     0.019384891943     0.013529013532    12.000000000000
         H            2.952498740088    -0.352353108057    -1.609745986468     1.007825032230
         H            2.499046740088     1.200248891943    -0.912684986468     1.007825032230
         H            1.499575740088    -1.538043108057     0.114271013532     1.007825032230
         H            0.209742040088     1.242852891943    -0.188810086468     1.007825032230
         H           -0.803242259912    -1.466563108057     0.906342013532     1.007825032230
         H           -1.023521259912     0.019051891943     1.861732013532     1.007825032230
         H            4.120458740088    -0.983620108057     0.529998013532     1.007825032230
         H            3.689842740088     0.589800891943     1.214387013532     1.007825032230
         H            4.797027740088     0.496099891943    -0.167336986468     1.007825032230

  Basis Set: AUG-CC-PVTZ
    Blend: AUG-CC-PVTZ
  Basis Set: (AUG-CC-PVTZ AUX)
    Blend: AUG-CC-PVTZ-JKFIT
	 Reference Energy          =    -382.3286509180830421 [Eh]
	 Singles Energy            =      -0.0000000000000000 [Eh]
	 Same-Spin Energy          =      -0.3912673101746091 [Eh]
	 Opposite-Spin Energy      =      -1.2602425386397242 [Eh]
	 Correlation Energy        =      -1.6515098488143334 [Eh]
	 Total Energy              =    -383.9801607668973702 [Eh]

	 ================> DF-SCS-MP2 Energies <==================
	-----------------------------------------------------------
	 SCS Same-Spin Scale       =       0.3333333333333333 [-]
	 SCS Opposite-Spin Scale   =       1.2000000000000000 [-]
	 SCS Same-Spin Energy      =      -0.1304224367248697 [Eh]
	 SCS Opposite-Spin Energy  =      -1.5122910463676691 [Eh]
	 SCS Correlation Energy    =      -1.6427134830925387 [Eh]
	 SCS Total Energy          =    -383.9713644011756060 [Eh]
	-----------------------------------------------------------

  Dipole Moment: [D]
     X:    10.6511      Y:    -0.7737      Z:     1.5303     Total:    10.7882

*** Psi4 exiting successfully. Buy a developer a beer!
