                               Psi4 1.4a2.dev612

  ==> Input File <==

--------------------------------------------------------------------------
#psi4
#
memory 32 gb

molecule  {
-1 1
  O       -2.9259140    -0.9099280    -0.5693610
  O       -2.5318610     1.2678500    -0.0507790
  C        2.5515340     0.1562790    -0.6847320
  C        1.3133740    -0.4576390    -0.0973370
  C        0.1996320     0.2215300     0.2212070
  C       -1.0388440    -0.3710000     0.8261750
  C        3.7521530     0.0645780     0.2634350
  C       -2.2854840     0.0250790    -0.0044070
  H        2.8053070    -0.3466590    -1.6276820
  H        2.3518550     1.2059430    -0.9306210
  H        1.3523840    -1.5323490     0.0963350
  H        0.0808118     1.2575370    -0.1610767
  H       -0.9504340    -1.4608690     0.8884060
  H       -1.1707130     0.0247460     1.8437960
  H        3.9732670    -0.9779260     0.5120620
  H        3.5426510     0.5954950     1.1964510
  H        4.6498360     0.5017940    -0.1852730
units angstrom
no_reorient  #important for SAPT in psi4, default
symmetry c1  #important for SAPT in psi4, default
}

set PROPERTIES_ORIGIN ["COM"]
properties('MP2/aug-cc-pvtz', properties = ['dipole'])
--------------------------------------------------------------------------

    Molecular point group: c1
  Charge       = -1
  Multiplicity = 1
  Basis Set: AUG-CC-PVTZ
    Blend: AUG-CC-PVTZ
  Basis Set: (AUG-CC-PVTZ AUX)
    Blend: AUG-CC-PVTZ-JKFIT

    Orbital Energies [Eh]
    ---------------------

    Doubly Occupied:

       1A    -20.298049     2A    -20.296089     3A    -11.144128
       4A    -11.123795     5A    -11.121507     6A    -11.101104
       7A    -11.096364     8A    -11.069508     9A     -1.165874
      10A     -1.065038    11A     -0.968733    12A     -0.900358
      13A     -0.806970    14A     -0.722213    15A     -0.619679
      16A     -0.533792    17A     -0.514693    18A     -0.498190
      19A     -0.453050    20A     -0.442275    21A     -0.433864
      22A     -0.414765    23A     -0.399505    24A     -0.383129
      25A     -0.373300    26A     -0.347824    27A     -0.324002
      28A     -0.237501    29A     -0.211374    30A     -0.195832
      31A     -0.189098

  @DF-RHF Final Energy:  -382.33030811166316

   => Energetics <=

    Nuclear Repulsion Energy =            338.8489383924060689
    One-Electron Energy =               -1203.4552857028697872
    Two-Electron Energy =                 482.2760391988005040
    Total Energy =                       -382.3303081116631574
  Basis Set: (AUG-CC-PVTZ AUX)
    Blend: AUG-CC-PVTZ-RI
    Molecular point group: c1

    Geometry (in Angstrom), charge = -1, multiplicity = 1:

       Center              X                  Y                   Z               Mass
    ------------   -----------------  -----------------  -----------------  -----------------
         O           -2.778885043880    -0.915702245388    -0.551832085892    15.994914619570
         O           -2.384832043880     1.262075754612    -0.033250085892    15.994914619570
         C            2.698562956120     0.150504754612    -0.667203085892    12.000000000000
         C            1.460402956120    -0.463413245388    -0.079808085892    12.000000000000
         C            0.346660956120     0.215755754612     0.238735914108    12.000000000000
         C           -0.891815043880    -0.376774245388     0.843703914108    12.000000000000
         C            3.899181956120     0.058803754612     0.280963914108    12.000000000000
         C           -2.138455043880     0.019304754612     0.013121914108    12.000000000000
         H            2.952335956120    -0.352433245388    -1.610153085892     1.007825032230
         H            2.498883956120     1.200168754612    -0.913092085892     1.007825032230
         H            1.499412956120    -1.538123245388     0.113863914108     1.007825032230
         H            0.227840756120     1.251762754612    -0.143547785892     1.007825032230
         H           -0.803405043880    -1.466643245388     0.905934914108     1.007825032230
         H           -1.023684043880     0.018971754612     1.861324914108     1.007825032230
         H            4.120295956120    -0.983700245388     0.529590914108     1.007825032230
         H            3.689679956120     0.589720754612     1.213979914108     1.007825032230
         H            4.796864956120     0.496019754612    -0.167744085892     1.007825032230

  Basis Set: AUG-CC-PVTZ
    Blend: AUG-CC-PVTZ
  Basis Set: (AUG-CC-PVTZ AUX)
    Blend: AUG-CC-PVTZ-JKFIT
	 Reference Energy          =    -382.3303081116631574 [Eh]
	 Singles Energy            =      -0.0000000000000000 [Eh]
	 Same-Spin Energy          =      -0.3911629802287739 [Eh]
	 Opposite-Spin Energy      =      -1.2600045206326325 [Eh]
	 Correlation Energy        =      -1.6511675008614064 [Eh]
	 Total Energy              =    -383.9814756125245481 [Eh]

	 ================> DF-SCS-MP2 Energies <==================
	-----------------------------------------------------------
	 SCS Same-Spin Scale       =       0.3333333333333333 [-]
	 SCS Opposite-Spin Scale   =       1.2000000000000000 [-]
	 SCS Same-Spin Energy      =      -0.1303876600762580 [Eh]
	 SCS Opposite-Spin Energy  =      -1.5120054247591590 [Eh]
	 SCS Correlation Energy    =      -1.6423930848354169 [Eh]
	 SCS Total Energy          =    -383.9727011964985763 [Eh]
	-----------------------------------------------------------

  Dipole Moment: [D]
     X:    10.6615      Y:    -0.7576      Z:     1.5560     Total:    10.8011

*** Psi4 exiting successfully. Buy a developer a beer!
