                               Psi4 1.4a2.dev612

  ==> Input File <==

--------------------------------------------------------------------------
#psi4
#
memory 32 gb

molecule  {
-1 1
  O       -2.9259140    -0.9099280    -0.5693610
  O       -2.5318610     1.2678500    -0.0507790
  C        2.5515340     0.1562790    -0.6847320
  C        1.3133740    -0.4576390    -0.0973370
  C        0.1996320     0.2215300     0.2212070
  C       -1.0100649    -0.3665295     0.7855329
  C        3.7521530     0.0645780     0.2634350
  C       -2.2854840     0.0250790    -0.0044070
  H        2.8053070    -0.3466590    -1.6276820
  H        2.3518550     1.2059430    -0.9306210
  H        1.3523840    -1.5323490     0.0963350
  H        0.1538580     1.2934970     0.0216010
  H       -0.9504340    -1.4608690     0.8884060
  H       -1.1707130     0.0247460     1.8437960
  H        3.9732670    -0.9779260     0.5120620
  H        3.5426510     0.5954950     1.1964510
  H        4.6498360     0.5017940    -0.1852730
units angstrom
no_reorient  #important for SAPT in psi4, default
symmetry c1  #important for SAPT in psi4, default
}

set PROPERTIES_ORIGIN ["COM"]
properties('MP2/aug-cc-pvtz', properties = ['dipole'])
--------------------------------------------------------------------------

    Molecular point group: c1
  Charge       = -1
  Multiplicity = 1
  Basis Set: AUG-CC-PVTZ
    Blend: AUG-CC-PVTZ
  Basis Set: (AUG-CC-PVTZ AUX)
    Blend: AUG-CC-PVTZ-JKFIT

    Orbital Energies [Eh]
    ---------------------

    Doubly Occupied:

       1A    -20.298353     2A    -20.296162     3A    -11.144739
       4A    -11.123521     5A    -11.121234     6A    -11.098425
       7A    -11.095199     8A    -11.070951     9A     -1.165999
      10A     -1.065135    11A     -0.970394    12A     -0.905320
      13A     -0.806828    14A     -0.721157    15A     -0.623413
      16A     -0.535545    17A     -0.514721    18A     -0.499956
      19A     -0.456298    20A     -0.442290    21A     -0.429258
      22A     -0.415306    23A     -0.401098    24A     -0.383297
      25A     -0.372306    26A     -0.348965    27A     -0.325123
      28A     -0.238792    29A     -0.211224    30A     -0.195873
      31A     -0.187024

  @DF-RHF Final Energy:  -382.33030750967890

   => Energetics <=

    Nuclear Repulsion Energy =            339.3394791436938931
    One-Electron Energy =               -1204.4117627710888883
    Two-Electron Energy =                 482.7419761177160922
    Total Energy =                       -382.3303075096789030
  Basis Set: (AUG-CC-PVTZ AUX)
    Blend: AUG-CC-PVTZ-RI
    Molecular point group: c1

    Geometry (in Angstrom), charge = -1, multiplicity = 1:

       Center              X                  Y                   Z               Mass
    ------------   -----------------  -----------------  -----------------  -----------------
         O           -2.782590740374    -0.916497285064    -0.549146809422    15.994914619570
         O           -2.388537740374     1.261280714936    -0.030564809422    15.994914619570
         C            2.694857259626     0.149709714936    -0.664517809422    12.000000000000
         C            1.456697259626    -0.464208285064    -0.077122809422    12.000000000000
         C            0.342955259626     0.214960714936     0.241421190578    12.000000000000
         C           -0.866741640374    -0.373098785064     0.805747090578    12.000000000000
         C            3.895476259626     0.058008714936     0.283649190578    12.000000000000
         C           -2.142160740374     0.018509714936     0.015807190578    12.000000000000
         H            2.948630259626    -0.353228285064    -1.607467809422     1.007825032230
         H            2.495178259626     1.199373714936    -0.910406809422     1.007825032230
         H            1.495707259626    -1.538918285064     0.116549190578     1.007825032230
         H            0.297181259626     1.286927714936     0.041815190578     1.007825032230
         H           -0.807110740374    -1.467438285064     0.908620190578     1.007825032230
         H           -1.027389740374     0.018176714936     1.864010190578     1.007825032230
         H            4.116590259626    -0.984495285064     0.532276190578     1.007825032230
         H            3.685974259626     0.588925714936     1.216665190578     1.007825032230
         H            4.793159259626     0.495224714936    -0.165058809422     1.007825032230

  Basis Set: AUG-CC-PVTZ
    Blend: AUG-CC-PVTZ
  Basis Set: (AUG-CC-PVTZ AUX)
    Blend: AUG-CC-PVTZ-JKFIT
	 Reference Energy          =    -382.3303075096789030 [Eh]
	 Singles Energy            =      -0.0000000000000000 [Eh]
	 Same-Spin Energy          =      -0.3914082566683681 [Eh]
	 Opposite-Spin Energy      =      -1.2600051710014273 [Eh]
	 Correlation Energy        =      -1.6514134276697954 [Eh]
	 Total Energy              =    -383.9817209373487117 [Eh]

	 ================> DF-SCS-MP2 Energies <==================
	-----------------------------------------------------------
	 SCS Same-Spin Scale       =       0.3333333333333333 [-]
	 SCS Opposite-Spin Scale   =       1.2000000000000000 [-]
	 SCS Same-Spin Energy      =      -0.1304694188894560 [Eh]
	 SCS Opposite-Spin Energy  =      -1.5120062052017127 [Eh]
	 SCS Correlation Energy    =      -1.6424756240911687 [Eh]
	 SCS Total Energy          =    -383.9727831337700650 [Eh]
	-----------------------------------------------------------

  Dipole Moment: [D]
     X:    10.6825      Y:    -0.7141      Z:     1.6059     Total:    10.8261

*** Psi4 exiting successfully. Buy a developer a beer!
