                               Psi4 1.4a3.dev225

  ==> Input File <==

--------------------------------------------------------------------------
#psi4
#
memory 32 gb

molecule  {
0 1
  P        0.8768730    -0.1227020    -0.0963880
  O       -0.6616900    -0.4669690    -0.3477670
  O        1.0437430     0.0794150     1.5121170
  O        0.9276490     1.4110650    -0.6042510
  O        1.7962943    -1.0609877    -0.6556992
  C       -1.7021250     0.4138110     0.1607360
  C       -3.0206860    -0.2869630    -0.0679060
  H       -1.5201960     0.5987390     1.2233000
  H       -1.6444250     1.3614050    -0.3799660
  H       -3.8417660     0.3429090     0.2865800
  H       -3.1647720    -0.4853110    -1.1316920
  H       -3.0471290    -1.2354240     0.4720910
  H        1.4666950    -0.7151170     1.8872290
  H        1.8298220     1.7749190    -0.5472100
units angstrom
no_reorient  #important for SAPT in psi4, default
symmetry c1  #important for SAPT in psi4, default
}

set PROPERTIES_ORIGIN ["COM"]
properties('MP2/aug-cc-pvtz', properties = ['dipole'])
--------------------------------------------------------------------------

    Molecular point group: c1
  Charge       = 0
  Multiplicity = 1
  Basis Set: AUG-CC-PVTZ
    Blend: AUG-CC-PVTZ
  Basis Set: (AUG-CC-PVTZ AUX)
    Blend: AUG-CC-PVTZ-JKFIT

    Orbital Energies [Eh]
    ---------------------

    Doubly Occupied:

       1A    -80.104133     2A    -20.608971     3A    -20.606569
       4A    -20.593155     5A    -20.515779     6A    -11.301556
       7A    -11.229290     8A     -7.622007     9A     -5.520108
      10A     -5.519884    11A     -5.519515    12A     -1.454074
      13A     -1.381938    14A     -1.381020    15A     -1.319394
      16A     -1.039429    17A     -0.870744    18A     -0.839963
      19A     -0.752181    20A     -0.718205    21A     -0.672768
      22A     -0.666681    23A     -0.640023    24A     -0.604647
      25A     -0.589663    26A     -0.570787    27A     -0.561175
      28A     -0.547336    29A     -0.534859    30A     -0.509321
      31A     -0.485941    32A     -0.482945    33A     -0.476438

  @DF-RHF Final Energy:  -720.30510507103406

   => Energetics <=

    Nuclear Repulsion Energy =            441.6741460730771109
    One-Electron Energy =               -1871.4775069330635233
    Two-Electron Energy =                 709.4982557889524060
    Total Energy =                       -720.3051050710340633
  Basis Set: (AUG-CC-PVTZ AUX)
    Blend: AUG-CC-PVTZ-RI
    Molecular point group: c1

    Geometry (in Angstrom), charge = 0, multiplicity = 1:

       Center              X                  Y                   Z               Mass
    ------------   -----------------  -----------------  -----------------  -----------------
         P            0.796187295411    -0.112997603292    -0.083879622326    30.973761998420
         O           -0.742375704589    -0.457264603292    -0.335258622326    15.994914619570
         O            0.963057295411     0.089119396708     1.524625377674    15.994914619570
         O            0.846963295411     1.420769396708    -0.591742622326    15.994914619570
         O            1.715608595411    -1.051283303292    -0.643190822326    15.994914619570
         C           -1.782810704589     0.423515396708     0.173244377674    12.000000000000
         C           -3.101371704589    -0.277258603292    -0.055397622326    12.000000000000
         H           -1.600881704589     0.608443396708     1.235808377674     1.007825032230
         H           -1.725110704589     1.371109396708    -0.367457622326     1.007825032230
         H           -3.922451704589     0.352613396708     0.299088377674     1.007825032230
         H           -3.245457704589    -0.475606603292    -1.119183622326     1.007825032230
         H           -3.127814704589    -1.225719603292     0.484599377674     1.007825032230
         H            1.386009295411    -0.705412603292     1.899737377674     1.007825032230
         H            1.749136295411     1.784623396708    -0.534701622326     1.007825032230

  Basis Set: AUG-CC-PVTZ
    Blend: AUG-CC-PVTZ
  Basis Set: (AUG-CC-PVTZ AUX)
    Blend: AUG-CC-PVTZ-JKFIT
	 Reference Energy          =    -720.3051050710340633 [Eh]
	 Singles Energy            =      -0.0000000000000000 [Eh]
	 Same-Spin Energy          =      -0.4060433801205940 [Eh]
	 Opposite-Spin Energy      =      -1.2279174925235283 [Eh]
	 Correlation Energy        =      -1.6339608726441224 [Eh]
	 Total Energy              =    -721.9390659436782016 [Eh]

	 ================> DF-SCS-MP2 Energies <==================
	-----------------------------------------------------------
	 SCS Same-Spin Scale       =       0.3333333333333333 [-]
	 SCS Opposite-Spin Scale   =       1.2000000000000000 [-]
	 SCS Same-Spin Energy      =      -0.1353477933735313 [Eh]
	 SCS Opposite-Spin Energy  =      -1.4735009910282340 [Eh]
	 SCS Correlation Energy    =      -1.6088487844017654 [Eh]
	 SCS Total Energy          =    -721.9139538554358069 [Eh]
	-----------------------------------------------------------

  Dipole Moment: [D]
     X:    -1.3801      Y:     1.9974      Z:     2.1159     Total:     3.2204

*** Psi4 exiting successfully. Buy a developer a beer!
