                               Psi4 1.3.2 release

  ==> Input File <==

--------------------------------------------------------------------------
#psi4
#
memory 32 gb

molecule  {
0 1
  P        0.7984170    -0.0731530     0.0007800
  O       -0.7205056    -0.5840774     0.0459581
  O        0.8457776     1.0066342     1.2031015
  O        0.8671220     0.9192840    -1.2738770
  O        1.7953140    -1.1636690     0.0390540
  C       -1.8145860     0.3407390    -0.0037780
  C       -3.0906020    -0.4663650     0.0208240
  H       -1.7354340     1.0001470     0.8651380
  H       -1.7363090     0.9469350    -0.9108340
  H       -3.9518740     0.2065980     0.0015450
  H       -3.1410370    -1.1262340    -0.8468920
  H       -3.1399160    -1.0739070     0.9260840
  H        1.4163280     0.6542800     1.9234740
  H        1.3957000     0.5030980    -1.9791460
units angstrom
no_reorient  #important for SAPT in psi4, default
symmetry c1  #important for SAPT in psi4, default
}

set PROPERTIES_ORIGIN ["COM"]
properties('MP2/aug-cc-pvtz', properties = ['dipole'])
--------------------------------------------------------------------------

    Molecular point group: c1
  Charge       = 0
  Multiplicity = 1
  Basis Set: AUG-CC-PVTZ
    Blend: AUG-CC-PVTZ
  Basis Set: (AUG-CC-PVTZ AUX)
    Blend: AUG-CC-PVTZ-JKFIT

    Orbital Energies [Eh]
    ---------------------

    Doubly Occupied:

       1A    -80.115555     2A    -20.612195     3A    -20.610576
       4A    -20.592751     5A    -20.521868     6A    -11.299751
       7A    -11.228959     8A     -7.631018     9A     -5.529378
      10A     -5.529122    11A     -5.528169    12A     -1.455335
      13A     -1.387736    14A     -1.384194    15A     -1.301952
      16A     -1.039335    17A     -0.873955    18A     -0.845838
      19A     -0.732429    20A     -0.728841    21A     -0.678171
      22A     -0.669818    23A     -0.645791    24A     -0.620115
      25A     -0.585110    26A     -0.568487    27A     -0.563765
      28A     -0.544588    29A     -0.531754    30A     -0.505022
      31A     -0.482570    32A     -0.476746    33A     -0.471789

  @DF-RHF Final Energy:  -720.30296727110795

   => Energetics <=

    Nuclear Repulsion Energy =            439.7783634331938174
    One-Electron Energy =               -1867.5773013956777504
    Two-Electron Energy =                 707.4959706913759874
    Total Energy =                       -720.3029672711079456
  Basis Set: (AUG-CC-PVTZ AUX)
    Blend: AUG-CC-PVTZ-RI
    Molecular point group: c1

    Geometry (in Angstrom), charge = 0, multiplicity = 1:

       Center              X                  Y                   Z               Mass
    ------------   -----------------  -----------------  -----------------  -----------------
         P            0.802550881225    -0.074709383514    -0.002677174314    30.973761998420
         O           -0.716371718775    -0.585633783514     0.042500925686    15.994914619570
         O            0.849911481225     1.005077816486     1.199644325686    15.994914619570
         O            0.871255881225     0.917727616486    -1.277334174314    15.994914619570
         O            1.799447881225    -1.165225383514     0.035596825686    15.994914619570
         C           -1.810452118775     0.339182616486    -0.007235174314    12.000000000000
         C           -3.086468118775    -0.467921383514     0.017366825686    12.000000000000
         H           -1.731300118775     0.998590616486     0.861680825686     1.007825032230
         H           -1.732175118775     0.945378616486    -0.914291174314     1.007825032230
         H           -3.947740118775     0.205041616486    -0.001912174314     1.007825032230
         H           -3.136903118775    -1.127790383514    -0.850349174314     1.007825032230
         H           -3.135782118775    -1.075463383514     0.922626825686     1.007825032230
         H            1.420461881225     0.652723616486     1.920016825686     1.007825032230
         H            1.399833881225     0.501541616486    -1.982603174314     1.007825032230

  Basis Set: AUG-CC-PVTZ
    Blend: AUG-CC-PVTZ
  Basis Set: (AUG-CC-PVTZ AUX)
    Blend: AUG-CC-PVTZ-JKFIT
	 Reference Energy          =    -720.3029672711079456 [Eh]
	 Singles Energy            =      -0.0000000000000000 [Eh]
	 Same-Spin Energy          =      -0.4072082980637365 [Eh]
	 Opposite-Spin Energy      =      -1.2302578222949494 [Eh]
	 Correlation Energy        =      -1.6374661203586860 [Eh]
	 Total Energy              =    -721.9404333914666267 [Eh]

	 ================> DF-SCS-MP2 Energies <==================
	-----------------------------------------------------------
	 SCS Same-Spin Scale       =       0.3333333333333333 [-]
	 SCS Opposite-Spin Scale   =       1.2000000000000000 [-]
	 SCS Same-Spin Energy      =      -0.1357360993545788 [Eh]
	 SCS Opposite-Spin Energy  =      -1.4763093867539392 [Eh]
	 SCS Correlation Energy    =      -1.6120454861085181 [Eh]
	 SCS Total Energy          =    -721.9150127572164592 [Eh]
	-----------------------------------------------------------

  Dipole Moment: [D]
     X:    -1.8674      Y:     1.8306      Z:    -0.1303     Total:     2.6183

*** Psi4 exiting successfully. Buy a developer a beer!
