                               Psi4 1.3.2 release

  ==> Input File <==

--------------------------------------------------------------------------
#psi4
#
memory 32 gb

molecule  {
0 1
  P        0.7822151    -0.0553843    -0.0139832
  O       -0.7151460    -0.6011470     0.0244450
  O        0.8729860     1.0114440     1.1973790
  O        0.8671220     0.9192840    -1.2738770
  O        1.7953140    -1.1636690     0.0390540
  C       -1.8145860     0.3407390    -0.0037780
  C       -3.0906020    -0.4663650     0.0208240
  H       -1.7354340     1.0001470     0.8651380
  H       -1.7363090     0.9469350    -0.9108340
  H       -3.9518740     0.2065980     0.0015450
  H       -3.1410370    -1.1262340    -0.8468920
  H       -3.1399160    -1.0739070     0.9260840
  H        1.4137477     0.6686174     1.9322581
  H        1.3957000     0.5030980    -1.9791460
units angstrom
no_reorient  #important for SAPT in psi4, default
symmetry c1  #important for SAPT in psi4, default
}

set PROPERTIES_ORIGIN ["COM"]
properties('MP2/aug-cc-pvtz', properties = ['dipole'])
--------------------------------------------------------------------------

    Molecular point group: c1
  Charge       = 0
  Multiplicity = 1
  Basis Set: AUG-CC-PVTZ
    Blend: AUG-CC-PVTZ
  Basis Set: (AUG-CC-PVTZ AUX)
    Blend: AUG-CC-PVTZ-JKFIT

    Orbital Energies [Eh]
    ---------------------

    Doubly Occupied:

       1A    -80.115340     2A    -20.615814     3A    -20.608437
       4A    -20.597343     5A    -20.513194     6A    -11.304143
       7A    -11.231485     8A     -7.630491     9A     -5.528928
      10A     -5.528619    11A     -5.527519    12A     -1.458648
      13A     -1.393400    14A     -1.386011    15A     -1.284156
      16A     -1.042409    17A     -0.875241    18A     -0.852796
      19A     -0.737269    20A     -0.734260    21A     -0.677413
      22A     -0.673070    23A     -0.644784    24A     -0.622840
      25A     -0.586608    26A     -0.571315    27A     -0.559160
      28A     -0.541117    29A     -0.534205    30A     -0.511239
      31A     -0.485960    32A     -0.464044    33A     -0.461887

  @DF-RHF Final Energy:  -720.30231841220439

   => Energetics <=

    Nuclear Repulsion Energy =            439.6552780631687938
    One-Electron Energy =               -1867.3169001835019571
    Two-Electron Energy =                 707.3593037081286639
    Total Energy =                       -720.3023184122043858
  Basis Set: (AUG-CC-PVTZ AUX)
    Blend: AUG-CC-PVTZ-RI
    Molecular point group: c1

    Geometry (in Angstrom), charge = 0, multiplicity = 1:

       Center              X                  Y                   Z               Mass
    ------------   -----------------  -----------------  -----------------  -----------------
         P            0.786218131848    -0.059866831446    -0.010424559994    30.973761998420
         O           -0.711142968152    -0.605629531446     0.028003640006    15.994914619570
         O            0.876989031848     1.006961468554     1.200937640006    15.994914619570
         O            0.871125031848     0.914801468554    -1.270318359994    15.994914619570
         O            1.799317031848    -1.168151531446     0.042612640006    15.994914619570
         C           -1.810582968152     0.336256468554    -0.000219359994    12.000000000000
         C           -3.086598968152    -0.470847531446     0.024382640006    12.000000000000
         H           -1.731430968152     0.995664468554     0.868696640006     1.007825032230
         H           -1.732305968152     0.942452468554    -0.907275359994     1.007825032230
         H           -3.947870968152     0.202115468554     0.005103640006     1.007825032230
         H           -3.137033968152    -1.130716531446    -0.843333359994     1.007825032230
         H           -3.135912968152    -1.078389531446     0.929642640006     1.007825032230
         H            1.417750731848     0.664134868554     1.935816740006     1.007825032230
         H            1.399703031848     0.498615468554    -1.975587359994     1.007825032230

  Basis Set: AUG-CC-PVTZ
    Blend: AUG-CC-PVTZ
  Basis Set: (AUG-CC-PVTZ AUX)
    Blend: AUG-CC-PVTZ-JKFIT
	 Reference Energy          =    -720.3023184122043858 [Eh]
	 Singles Energy            =      -0.0000000000000000 [Eh]
	 Same-Spin Energy          =      -0.4072201381077358 [Eh]
	 Opposite-Spin Energy      =      -1.2302071195674797 [Eh]
	 Correlation Energy        =      -1.6374272576752156 [Eh]
	 Total Energy              =    -721.9397456698795850 [Eh]

	 ================> DF-SCS-MP2 Energies <==================
	-----------------------------------------------------------
	 SCS Same-Spin Scale       =       0.3333333333333333 [-]
	 SCS Opposite-Spin Scale   =       1.2000000000000000 [-]
	 SCS Same-Spin Energy      =      -0.1357400460359119 [Eh]
	 SCS Opposite-Spin Energy  =      -1.4762485434809756 [Eh]
	 SCS Correlation Energy    =      -1.6119885895168875 [Eh]
	 SCS Total Energy          =    -721.9143070017212267 [Eh]
	-----------------------------------------------------------

  Dipole Moment: [D]
     X:    -2.2122      Y:     2.0688      Z:    -0.2054     Total:     3.0358

*** Psi4 exiting successfully. Buy a developer a beer!
