                               Psi4 1.4a3.dev225

  ==> Input File <==

--------------------------------------------------------------------------
#psi4
#
memory 32 gb

molecule  {
0 1
  P        0.8768730    -0.1227020    -0.0963880
  O       -0.6616900    -0.4669690    -0.3477670
  O        1.0437430     0.0794150     1.5121170
  O        0.9276490     1.4110650    -0.6042510
  O        1.8284920    -1.0938460    -0.6752860
  C       -1.7021250     0.4138110     0.1607360
  C       -3.0206860    -0.2869630    -0.0679060
  H       -1.5201960     0.5987390     1.2233000
  H       -1.6444250     1.3614050    -0.3799660
  H       -3.8417660     0.3429090     0.2865800
  H       -3.1647720    -0.4853110    -1.1316920
  H       -3.0471290    -1.2354240     0.4720910
  H        1.4580202    -0.6988211     1.8795354
  H        1.8298220     1.7749190    -0.5472100
units angstrom
no_reorient  #important for SAPT in psi4, default
symmetry c1  #important for SAPT in psi4, default
}

set PROPERTIES_ORIGIN ["COM"]
properties('MP2/aug-cc-pvtz', properties = ['dipole'])
--------------------------------------------------------------------------

    Molecular point group: c1
  Charge       = 0
  Multiplicity = 1
  Basis Set: AUG-CC-PVTZ
    Blend: AUG-CC-PVTZ
  Basis Set: (AUG-CC-PVTZ AUX)
    Blend: AUG-CC-PVTZ-JKFIT

    Orbital Energies [Eh]
    ---------------------

    Doubly Occupied:

       1A    -80.114911     2A    -20.612845     3A    -20.609062
       4A    -20.596676     5A    -20.517912     6A    -11.303772
       7A    -11.230731     8A     -7.630193     9A     -5.528635
      10A     -5.528423    11A     -5.527156    12A     -1.455610
      13A     -1.388755    14A     -1.384198    15A     -1.298496
      16A     -1.041424    17A     -0.873765    18A     -0.845098
      19A     -0.757793    20A     -0.720353    21A     -0.675513
      22A     -0.669251    23A     -0.640378    24A     -0.606240
      25A     -0.590806    26A     -0.570718    27A     -0.560120
      28A     -0.546064    29A     -0.536475    30A     -0.511503
      31A     -0.486289    32A     -0.472679    33A     -0.468964

  @DF-RHF Final Energy:  -720.30392521287752

   => Energetics <=

    Nuclear Repulsion Energy =            439.4920403995070615
    One-Electron Energy =               -1866.9903176180343962
    Two-Electron Energy =                 707.1943520056498755
    Total Energy =                       -720.3039252128775161
  Basis Set: (AUG-CC-PVTZ AUX)
    Blend: AUG-CC-PVTZ-RI
    Molecular point group: c1

    Geometry (in Angstrom), charge = 0, multiplicity = 1:

       Center              X                  Y                   Z               Mass
    ------------   -----------------  -----------------  -----------------  -----------------
         P            0.792169645773    -0.108957054308    -0.081331827759    30.973761998420
         O           -0.746393354227    -0.453224054308    -0.332710827759    15.994914619570
         O            0.959039645773     0.093159945692     1.527173172241    15.994914619570
         O            0.842945645773     1.424809945692    -0.589194827759    15.994914619570
         O            1.743788645773    -1.080101054308    -0.660229827759    15.994914619570
         C           -1.786828354227     0.427555945692     0.175792172241    12.000000000000
         C           -3.105389354227    -0.273218054308    -0.052849827759    12.000000000000
         H           -1.604899354227     0.612483945692     1.238356172241     1.007825032230
         H           -1.729128354227     1.375149945692    -0.364909827759     1.007825032230
         H           -3.926469354227     0.356653945692     0.301636172241     1.007825032230
         H           -3.249475354227    -0.471566054308    -1.116635827759     1.007825032230
         H           -3.131832354227    -1.221679054308     0.487147172241     1.007825032230
         H            1.373316845773    -0.685076154308     1.894591572241     1.007825032230
         H            1.745118645773     1.788663945692    -0.532153827759     1.007825032230

  Basis Set: AUG-CC-PVTZ
    Blend: AUG-CC-PVTZ
  Basis Set: (AUG-CC-PVTZ AUX)
    Blend: AUG-CC-PVTZ-JKFIT
	 Reference Energy          =    -720.3039252128775161 [Eh]
	 Singles Energy            =      -0.0000000000000000 [Eh]
	 Same-Spin Energy          =      -0.4070071948104249 [Eh]
	 Opposite-Spin Energy      =      -1.2301963526883934 [Eh]
	 Correlation Energy        =      -1.6372035474988182 [Eh]
	 Total Energy              =    -721.9411287603763867 [Eh]

	 ================> DF-SCS-MP2 Energies <==================
	-----------------------------------------------------------
	 SCS Same-Spin Scale       =       0.3333333333333333 [-]
	 SCS Opposite-Spin Scale   =       1.2000000000000000 [-]
	 SCS Same-Spin Energy      =      -0.1356690649368083 [Eh]
	 SCS Opposite-Spin Energy  =      -1.4762356232260720 [Eh]
	 SCS Correlation Energy    =      -1.6119046881628802 [Eh]
	 SCS Total Energy          =    -721.9158299010404107 [Eh]
	-----------------------------------------------------------

  Dipole Moment: [D]
     X:    -1.5740      Y:     2.1811      Z:     2.1981     Total:     3.4737

*** Psi4 exiting successfully. Buy a developer a beer!
