                               Psi4 1.3.2 release

  ==> Input File <==

--------------------------------------------------------------------------
#psi4
#
memory 32 gb

molecule  {
0 1
  P        0.7984170    -0.0731530     0.0007800
  O       -0.6957793    -0.6536129     0.0263599
  O        0.8729860     1.0114440     1.1973790
  O        0.8671220     0.9192840    -1.2738770
  O        1.7566251    -1.1977680     0.0404304
  C       -1.8145860     0.3407390    -0.0037780
  C       -3.0906020    -0.4663650     0.0208240
  H       -1.7354340     1.0001470     0.8651380
  H       -1.7363090     0.9469350    -0.9108340
  H       -3.9518740     0.2065980     0.0015450
  H       -3.1410370    -1.1262340    -0.8468920
  H       -3.1399160    -1.0739070     0.9260840
  H        1.4163280     0.6542800     1.9234740
  H        1.3957000     0.5030980    -1.9791460
units angstrom
no_reorient  #important for SAPT in psi4, default
symmetry c1  #important for SAPT in psi4, default
}

set PROPERTIES_ORIGIN ["COM"]
properties('MP2/aug-cc-pvtz', properties = ['dipole'])
--------------------------------------------------------------------------

    Molecular point group: c1
  Charge       = 0
  Multiplicity = 1
  Basis Set: AUG-CC-PVTZ
    Blend: AUG-CC-PVTZ
  Basis Set: (AUG-CC-PVTZ AUX)
    Blend: AUG-CC-PVTZ-JKFIT

    Orbital Energies [Eh]
    ---------------------

    Doubly Occupied:

       1A    -80.111786     2A    -20.612575     3A    -20.612536
       4A    -20.593370     5A    -20.513786     6A    -11.306569
       7A    -11.231668     8A     -7.627510     9A     -5.525856
      10A     -5.525359    11A     -5.524781    12A     -1.451709
      13A     -1.388065    14A     -1.374656    15A     -1.294536
      16A     -1.040997    17A     -0.867130    18A     -0.850117
      19A     -0.729269    20A     -0.725763    21A     -0.675626
      22A     -0.666538    23A     -0.645682    24A     -0.616593
      25A     -0.581294    26A     -0.568922    27A     -0.561601
      28A     -0.541318    29A     -0.531259    30A     -0.514264
      31A     -0.489211    32A     -0.467678    33A     -0.467401

  @DF-RHF Final Energy:  -720.29958753674475

   => Energetics <=

    Nuclear Repulsion Energy =            438.6396554408617021
    One-Electron Energy =               -1865.4076385639878026
    Two-Electron Energy =                 706.4683955863814617
    Total Energy =                       -720.2995875367447525
  Basis Set: (AUG-CC-PVTZ AUX)
    Blend: AUG-CC-PVTZ-RI
    Molecular point group: c1

    Geometry (in Angstrom), charge = 0, multiplicity = 1:

       Center              X                  Y                   Z               Mass
    ------------   -----------------  -----------------  -----------------  -----------------
         P            0.800869518843    -0.062165019793     0.000362207624    30.973761998420
         O           -0.693326781157    -0.642624919793     0.025942107624    15.994914619570
         O            0.875438518843     1.022431980207     1.196961207624    15.994914619570
         O            0.869574518843     0.930271980207    -1.274294792376    15.994914619570
         O            1.759077618843    -1.186780019793     0.040012607624    15.994914619570
         C           -1.812133481157     0.351726980207    -0.004195792376    12.000000000000
         C           -3.088149481157    -0.455377019793     0.020406207624    12.000000000000
         H           -1.732981481157     1.011134980207     0.864720207624     1.007825032230
         H           -1.733856481157     0.957922980207    -0.911251792376     1.007825032230
         H           -3.949421481157     0.217585980207     0.001127207624     1.007825032230
         H           -3.138584481157    -1.115246019793    -0.847309792376     1.007825032230
         H           -3.137463481157    -1.062919019793     0.925666207624     1.007825032230
         H            1.418780518843     0.665267980207     1.923056207624     1.007825032230
         H            1.398152518843     0.514085980207    -1.979563792376     1.007825032230

  Basis Set: AUG-CC-PVTZ
    Blend: AUG-CC-PVTZ
  Basis Set: (AUG-CC-PVTZ AUX)
    Blend: AUG-CC-PVTZ-JKFIT
	 Reference Energy          =    -720.2995875367447525 [Eh]
	 Singles Energy            =      -0.0000000000000000 [Eh]
	 Same-Spin Energy          =      -0.4073451977956573 [Eh]
	 Opposite-Spin Energy      =      -1.2313838142155276 [Eh]
	 Correlation Energy        =      -1.6387290120111848 [Eh]
	 Total Energy              =    -721.9383165487558927 [Eh]

	 ================> DF-SCS-MP2 Energies <==================
	-----------------------------------------------------------
	 SCS Same-Spin Scale       =       0.3333333333333333 [-]
	 SCS Opposite-Spin Scale   =       1.2000000000000000 [-]
	 SCS Same-Spin Energy      =      -0.1357817325985524 [Eh]
	 SCS Opposite-Spin Energy  =      -1.4776605770586331 [Eh]
	 SCS Correlation Energy    =      -1.6134423096571855 [Eh]
	 SCS Total Energy          =    -721.9130298464019688 [Eh]
	-----------------------------------------------------------

  Dipole Moment: [D]
     X:    -2.0820      Y:     2.1236      Z:    -0.0769     Total:     2.9750

*** Psi4 exiting successfully. Buy a developer a beer!
