                               Psi4 1.3.2 release

  ==> Input File <==

--------------------------------------------------------------------------
#psi4
#
memory 32 gb

molecule  {
0 1
  P        0.7937475    -0.0599720     0.0003456
  O       -0.7151460    -0.6011470     0.0244450
  O        0.8729860     1.0114440     1.1973790
  O        0.8671220     0.9192840    -1.2738770
  O        1.7953140    -1.1636690     0.0390540
  C       -1.8063212     0.3502908    -0.0041357
  C       -3.0906020    -0.4663650     0.0208240
  H       -1.7354340     1.0001470     0.8651380
  H       -1.7363090     0.9469350    -0.9108340
  H       -3.9518740     0.2065980     0.0015450
  H       -3.1410370    -1.1262340    -0.8468920
  H       -3.1399160    -1.0739070     0.9260840
  H        1.4163280     0.6542800     1.9234740
  H        1.3957000     0.5030980    -1.9791460
units angstrom
no_reorient  #important for SAPT in psi4, default
symmetry c1  #important for SAPT in psi4, default
}

set PROPERTIES_ORIGIN ["COM"]
properties('MP2/aug-cc-pvtz', properties = ['dipole'])
--------------------------------------------------------------------------

    Molecular point group: c1
  Charge       = 0
  Multiplicity = 1
  Basis Set: AUG-CC-PVTZ
    Blend: AUG-CC-PVTZ
  Basis Set: (AUG-CC-PVTZ AUX)
    Blend: AUG-CC-PVTZ-JKFIT

    Orbital Energies [Eh]
    ---------------------

    Doubly Occupied:

       1A    -80.115074     2A    -20.612469     3A    -20.612406
       4A    -20.595449     5A    -20.516389     6A    -11.301998
       7A    -11.230709     8A     -7.630444     9A     -5.528855
      10A     -5.528507    11A     -5.527538    12A     -1.457105
      13A     -1.390521    14A     -1.386118    15A     -1.291871
      16A     -1.038122    17A     -0.873727    18A     -0.851488
      19A     -0.734351    20A     -0.732542    21A     -0.677837
      22A     -0.672229    23A     -0.646686    24A     -0.620970
      25A     -0.584222    26A     -0.570283    27A     -0.560607
      28A     -0.542790    29A     -0.533841    30A     -0.507059
      31A     -0.486567    32A     -0.468977    33A     -0.466856

  @DF-RHF Final Energy:  -720.30311767765807

   => Energetics <=

    Nuclear Repulsion Energy =            439.5363182347108477
    One-Electron Energy =               -1867.0896555698088832
    Two-Electron Energy =                 707.2502196574400841
    Total Energy =                       -720.3031176776580651
  Basis Set: (AUG-CC-PVTZ AUX)
    Blend: AUG-CC-PVTZ-RI
    Molecular point group: c1

    Geometry (in Angstrom), charge = 0, multiplicity = 1:

       Center              X                  Y                   Z               Mass
    ------------   -----------------  -----------------  -----------------  -----------------
         P            0.794108071124    -0.064121804528     0.000486433706    30.973761998420
         O           -0.714785428876    -0.605296804528     0.024585833706    15.994914619570
         O            0.873346571124     1.007294195472     1.197519833706    15.994914619570
         O            0.867482571124     0.915134195472    -1.273736166294    15.994914619570
         O            1.795674571124    -1.167818804528     0.039194833706    15.994914619570
         C           -1.805960628876     0.346140995472    -0.003994866294    12.000000000000
         C           -3.090241428876    -0.470514804528     0.020964833706    12.000000000000
         H           -1.735073428876     0.995997195472     0.865278833706     1.007825032230
         H           -1.735948428876     0.942785195472    -0.910693166294     1.007825032230
         H           -3.951513428876     0.202448195472     0.001685833706     1.007825032230
         H           -3.140676428876    -1.130383804528    -0.846751166294     1.007825032230
         H           -3.139555428876    -1.078056804528     0.926224833706     1.007825032230
         H            1.416688571124     0.650130195472     1.923614833706     1.007825032230
         H            1.396060571124     0.498948195472    -1.979005166294     1.007825032230

  Basis Set: AUG-CC-PVTZ
    Blend: AUG-CC-PVTZ
  Basis Set: (AUG-CC-PVTZ AUX)
    Blend: AUG-CC-PVTZ-JKFIT
	 Reference Energy          =    -720.3031176776580651 [Eh]
	 Singles Energy            =      -0.0000000000000000 [Eh]
	 Same-Spin Energy          =      -0.4071171351557865 [Eh]
	 Opposite-Spin Energy      =      -1.2302036441844211 [Eh]
	 Correlation Energy        =      -1.6373207793402076 [Eh]
	 Total Energy              =    -721.9404384569983222 [Eh]

	 ================> DF-SCS-MP2 Energies <==================
	-----------------------------------------------------------
	 SCS Same-Spin Scale       =       0.3333333333333333 [-]
	 SCS Opposite-Spin Scale   =       1.2000000000000000 [-]
	 SCS Same-Spin Energy      =      -0.1357057117185955 [Eh]
	 SCS Opposite-Spin Energy  =      -1.4762443730213053 [Eh]
	 SCS Correlation Energy    =      -1.6119500847399009 [Eh]
	 SCS Total Energy          =    -721.9150677623979391 [Eh]
	-----------------------------------------------------------

  Dipole Moment: [D]
     X:    -2.0479      Y:     2.0081      Z:    -0.0723     Total:     2.8691

*** Psi4 exiting successfully. Buy a developer a beer!
