                               Psi4 1.3.2 release

  ==> Input File <==

--------------------------------------------------------------------------
#psi4
#
memory 32 gb

molecule  {
0 1
  P        0.7984170    -0.0731530     0.0007800
  O       -0.9039652    -0.6670150     0.0273972
  O        0.8729860     1.0114440     1.1973790
  O        0.8671220     0.9192840    -1.2738770
  O        1.7953140    -1.1636690     0.0390540
  C       -1.8145860     0.3407390    -0.0037780
  C       -3.0906020    -0.4663650     0.0208240
  H       -1.7354340     1.0001470     0.8651380
  H       -1.7363090     0.9469350    -0.9108340
  H       -3.9518740     0.2065980     0.0015450
  H       -3.1410370    -1.1262340    -0.8468920
  H       -3.1399160    -1.0739070     0.9260840
  H        1.4163280     0.6542800     1.9234740
  H        1.3957000     0.5030980    -1.9791460
units angstrom
no_reorient  #important for SAPT in psi4, default
symmetry c1  #important for SAPT in psi4, default
}

set PROPERTIES_ORIGIN ["COM"]
properties('MP2/aug-cc-pvtz', properties = ['dipole'])
--------------------------------------------------------------------------

    Molecular point group: c1
  Charge       = 0
  Multiplicity = 1
  Basis Set: AUG-CC-PVTZ
    Blend: AUG-CC-PVTZ
  Basis Set: (AUG-CC-PVTZ AUX)
    Blend: AUG-CC-PVTZ-JKFIT

    Orbital Energies [Eh]
    ---------------------

    Doubly Occupied:

       1A    -80.137930     2A    -20.627214     3A    -20.627200
       4A    -20.592520     5A    -20.537441     6A    -11.278216
       7A    -11.214104     8A     -7.651446     9A     -5.549703
      10A     -5.549047    11A     -5.548469    12A     -1.456505
      13A     -1.400564    14A     -1.385068    15A     -1.316102
      16A     -1.013152    17A     -0.867466    18A     -0.846066
      19A     -0.735999    20A     -0.726338    21A     -0.689063
      22A     -0.672041    23A     -0.656863    24A     -0.617733
      25A     -0.586237    26A     -0.574655    27A     -0.567968
      28A     -0.534166    29A     -0.529202    30A     -0.502537
      31A     -0.489306    32A     -0.461652    33A     -0.459233

  @DF-RHF Final Energy:  -720.26508432013861

   => Energetics <=

    Nuclear Repulsion Energy =            434.9039648400296301
    One-Electron Energy =               -1857.5356851094379635
    Two-Electron Energy =                 702.3666359492697211
    Total Energy =                       -720.2650843201386124
  Basis Set: (AUG-CC-PVTZ AUX)
    Blend: AUG-CC-PVTZ-RI
    Molecular point group: c1

    Geometry (in Angstrom), charge = 0, multiplicity = 1:

       Center              X                  Y                   Z               Mass
    ------------   -----------------  -----------------  -----------------  -----------------
         P            0.822384707027    -0.064792191355     0.000405251456    30.973761998420
         O           -0.879997492973    -0.658654191355     0.027022451456    15.994914619570
         O            0.896953707027     1.019804808645     1.197004251456    15.994914619570
         O            0.891089707027     0.927644808645    -1.274251748544    15.994914619570
         O            1.819281707027    -1.155308191355     0.038679251456    15.994914619570
         C           -1.790618292973     0.349099808645    -0.004152748544    12.000000000000
         C           -3.066634292973    -0.458004191355     0.020449251456    12.000000000000
         H           -1.711466292973     1.008507808645     0.864763251456     1.007825032230
         H           -1.712341292973     0.955295808645    -0.911208748544     1.007825032230
         H           -3.927906292973     0.214958808645     0.001170251456     1.007825032230
         H           -3.117069292973    -1.117873191355    -0.847266748544     1.007825032230
         H           -3.115948292973    -1.065546191355     0.925709251456     1.007825032230
         H            1.440295707027     0.662640808645     1.923099251456     1.007825032230
         H            1.419667707027     0.511458808645    -1.979520748544     1.007825032230

  Basis Set: AUG-CC-PVTZ
    Blend: AUG-CC-PVTZ
  Basis Set: (AUG-CC-PVTZ AUX)
    Blend: AUG-CC-PVTZ-JKFIT
	 Reference Energy          =    -720.2650843201386124 [Eh]
	 Singles Energy            =      -0.0000000000000000 [Eh]
	 Same-Spin Energy          =      -0.4100808301803328 [Eh]
	 Opposite-Spin Energy      =      -1.2371121486235817 [Eh]
	 Correlation Energy        =      -1.6471929788039144 [Eh]
	 Total Energy              =    -721.9122772989425130 [Eh]

	 ================> DF-SCS-MP2 Energies <==================
	-----------------------------------------------------------
	 SCS Same-Spin Scale       =       0.3333333333333333 [-]
	 SCS Opposite-Spin Scale   =       1.2000000000000000 [-]
	 SCS Same-Spin Energy      =      -0.1366936100601109 [Eh]
	 SCS Opposite-Spin Energy  =      -1.4845345783482979 [Eh]
	 SCS Correlation Energy    =      -1.6212281884084088 [Eh]
	 SCS Total Energy          =    -721.8863125085470074 [Eh]
	-----------------------------------------------------------

  Dipole Moment: [D]
     X:    -0.5723      Y:     1.9713      Z:    -0.0767     Total:     2.0541

*** Psi4 exiting successfully. Buy a developer a beer!
