                               Psi4 1.4a3.dev225

  ==> Input File <==

--------------------------------------------------------------------------
#psi4
#
memory 32 gb

molecule  {
0 1
  P        0.8768730    -0.1227020    -0.0963880
  O       -0.6616900    -0.4669690    -0.3477670
  O        1.0437430     0.0794150     1.5121170
  O        0.9276490     1.4110650    -0.6042510
  O        1.8284920    -1.0938460    -0.6752860
  C       -1.7021250     0.4138110     0.1607360
  C       -3.0206860    -0.2869630    -0.0679060
  H       -1.5201960     0.5987390     1.2233000
  H       -1.6444250     1.3614050    -0.3799660
  H       -3.8417660     0.3429090     0.2865800
  H       -3.1647720    -0.4853110    -1.1316920
  H       -3.0471290    -1.2354240     0.4720910
  H        1.4883820    -0.7558568     1.9064629
  H        1.8298220     1.7749190    -0.5472100
units angstrom
no_reorient  #important for SAPT in psi4, default
symmetry c1  #important for SAPT in psi4, default
}

set PROPERTIES_ORIGIN ["COM"]
properties('MP2/aug-cc-pvtz', properties = ['dipole'])
--------------------------------------------------------------------------

    Molecular point group: c1
  Charge       = 0
  Multiplicity = 1
  Basis Set: AUG-CC-PVTZ
    Blend: AUG-CC-PVTZ
  Basis Set: (AUG-CC-PVTZ AUX)
    Blend: AUG-CC-PVTZ-JKFIT

    Orbital Energies [Eh]
    ---------------------

    Doubly Occupied:

       1A    -80.113555     2A    -20.613301     3A    -20.612182
       4A    -20.595816     5A    -20.516693     6A    -11.303183
       7A    -11.230331     8A     -7.628842     9A     -5.527286
      10A     -5.527055    11A     -5.525815    12A     -1.451429
      13A     -1.383427    14A     -1.376115    15A     -1.296769
      16A     -1.040836    17A     -0.872248    18A     -0.838832
      19A     -0.747491    20A     -0.718340    21A     -0.672386
      22A     -0.666652    23A     -0.637976    24A     -0.604907
      25A     -0.588685    26A     -0.569041    27A     -0.559211
      28A     -0.545174    29A     -0.534863    30A     -0.510725
      31A     -0.485415    32A     -0.471634    33A     -0.467640

  @DF-RHF Final Energy:  -720.29820819007375

   => Energetics <=

    Nuclear Repulsion Energy =            439.0271842649747782
    One-Electron Energy =               -1866.1830715974340364
    Two-Electron Energy =                 706.8576791423855639
    Total Energy =                       -720.2982081900737512
  Basis Set: (AUG-CC-PVTZ AUX)
    Blend: AUG-CC-PVTZ-RI
    Molecular point group: c1

    Geometry (in Angstrom), charge = 0, multiplicity = 1:

       Center              X                  Y                   Z               Mass
    ------------   -----------------  -----------------  -----------------  -----------------
         P            0.791926809330    -0.108500877582    -0.081547196358    30.973761998420
         O           -0.746636190670    -0.452767877582    -0.332926196358    15.994914619570
         O            0.958796809330     0.093616122418     1.526957803642    15.994914619570
         O            0.842702809330     1.425266122418    -0.589410196358    15.994914619570
         O            1.743545809330    -1.079644877582    -0.660445196358    15.994914619570
         C           -1.787071190670     0.428012122418     0.175576803642    12.000000000000
         C           -3.105632190670    -0.272761877582    -0.053065196358    12.000000000000
         H           -1.605142190670     0.612940122418     1.238140803642     1.007825032230
         H           -1.729371190670     1.375606122418    -0.365125196358     1.007825032230
         H           -3.926712190670     0.357110122418     0.301420803642     1.007825032230
         H           -3.249718190670    -0.471109877582    -1.116851196358     1.007825032230
         H           -3.132075190670    -1.221222877582     0.486931803642     1.007825032230
         H            1.403435809330    -0.741655677582     1.921303703642     1.007825032230
         H            1.744875809330     1.789120122418    -0.532369196358     1.007825032230

  Basis Set: AUG-CC-PVTZ
    Blend: AUG-CC-PVTZ
  Basis Set: (AUG-CC-PVTZ AUX)
    Blend: AUG-CC-PVTZ-JKFIT
	 Reference Energy          =    -720.2982081900737512 [Eh]
	 Singles Energy            =      -0.0000000000000000 [Eh]
	 Same-Spin Energy          =      -0.4077799502358109 [Eh]
	 Opposite-Spin Energy      =      -1.2321014792168776 [Eh]
	 Correlation Energy        =      -1.6398814294526884 [Eh]
	 Total Energy              =    -721.9380896195264086 [Eh]

	 ================> DF-SCS-MP2 Energies <==================
	-----------------------------------------------------------
	 SCS Same-Spin Scale       =       0.3333333333333333 [-]
	 SCS Opposite-Spin Scale   =       1.2000000000000000 [-]
	 SCS Same-Spin Energy      =      -0.1359266500786036 [Eh]
	 SCS Opposite-Spin Energy  =      -1.4785217750602531 [Eh]
	 SCS Correlation Energy    =      -1.6144484251388567 [Eh]
	 SCS Total Energy          =    -721.9126566152126543 [Eh]
	-----------------------------------------------------------

  Dipole Moment: [D]
     X:    -1.5228      Y:     2.1116      Z:     2.2700     Total:     3.4541

*** Psi4 exiting successfully. Buy a developer a beer!
