                               Psi4 1.3.2 release

  ==> Input File <==

--------------------------------------------------------------------------
#psi4
#
memory 32 gb

molecule  {
0 1
  P        0.8065268    -0.0819138     0.0082986
  O       -0.7151460    -0.6011470     0.0244450
  O        0.8729860     1.0114440     1.1973790
  O        0.8671220     0.9192840    -1.2738770
  O        1.7953140    -1.1636690     0.0390540
  C       -1.8145860     0.3407390    -0.0037780
  C       -3.0906020    -0.4663650     0.0208240
  H       -1.7354340     1.0001470     0.8651380
  H       -1.7363090     0.9469350    -0.9108340
  H       -3.9518740     0.2065980     0.0015450
  H       -3.1410370    -1.1262340    -0.8468920
  H       -3.1399160    -1.0739070     0.9260840
  H        1.4175561     0.6471518     1.9189988
  H        1.3957000     0.5030980    -1.9791460
units angstrom
no_reorient  #important for SAPT in psi4, default
symmetry c1  #important for SAPT in psi4, default
}

set PROPERTIES_ORIGIN ["COM"]
properties('MP2/aug-cc-pvtz', properties = ['dipole'])
--------------------------------------------------------------------------

    Molecular point group: c1
  Charge       = 0
  Multiplicity = 1
  Basis Set: AUG-CC-PVTZ
    Blend: AUG-CC-PVTZ
  Basis Set: (AUG-CC-PVTZ AUX)
    Blend: AUG-CC-PVTZ-JKFIT

    Orbital Energies [Eh]
    ---------------------

    Doubly Occupied:

       1A    -80.114303     2A    -20.611886     3A    -20.608059
       4A    -20.593404     5A    -20.522203     6A    -11.301398
       7A    -11.229646     8A     -7.630056     9A     -5.528370
      10A     -5.528044    11A     -5.527316    12A     -1.452930
      13A     -1.385615    14A     -1.381180    15A     -1.307464
      16A     -1.039569    17A     -0.871866    18A     -0.845361
      19A     -0.729682    20A     -0.726779    21A     -0.677278
      22A     -0.668510    23A     -0.645208    24A     -0.618684
      25A     -0.584137    26A     -0.567387    27A     -0.565303
      28A     -0.544946    29A     -0.530862    30A     -0.506748
      31A     -0.484856    32A     -0.479355    33A     -0.474128

  @DF-RHF Final Energy:  -720.30338163113424

   => Energetics <=

    Nuclear Repulsion Energy =            439.2815670552583924
    One-Electron Energy =               -1866.6048374136205439
    Two-Electron Energy =                 707.0198887272279080
    Total Energy =                       -720.3033816311342434
  Basis Set: (AUG-CC-PVTZ AUX)
    Blend: AUG-CC-PVTZ-RI
    Molecular point group: c1

    Geometry (in Angstrom), charge = 0, multiplicity = 1:

       Center              X                  Y                   Z               Mass
    ------------   -----------------  -----------------  -----------------  -----------------
         P            0.804523373251    -0.079703497037     0.006486255112    30.973761998420
         O           -0.717149426749    -0.598936697037     0.022632655112    15.994914619570
         O            0.870982573251     1.013654302963     1.195566655112    15.994914619570
         O            0.865118573251     0.921494302963    -1.275689344888    15.994914619570
         O            1.793310573251    -1.161458697037     0.037241655112    15.994914619570
         C           -1.816589426749     0.342949302963    -0.005590344888    12.000000000000
         C           -3.092605426749    -0.464154697037     0.019011655112    12.000000000000
         H           -1.737437426749     1.002357302963     0.863325655112     1.007825032230
         H           -1.738312426749     0.949145302963    -0.912646344888     1.007825032230
         H           -3.953877426749     0.208808302963    -0.000267344888     1.007825032230
         H           -3.143040426749    -1.124023697037    -0.848704344888     1.007825032230
         H           -3.141919426749    -1.071696697037     0.924271655112     1.007825032230
         H            1.415552673251     0.649362102963     1.917186455112     1.007825032230
         H            1.393696573251     0.505308302963    -1.980958344888     1.007825032230

  Basis Set: AUG-CC-PVTZ
    Blend: AUG-CC-PVTZ
  Basis Set: (AUG-CC-PVTZ AUX)
    Blend: AUG-CC-PVTZ-JKFIT
	 Reference Energy          =    -720.3033816311342434 [Eh]
	 Singles Energy            =      -0.0000000000000000 [Eh]
	 Same-Spin Energy          =      -0.4069901237138382 [Eh]
	 Opposite-Spin Energy      =      -1.2301359009069830 [Eh]
	 Correlation Energy        =      -1.6371260246208212 [Eh]
	 Total Energy              =    -721.9405076557550274 [Eh]

	 ================> DF-SCS-MP2 Energies <==================
	-----------------------------------------------------------
	 SCS Same-Spin Scale       =       0.3333333333333333 [-]
	 SCS Opposite-Spin Scale   =       1.2000000000000000 [-]
	 SCS Same-Spin Energy      =      -0.1356633745712794 [Eh]
	 SCS Opposite-Spin Energy  =      -1.4761630810883795 [Eh]
	 SCS Correlation Energy    =      -1.6118264556596589 [Eh]
	 SCS Total Energy          =    -721.9152080867938821 [Eh]
	-----------------------------------------------------------

  Dipole Moment: [D]
     X:    -1.9222      Y:     1.7719      Z:     0.0029     Total:     2.6143

*** Psi4 exiting successfully. Buy a developer a beer!
