                               Psi4 1.3.2 release

  ==> Input File <==

--------------------------------------------------------------------------
#psi4
#
memory 32 gb

molecule  {
0 1
  P        0.7984170    -0.0731530     0.0007800
  O       -0.6854117    -0.6795846     0.0273059
  O        0.8729860     1.0114440     1.1973790
  O        0.8671220     0.9192840    -1.2738770
  O        1.7368398    -1.2143062     0.0411007
  C       -1.8145860     0.3407390    -0.0037780
  C       -3.0906020    -0.4663650     0.0208240
  H       -1.7354340     1.0001470     0.8651380
  H       -1.7363090     0.9469350    -0.9108340
  H       -3.9518740     0.2065980     0.0015450
  H       -3.1410370    -1.1262340    -0.8468920
  H       -3.1399160    -1.0739070     0.9260840
  H        1.4163280     0.6542800     1.9234740
  H        1.3957000     0.5030980    -1.9791460
units angstrom
no_reorient  #important for SAPT in psi4, default
symmetry c1  #important for SAPT in psi4, default
}

set PROPERTIES_ORIGIN ["COM"]
properties('MP2/aug-cc-pvtz', properties = ['dipole'])
--------------------------------------------------------------------------

    Molecular point group: c1
  Charge       = 0
  Multiplicity = 1
  Basis Set: AUG-CC-PVTZ
    Blend: AUG-CC-PVTZ
  Basis Set: (AUG-CC-PVTZ AUX)
    Blend: AUG-CC-PVTZ-JKFIT

    Orbital Energies [Eh]
    ---------------------

    Doubly Occupied:

       1A    -80.110496     2A    -20.613523     3A    -20.613486
       4A    -20.592464     5A    -20.511070     6A    -11.308601
       7A    -11.232325     8A     -7.626314     9A     -5.524654
      10A     -5.524078    11A     -5.523620    12A     -1.450756
      13A     -1.388758    14A     -1.369901    15A     -1.291680
      16A     -1.041292    17A     -0.864800    18A     -0.851130
      19A     -0.729025    20A     -0.722805    21A     -0.675055
      22A     -0.664928    23A     -0.645966    24A     -0.615270
      25A     -0.579329    26A     -0.568944    27A     -0.561256
      28A     -0.539289    29A     -0.530793    30A     -0.516896
      31A     -0.491365    32A     -0.465453    33A     -0.464015

  @DF-RHF Final Energy:  -720.29585763224202

   => Energetics <=

    Nuclear Repulsion Energy =            438.2822342528781405
    One-Electron Energy =               -1864.7375056830283029
    Two-Electron Energy =                 706.1594137979080870
    Total Energy =                       -720.2958576322420186
  Basis Set: (AUG-CC-PVTZ AUX)
    Blend: AUG-CC-PVTZ-RI
    Molecular point group: c1

    Geometry (in Angstrom), charge = 0, multiplicity = 1:

       Center              X                  Y                   Z               Mass
    ------------   -----------------  -----------------  -----------------  -----------------
         P            0.802064959398    -0.056769003945     0.000157041759    30.973761998420
         O           -0.681763740602    -0.663200603945     0.026682941759    15.994914619570
         O            0.876633959398     1.027827996055     1.196756041759    15.994914619570
         O            0.870769959398     0.935667996055    -1.274499958241    15.994914619570
         O            1.740487759398    -1.197922203945     0.040477741759    15.994914619570
         C           -1.810938040602     0.357122996055    -0.004400958241    12.000000000000
         C           -3.086954040602    -0.449981003945     0.020201041759    12.000000000000
         H           -1.731786040602     1.016530996055     0.864515041759     1.007825032230
         H           -1.732661040602     0.963318996055    -0.911456958241     1.007825032230
         H           -3.948226040602     0.222981996055     0.000922041759     1.007825032230
         H           -3.137389040602    -1.109850003945    -0.847514958241     1.007825032230
         H           -3.136268040602    -1.057523003945     0.925461041759     1.007825032230
         H            1.419975959398     0.670663996055     1.922851041759     1.007825032230
         H            1.399347959398     0.519481996055    -1.979768958241     1.007825032230

  Basis Set: AUG-CC-PVTZ
    Blend: AUG-CC-PVTZ
  Basis Set: (AUG-CC-PVTZ AUX)
    Blend: AUG-CC-PVTZ-JKFIT
	 Reference Energy          =    -720.2958576322420186 [Eh]
	 Singles Energy            =      -0.0000000000000000 [Eh]
	 Same-Spin Energy          =      -0.4075637420556761 [Eh]
	 Opposite-Spin Energy      =      -1.2321604906534231 [Eh]
	 Correlation Energy        =      -1.6397242327090993 [Eh]
	 Total Energy              =    -721.9355818649511320 [Eh]

	 ================> DF-SCS-MP2 Energies <==================
	-----------------------------------------------------------
	 SCS Same-Spin Scale       =       0.3333333333333333 [-]
	 SCS Opposite-Spin Scale   =       1.2000000000000000 [-]
	 SCS Same-Spin Energy      =      -0.1358545806852254 [Eh]
	 SCS Opposite-Spin Energy  =      -1.4785925887841078 [Eh]
	 SCS Correlation Energy    =      -1.6144471694693332 [Eh]
	 SCS Total Energy          =    -721.9103048017113906 [Eh]
	-----------------------------------------------------------

  Dipole Moment: [D]
     X:    -2.1047      Y:     2.2447      Z:    -0.0813     Total:     3.0782

*** Psi4 exiting successfully. Buy a developer a beer!
