                               Psi4 1.3.2 release

  ==> Input File <==

--------------------------------------------------------------------------
#psi4
#
memory 32 gb

molecule  {
0 1
  P        0.7984170    -0.0731530     0.0007800
  O       -0.7298352    -0.5494766     0.0889366
  O        0.7913259     0.9960293     1.2134462
  O        0.8671220     0.9192840    -1.2738770
  O        1.7953140    -1.1636690     0.0390540
  C       -1.8145860     0.3407390    -0.0037780
  C       -3.0906020    -0.4663650     0.0208240
  H       -1.7354340     1.0001470     0.8651380
  H       -1.7363090     0.9469350    -0.9108340
  H       -3.9518740     0.2065980     0.0015450
  H       -3.1410370    -1.1262340    -0.8468920
  H       -3.1399160    -1.0739070     0.9260840
  H        1.4163280     0.6542800     1.9234740
  H        1.3957000     0.5030980    -1.9791460
units angstrom
no_reorient  #important for SAPT in psi4, default
symmetry c1  #important for SAPT in psi4, default
}

set PROPERTIES_ORIGIN ["COM"]
properties('MP2/aug-cc-pvtz', properties = ['dipole'])
--------------------------------------------------------------------------

    Molecular point group: c1
  Charge       = 0
  Multiplicity = 1
  Basis Set: AUG-CC-PVTZ
    Blend: AUG-CC-PVTZ
  Basis Set: (AUG-CC-PVTZ AUX)
    Blend: AUG-CC-PVTZ-JKFIT

    Orbital Energies [Eh]
    ---------------------

    Doubly Occupied:

       1A    -80.117305     2A    -20.615218     3A    -20.610349
       4A    -20.588418     5A    -20.527018     6A    -11.294804
       7A    -11.226427     8A     -7.632694     9A     -5.531085
      10A     -5.530897    11A     -5.529770    12A     -1.457261
      13A     -1.392090    14A     -1.380406    15A     -1.306198
      16A     -1.037016    17A     -0.876086    18A     -0.841788
      19A     -0.735128    20A     -0.725089    21A     -0.680672
      22A     -0.668494    23A     -0.647170    24A     -0.619701
      25A     -0.586136    26A     -0.567751    27A     -0.566174
      28A     -0.544341    29A     -0.530761    30A     -0.498894
      31A     -0.482454    32A     -0.480849    33A     -0.469419

  @DF-RHF Final Energy:  -720.29829086531629

   => Energetics <=

    Nuclear Repulsion Energy =            440.5391712166783691
    One-Electron Energy =               -1869.0792037054516186
    Two-Electron Energy =                 708.2417416234569600
    Total Energy =                       -720.2982908653162895
  Basis Set: (AUG-CC-PVTZ AUX)
    Blend: AUG-CC-PVTZ-RI
    Molecular point group: c1

    Geometry (in Angstrom), charge = 0, multiplicity = 1:

       Center              X                  Y                   Z               Mass
    ------------   -----------------  -----------------  -----------------  -----------------
         P            0.810646993086    -0.077755315325    -0.009445781916    30.973761998420
         O           -0.717605206914    -0.554078915325     0.078710818084    15.994914619570
         O            0.803555893086     0.991426984675     1.203220418084    15.994914619570
         O            0.879351993086     0.914681684675    -1.284102781916    15.994914619570
         O            1.807543993086    -1.168271315325     0.028828218084    15.994914619570
         C           -1.802356006914     0.336136684675    -0.014003781916    12.000000000000
         C           -3.078372006914    -0.470967315325     0.010598218084    12.000000000000
         H           -1.723204006914     0.995544684675     0.854912218084     1.007825032230
         H           -1.724079006914     0.942332684675    -0.921059781916     1.007825032230
         H           -3.939644006914     0.201995684675    -0.008680781916     1.007825032230
         H           -3.128807006914    -1.130836315325    -0.857117781916     1.007825032230
         H           -3.127686006914    -1.078509315325     0.915858218084     1.007825032230
         H            1.428557993086     0.649677684675     1.913248218084     1.007825032230
         H            1.407929993086     0.498495684675    -1.989371781916     1.007825032230

  Basis Set: AUG-CC-PVTZ
    Blend: AUG-CC-PVTZ
  Basis Set: (AUG-CC-PVTZ AUX)
    Blend: AUG-CC-PVTZ-JKFIT
	 Reference Energy          =    -720.2982908653162895 [Eh]
	 Singles Energy            =      -0.0000000000000000 [Eh]
	 Same-Spin Energy          =      -0.4076483785123053 [Eh]
	 Opposite-Spin Energy      =      -1.2308059743138451 [Eh]
	 Correlation Energy        =      -1.6384543528261504 [Eh]
	 Total Energy              =    -721.9367452181423914 [Eh]

	 ================> DF-SCS-MP2 Energies <==================
	-----------------------------------------------------------
	 SCS Same-Spin Scale       =       0.3333333333333333 [-]
	 SCS Opposite-Spin Scale   =       1.2000000000000000 [-]
	 SCS Same-Spin Energy      =      -0.1358827928374351 [Eh]
	 SCS Opposite-Spin Energy  =      -1.4769671691766140 [Eh]
	 SCS Correlation Energy    =      -1.6128499620140491 [Eh]
	 SCS Total Energy          =    -721.9111408273303141 [Eh]
	-----------------------------------------------------------

  Dipole Moment: [D]
     X:    -1.5708      Y:     1.7528      Z:    -0.2545     Total:     2.3674

*** Psi4 exiting successfully. Buy a developer a beer!
