                               Psi4 1.4a3.dev225

  ==> Input File <==

--------------------------------------------------------------------------
#psi4
#
memory 32 gb

molecule  {
0 1
  P        0.8768730    -0.1227020    -0.0963880
  O       -0.6616900    -0.4669690    -0.3477670
  O        1.0437430     0.0794150     1.5121170
  O        0.9276490     1.4110650    -0.6042510
  O        1.8156129    -1.0807027    -0.6674513
  C       -1.7021250     0.4138110     0.1607360
  C       -3.0206860    -0.2869630    -0.0679060
  H       -1.5201960     0.5987390     1.2233000
  H       -1.6444250     1.3614050    -0.3799660
  H       -3.8417660     0.3429090     0.2865800
  H       -3.1647720    -0.4853110    -1.1316920
  H       -3.0471290    -1.2354240     0.4720910
  H        1.4666950    -0.7151170     1.8872290
  H        1.8298220     1.7749190    -0.5472100
units angstrom
no_reorient  #important for SAPT in psi4, default
symmetry c1  #important for SAPT in psi4, default
}

set PROPERTIES_ORIGIN ["COM"]
properties('MP2/aug-cc-pvtz', properties = ['dipole'])
--------------------------------------------------------------------------

    Molecular point group: c1
  Charge       = 0
  Multiplicity = 1
  Basis Set: AUG-CC-PVTZ
    Blend: AUG-CC-PVTZ
  Basis Set: (AUG-CC-PVTZ AUX)
    Blend: AUG-CC-PVTZ-JKFIT

    Orbital Energies [Eh]
    ---------------------

    Doubly Occupied:

       1A    -80.110537     2A    -20.611200     3A    -20.608877
       4A    -20.595138     5A    -20.516890     6A    -11.302795
       7A    -11.230093     8A     -7.626763     9A     -5.525087
      10A     -5.524868    11A     -5.523931    12A     -1.454018
      13A     -1.383771    14A     -1.382807    15A     -1.306557
      16A     -1.040532    17A     -0.872259    18A     -0.841899
      19A     -0.753738    20A     -0.719154    21A     -0.673792
      22A     -0.667888    23A     -0.639749    24A     -0.605333
      25A     -0.589882    26A     -0.570244    27A     -0.560495
      28A     -0.546589    29A     -0.535688    30A     -0.510494
      31A     -0.485654    32A     -0.476573    33A     -0.472049

  @DF-RHF Final Energy:  -720.30469802882874

   => Energetics <=

    Nuclear Repulsion Energy =            440.2678437273377767
    One-Electron Energy =               -1868.6143954477556690
    Two-Electron Energy =                 708.0418536915891536
    Total Energy =                       -720.3046980288287386
  Basis Set: (AUG-CC-PVTZ AUX)
    Blend: AUG-CC-PVTZ-RI
    Molecular point group: c1

    Geometry (in Angstrom), charge = 0, multiplicity = 1:

       Center              X                  Y                   Z               Mass
    ------------   -----------------  -----------------  -----------------  -----------------
         P            0.793735079063    -0.110495069707    -0.082387863516    30.973761998420
         O           -0.744827920937    -0.454762069707    -0.333766863516    15.994914619570
         O            0.960605079063     0.091621930293     1.526117136484    15.994914619570
         O            0.844511079063     1.423271930293    -0.590250863516    15.994914619570
         O            1.732474979063    -1.068495769707    -0.653451163516    15.994914619570
         C           -1.785262920937     0.426017930293     0.174736136484    12.000000000000
         C           -3.103823920937    -0.274756069707    -0.053905863516    12.000000000000
         H           -1.603333920937     0.610945930293     1.237300136484     1.007825032230
         H           -1.727562920937     1.373611930293    -0.365965863516     1.007825032230
         H           -3.924903920937     0.355115930293     0.300580136484     1.007825032230
         H           -3.247909920937    -0.473104069707    -1.117691863516     1.007825032230
         H           -3.130266920937    -1.223217069707     0.486091136484     1.007825032230
         H            1.383557079063    -0.702910069707     1.901229136484     1.007825032230
         H            1.746684079063     1.787125930293    -0.533209863516     1.007825032230

  Basis Set: AUG-CC-PVTZ
    Blend: AUG-CC-PVTZ
  Basis Set: (AUG-CC-PVTZ AUX)
    Blend: AUG-CC-PVTZ-JKFIT
	 Reference Energy          =    -720.3046980288287386 [Eh]
	 Singles Energy            =      -0.0000000000000000 [Eh]
	 Same-Spin Energy          =      -0.4067588877480138 [Eh]
	 Opposite-Spin Energy      =      -1.2296062007543824 [Eh]
	 Correlation Energy        =      -1.6363650885023961 [Eh]
	 Total Energy              =    -721.9410631173311685 [Eh]

	 ================> DF-SCS-MP2 Energies <==================
	-----------------------------------------------------------
	 SCS Same-Spin Scale       =       0.3333333333333333 [-]
	 SCS Opposite-Spin Scale   =       1.2000000000000000 [-]
	 SCS Same-Spin Energy      =      -0.1355862959160046 [Eh]
	 SCS Opposite-Spin Energy  =      -1.4755274409052588 [Eh]
	 SCS Correlation Energy    =      -1.6111137368212634 [Eh]
	 SCS Total Energy          =    -721.9158117656500053 [Eh]
	-----------------------------------------------------------

  Dipole Moment: [D]
     X:    -1.4881      Y:     2.0962      Z:     2.1780     Total:     3.3693

*** Psi4 exiting successfully. Buy a developer a beer!
