                               Psi4 1.3.2 release

  ==> Input File <==

--------------------------------------------------------------------------
#psi4
#
memory 32 gb

molecule  {
0 1
  P        0.7984170    -0.0731530     0.0007800
  O       -0.7327176    -0.6215830    -0.0183116
  O        0.8729860     1.0114440     1.1973790
  O        0.8671220     0.9192840    -1.2738770
  O        1.7953140    -1.1636690     0.0390540
  C       -1.8145860     0.3407390    -0.0037780
  C       -3.0906020    -0.4663650     0.0208240
  H       -1.7670290     1.0181467     0.8535178
  H       -1.7363090     0.9469350    -0.9108340
  H       -3.9518740     0.2065980     0.0015450
  H       -3.1410370    -1.1262340    -0.8468920
  H       -3.1399160    -1.0739070     0.9260840
  H        1.4163280     0.6542800     1.9234740
  H        1.3957000     0.5030980    -1.9791460
units angstrom
no_reorient  #important for SAPT in psi4, default
symmetry c1  #important for SAPT in psi4, default
}

set PROPERTIES_ORIGIN ["COM"]
properties('MP2/aug-cc-pvtz', properties = ['dipole'])
--------------------------------------------------------------------------

    Molecular point group: c1
  Charge       = 0
  Multiplicity = 1
  Basis Set: AUG-CC-PVTZ
    Blend: AUG-CC-PVTZ
  Basis Set: (AUG-CC-PVTZ AUX)
    Blend: AUG-CC-PVTZ-JKFIT

    Orbital Energies [Eh]
    ---------------------

    Doubly Occupied:

       1A    -80.117753     2A    -20.614853     3A    -20.610887
       4A    -20.596078     5A    -20.520755     6A    -11.300392
       7A    -11.228323     8A     -7.632873     9A     -5.531250
      10A     -5.530821    11A     -5.530060    12A     -1.453319
      13A     -1.388807    14A     -1.381596    15A     -1.301079
      16A     -1.037938    17A     -0.869368    18A     -0.849482
      19A     -0.731078    20A     -0.729891    21A     -0.678075
      22A     -0.668452    23A     -0.646386    24A     -0.619055
      25A     -0.584048    26A     -0.568149    27A     -0.563496
      28A     -0.543039    29A     -0.531994    30A     -0.507455
      31A     -0.483606    32A     -0.474973    33A     -0.471177

  @DF-RHF Final Energy:  -720.30065458593504

   => Energetics <=

    Nuclear Repulsion Energy =            438.5301867392253712
    One-Electron Energy =               -1865.0686685384646353
    Two-Electron Energy =                 706.2378272133041719
    Total Energy =                       -720.3006545859350354
  Basis Set: (AUG-CC-PVTZ AUX)
    Blend: AUG-CC-PVTZ-RI
    Molecular point group: c1

    Geometry (in Angstrom), charge = 0, multiplicity = 1:

       Center              X                  Y                   Z               Mass
    ------------   -----------------  -----------------  -----------------  -----------------
         P            0.800900005228    -0.070703088699     0.006300260726    30.973761998420
         O           -0.730234594772    -0.619133088699    -0.012791339274    15.994914619570
         O            0.875469005228     1.013893911301     1.202899260726    15.994914619570
         O            0.869605005228     0.921733911301    -1.268356739274    15.994914619570
         O            1.797797005228    -1.161219088699     0.044574260726    15.994914619570
         C           -1.812102994772     0.343188911301     0.001742260726    12.000000000000
         C           -3.088118994772    -0.463915088699     0.026344260726    12.000000000000
         H           -1.764545994772     1.020596611301     0.859038060726     1.007825032230
         H           -1.733825994772     0.949384911301    -0.905313739274     1.007825032230
         H           -3.949390994772     0.209047911301     0.007065260726     1.007825032230
         H           -3.138553994772    -1.123784088699    -0.841371739274     1.007825032230
         H           -3.137432994772    -1.071457088699     0.931604260726     1.007825032230
         H            1.418811005228     0.656729911301     1.928994260726     1.007825032230
         H            1.398183005228     0.505547911301    -1.973625739274     1.007825032230

  Basis Set: AUG-CC-PVTZ
    Blend: AUG-CC-PVTZ
  Basis Set: (AUG-CC-PVTZ AUX)
    Blend: AUG-CC-PVTZ-JKFIT
	 Reference Energy          =    -720.3006545859350354 [Eh]
	 Singles Energy            =      -0.0000000000000000 [Eh]
	 Same-Spin Energy          =      -0.4074184918714373 [Eh]
	 Opposite-Spin Energy      =      -1.2311263885581465 [Eh]
	 Correlation Energy        =      -1.6385448804295839 [Eh]
	 Total Energy              =    -721.9391994663645846 [Eh]

	 ================> DF-SCS-MP2 Energies <==================
	-----------------------------------------------------------
	 SCS Same-Spin Scale       =       0.3333333333333333 [-]
	 SCS Opposite-Spin Scale   =       1.2000000000000000 [-]
	 SCS Same-Spin Energy      =      -0.1358061639571458 [Eh]
	 SCS Opposite-Spin Energy  =      -1.4773516662697757 [Eh]
	 SCS Correlation Energy    =      -1.6131578302269214 [Eh]
	 SCS Total Energy          =    -721.9138124161619317 [Eh]
	-----------------------------------------------------------

  Dipole Moment: [D]
     X:    -1.8684      Y:     1.9279      Z:     0.0342     Total:     2.6850

*** Psi4 exiting successfully. Buy a developer a beer!
