                               Psi4 1.3.2 release

  ==> Input File <==

--------------------------------------------------------------------------
#psi4
#
memory 32 gb

molecule  {
0 1
  P        0.7984170    -0.0731530     0.0007800
  O       -0.7487018    -0.6389255     0.0255916
  O        0.8729860     1.0114440     1.1973790
  O        0.8671220     0.9192840    -1.2738770
  O        1.7953140    -1.1636690     0.0390540
  C       -1.8145860     0.3407390    -0.0037780
  C       -3.0616441    -0.5103855     0.0221473
  H       -1.7354340     1.0001470     0.8651380
  H       -1.7363090     0.9469350    -0.9108340
  H       -3.9518740     0.2065980     0.0015450
  H       -3.1410370    -1.1262340    -0.8468920
  H       -3.1399160    -1.0739070     0.9260840
  H        1.4163280     0.6542800     1.9234740
  H        1.3957000     0.5030980    -1.9791460
units angstrom
no_reorient  #important for SAPT in psi4, default
symmetry c1  #important for SAPT in psi4, default
}

set PROPERTIES_ORIGIN ["COM"]
properties('MP2/aug-cc-pvtz', properties = ['dipole'])
--------------------------------------------------------------------------

    Molecular point group: c1
  Charge       = 0
  Multiplicity = 1
  Basis Set: AUG-CC-PVTZ
    Blend: AUG-CC-PVTZ
  Basis Set: (AUG-CC-PVTZ AUX)
    Blend: AUG-CC-PVTZ-JKFIT

    Orbital Energies [Eh]
    ---------------------

    Doubly Occupied:

       1A    -80.119399     2A    -20.614791     3A    -20.614727
       4A    -20.594378     5A    -20.521336     6A    -11.299123
       7A    -11.227792     8A     -7.634277     9A     -5.532666
      10A     -5.532128    11A     -5.531462    12A     -1.452368
      13A     -1.390067    14A     -1.378951    15A     -1.301629
      16A     -1.034861    17A     -0.866988    18A     -0.851445
      19A     -0.730515    20A     -0.728016    21A     -0.678787
      22A     -0.670962    23A     -0.648095    24A     -0.617123
      25A     -0.580700    26A     -0.572703    27A     -0.563601
      28A     -0.537538    29A     -0.530446    30A     -0.506295
      31A     -0.485331    32A     -0.473107    33A     -0.472040

  @DF-RHF Final Energy:  -720.29509542832034

   => Energetics <=

    Nuclear Repulsion Energy =            438.1768351716881398
    One-Electron Energy =               -1864.3565639487610497
    Two-Electron Energy =                 705.8846333487524589
    Total Energy =                       -720.2950954283203373
  Basis Set: (AUG-CC-PVTZ AUX)
    Blend: AUG-CC-PVTZ-RI
    Molecular point group: c1

    Geometry (in Angstrom), charge = 0, multiplicity = 1:

       Center              X                  Y                   Z               Mass
    ------------   -----------------  -----------------  -----------------  -----------------
         P            0.799918552260    -0.064165590479     0.000508425839    30.973761998420
         O           -0.747200247740    -0.629938090479     0.025320025839    15.994914619570
         O            0.874487552260     1.020431409521     1.197107425839    15.994914619570
         O            0.868623552260     0.928271409521    -1.274148574161    15.994914619570
         O            1.796815552260    -1.154681590479     0.038782425839    15.994914619570
         C           -1.813084447740     0.349726409521    -0.004049574161    12.000000000000
         C           -3.060142547740    -0.501398090479     0.021875725839    12.000000000000
         H           -1.733932447740     1.009134409521     0.864866425839     1.007825032230
         H           -1.734807447740     0.955922409521    -0.911105574161     1.007825032230
         H           -3.950372447740     0.215585409521     0.001273425839     1.007825032230
         H           -3.139535447740    -1.117246590479    -0.847163574161     1.007825032230
         H           -3.138414447740    -1.064919590479     0.925812425839     1.007825032230
         H            1.417829552260     0.663267409521     1.923202425839     1.007825032230
         H            1.397201552260     0.512085409521    -1.979417574161     1.007825032230

  Basis Set: AUG-CC-PVTZ
    Blend: AUG-CC-PVTZ
  Basis Set: (AUG-CC-PVTZ AUX)
    Blend: AUG-CC-PVTZ-JKFIT
	 Reference Energy          =    -720.2950954283203373 [Eh]
	 Singles Energy            =      -0.0000000000000000 [Eh]
	 Same-Spin Energy          =      -0.4078435253801335 [Eh]
	 Opposite-Spin Energy      =      -1.2322288744127277 [Eh]
	 Correlation Energy        =      -1.6400723997928612 [Eh]
	 Total Energy              =    -721.9351678281132081 [Eh]

	 ================> DF-SCS-MP2 Energies <==================
	-----------------------------------------------------------
	 SCS Same-Spin Scale       =       0.3333333333333333 [-]
	 SCS Opposite-Spin Scale   =       1.2000000000000000 [-]
	 SCS Same-Spin Energy      =      -0.1359478417933778 [Eh]
	 SCS Opposite-Spin Energy  =      -1.4786746492952731 [Eh]
	 SCS Correlation Energy    =      -1.6146224910886509 [Eh]
	 SCS Total Energy          =    -721.9097179194089904 [Eh]
	-----------------------------------------------------------

  Dipole Moment: [D]
     X:    -1.7460      Y:     1.9494      Z:    -0.0708     Total:     2.6180

*** Psi4 exiting successfully. Buy a developer a beer!
