                               Psi4 1.3.2 release

  ==> Input File <==

--------------------------------------------------------------------------
#psi4
#
memory 32 gb

molecule  {
0 1
  P        0.7984170    -0.0731530     0.0007800
  O       -0.7151460    -0.6011470     0.0244450
  O        0.8822108     1.1456171     1.3454076
  O        0.8671220     0.9192840    -1.2738770
  O        1.7953140    -1.1636690     0.0390540
  C       -1.8145860     0.3407390    -0.0037780
  C       -3.0906020    -0.4663650     0.0208240
  H       -1.7354340     1.0001470     0.8651380
  H       -1.7363090     0.9469350    -0.9108340
  H       -3.9518740     0.2065980     0.0015450
  H       -3.1410370    -1.1262340    -0.8468920
  H       -3.1399160    -1.0739070     0.9260840
  H        1.4163280     0.6542800     1.9234740
  H        1.3957000     0.5030980    -1.9791460
units angstrom
no_reorient  #important for SAPT in psi4, default
symmetry c1  #important for SAPT in psi4, default
}

set PROPERTIES_ORIGIN ["COM"]
properties('MP2/aug-cc-pvtz', properties = ['dipole'])
--------------------------------------------------------------------------

    Molecular point group: c1
  Charge       = 0
  Multiplicity = 1
  Basis Set: AUG-CC-PVTZ
    Blend: AUG-CC-PVTZ
  Basis Set: (AUG-CC-PVTZ AUX)
    Blend: AUG-CC-PVTZ-JKFIT

    Orbital Energies [Eh]
    ---------------------

    Doubly Occupied:

       1A    -80.134434     2A    -20.622505     3A    -20.607709
       4A    -20.598986     5A    -20.536516     6A    -11.306855
       7A    -11.233688     8A     -7.647782     9A     -5.545998
      10A     -5.545623    11A     -5.544750    12A     -1.449332
      13A     -1.394806    14A     -1.361105    15A     -1.313357
      16A     -1.045271    17A     -0.876341    18A     -0.839729
      19A     -0.734251    20A     -0.708653    21A     -0.679023
      22A     -0.669096    23A     -0.639773    24A     -0.624184
      25A     -0.586352    26A     -0.564570    27A     -0.560194
      28A     -0.549437    29A     -0.526993    30A     -0.513635
      31A     -0.491029    32A     -0.485701    33A     -0.480929

  @DF-RHF Final Energy:  -720.27385434795804

   => Energetics <=

    Nuclear Repulsion Energy =            432.3210064375307411
    One-Electron Energy =               -1852.3525043294384886
    Two-Electron Energy =                 699.7576435439497118
    Total Energy =                       -720.2738543479580358
  Basis Set: (AUG-CC-PVTZ AUX)
    Blend: AUG-CC-PVTZ-RI
    Molecular point group: c1

    Geometry (in Angstrom), charge = 0, multiplicity = 1:

       Center              X                  Y                   Z               Mass
    ------------   -----------------  -----------------  -----------------  -----------------
         P            0.797245890832    -0.090184510459    -0.018010095406    30.973761998420
         O           -0.716317109168    -0.618178510459     0.005654904594    15.994914619570
         O            0.881039690832     1.128585589541     1.326617504594    15.994914619570
         O            0.865950890832     0.902252489541    -1.292667095406    15.994914619570
         O            1.794142890832    -1.180700510459     0.020263904594    15.994914619570
         C           -1.815757109168     0.323707489541    -0.022568095406    12.000000000000
         C           -3.091773109168    -0.483396510459     0.002033904594    12.000000000000
         H           -1.736605109168     0.983115489541     0.846347904594     1.007825032230
         H           -1.737480109168     0.929903489541    -0.929624095406     1.007825032230
         H           -3.953045109168     0.189566489541    -0.017245095406     1.007825032230
         H           -3.142208109168    -1.143265510459    -0.865682095406     1.007825032230
         H           -3.141087109168    -1.090938510459     0.907293904594     1.007825032230
         H            1.415156890832     0.637248489541     1.904683904594     1.007825032230
         H            1.394528890832     0.486066489541    -1.997936095406     1.007825032230

  Basis Set: AUG-CC-PVTZ
    Blend: AUG-CC-PVTZ
  Basis Set: (AUG-CC-PVTZ AUX)
    Blend: AUG-CC-PVTZ-JKFIT
	 Reference Energy          =    -720.2738543479580358 [Eh]
	 Singles Energy            =      -0.0000000000000000 [Eh]
	 Same-Spin Energy          =      -0.4087043607752923 [Eh]
	 Opposite-Spin Energy      =      -1.2363406054040378 [Eh]
	 Correlation Energy        =      -1.6450449661793300 [Eh]
	 Total Energy              =    -721.9188993141373203 [Eh]

	 ================> DF-SCS-MP2 Energies <==================
	-----------------------------------------------------------
	 SCS Same-Spin Scale       =       0.3333333333333333 [-]
	 SCS Opposite-Spin Scale   =       1.2000000000000000 [-]
	 SCS Same-Spin Energy      =      -0.1362347869250974 [Eh]
	 SCS Opposite-Spin Energy  =      -1.4836087264848452 [Eh]
	 SCS Correlation Energy    =      -1.6198435134099427 [Eh]
	 SCS Total Energy          =    -721.8936978613679685 [Eh]
	-----------------------------------------------------------

  Dipole Moment: [D]
     X:    -2.2402      Y:     1.1752      Z:    -0.9782     Total:     2.7123

*** Psi4 exiting successfully. Buy a developer a beer!
