                               Psi4 1.3.2 release

  ==> Input File <==

--------------------------------------------------------------------------
#psi4
#
memory 32 gb

molecule  {
0 1
  P        0.7984170    -0.0731530     0.0007800
  O       -0.7241392    -0.5746688     0.0234766
  O        0.8729860     1.0114440     1.1973790
  O        0.8671220     0.9192840    -1.2738770
  O        1.8142059    -1.1461186     0.0383482
  C       -1.8145860     0.3407390    -0.0037780
  C       -3.0906020    -0.4663650     0.0208240
  H       -1.7354340     1.0001470     0.8651380
  H       -1.7363090     0.9469350    -0.9108340
  H       -3.9518740     0.2065980     0.0015450
  H       -3.1410370    -1.1262340    -0.8468920
  H       -3.1399160    -1.0739070     0.9260840
  H        1.4163280     0.6542800     1.9234740
  H        1.3957000     0.5030980    -1.9791460
units angstrom
no_reorient  #important for SAPT in psi4, default
symmetry c1  #important for SAPT in psi4, default
}

set PROPERTIES_ORIGIN ["COM"]
properties('MP2/aug-cc-pvtz', properties = ['dipole'])
--------------------------------------------------------------------------

    Molecular point group: c1
  Charge       = 0
  Multiplicity = 1
  Basis Set: AUG-CC-PVTZ
    Blend: AUG-CC-PVTZ
  Basis Set: (AUG-CC-PVTZ AUX)
    Blend: AUG-CC-PVTZ-JKFIT

    Orbital Energies [Eh]
    ---------------------

    Doubly Occupied:

       1A    -80.116273     2A    -20.609790     3A    -20.609747
       4A    -20.595177     5A    -20.521935     6A    -11.300129
       7A    -11.229514     8A     -7.631647     9A     -5.530010
      10A     -5.529792    11A     -5.528778    12A     -1.456451
      13A     -1.389392    14A     -1.386065    15A     -1.302118
      16A     -1.040380    17A     -0.876446    18A     -0.846565
      19A     -0.733829    20A     -0.730780    21A     -0.677543
      22A     -0.672030    23A     -0.645034    24A     -0.622258
      25A     -0.585758    26A     -0.568786    27A     -0.563765
      28A     -0.545403    29A     -0.532429    30A     -0.504918
      31A     -0.482348    32A     -0.477272    33A     -0.471986

  @DF-RHF Final Energy:  -720.30394025855264

   => Energetics <=

    Nuclear Repulsion Energy =            439.8078375354651257
    One-Electron Energy =               -1867.5948609554643554
    Two-Electron Energy =                 707.4830831614466433
    Total Energy =                       -720.3039402585526432
  Basis Set: (AUG-CC-PVTZ AUX)
    Blend: AUG-CC-PVTZ-RI
    Molecular point group: c1

    Geometry (in Angstrom), charge = 0, multiplicity = 1:

       Center              X                  Y                   Z               Mass
    ------------   -----------------  -----------------  -----------------  -----------------
         P            0.797160348991    -0.078741972353     0.000992505900    30.973761998420
         O           -0.725395851009    -0.580257772353     0.023689105900    15.994914619570
         O            0.871729348991     1.005855027647     1.197591505900    15.994914619570
         O            0.865865348991     0.913695027647    -1.273664494100    15.994914619570
         O            1.812949248991    -1.151707572353     0.038560705900    15.994914619570
         C           -1.815842651009     0.335150027647    -0.003565494100    12.000000000000
         C           -3.091858651009    -0.471953972353     0.021036505900    12.000000000000
         H           -1.736690651009     0.994558027647     0.865350505900     1.007825032230
         H           -1.737565651009     0.941346027647    -0.910621494100     1.007825032230
         H           -3.953130651009     0.201009027647     0.001757505900     1.007825032230
         H           -3.142293651009    -1.131822972353    -0.846679494100     1.007825032230
         H           -3.141172651009    -1.079495972353     0.926296505900     1.007825032230
         H            1.415071348991     0.648691027647     1.923686505900     1.007825032230
         H            1.394443348991     0.497509027647    -1.978933494100     1.007825032230

  Basis Set: AUG-CC-PVTZ
    Blend: AUG-CC-PVTZ
  Basis Set: (AUG-CC-PVTZ AUX)
    Blend: AUG-CC-PVTZ-JKFIT
	 Reference Energy          =    -720.3039402585526432 [Eh]
	 Singles Energy            =      -0.0000000000000000 [Eh]
	 Same-Spin Energy          =      -0.4069943056522092 [Eh]
	 Opposite-Spin Energy      =      -1.2296814485393175 [Eh]
	 Correlation Energy        =      -1.6366757541915267 [Eh]
	 Total Energy              =    -721.9406160127441581 [Eh]

	 ================> DF-SCS-MP2 Energies <==================
	-----------------------------------------------------------
	 SCS Same-Spin Scale       =       0.3333333333333333 [-]
	 SCS Opposite-Spin Scale   =       1.2000000000000000 [-]
	 SCS Same-Spin Energy      =      -0.1356647685507364 [Eh]
	 SCS Opposite-Spin Energy  =      -1.4756177382471809 [Eh]
	 SCS Correlation Energy    =      -1.6112825067979173 [Eh]
	 SCS Total Energy          =    -721.9152227653505633 [Eh]
	-----------------------------------------------------------

  Dipole Moment: [D]
     X:    -1.9782      Y:     1.7374      Z:    -0.0629     Total:     2.6336

*** Psi4 exiting successfully. Buy a developer a beer!
