                               Psi4 1.4a3.dev225

  ==> Input File <==

--------------------------------------------------------------------------
#psi4
#
memory 32 gb

molecule  {
0 1
  P        0.8768730    -0.1227020    -0.0963880
  O       -0.7098748    -0.4777508    -0.3556397
  O        1.0437430     0.0794150     1.5121170
  O        0.9276490     1.4110650    -0.6042510
  O        1.8284920    -1.0938460    -0.6752860
  C       -1.7021250     0.4138110     0.1607360
  C       -3.0206860    -0.2869630    -0.0679060
  H       -1.5201960     0.5987390     1.2233000
  H       -1.6444250     1.3614050    -0.3799660
  H       -3.8417660     0.3429090     0.2865800
  H       -3.1647720    -0.4853110    -1.1316920
  H       -3.0471290    -1.2354240     0.4720910
  H        1.4666950    -0.7151170     1.8872290
  H        1.8298220     1.7749190    -0.5472100
units angstrom
no_reorient  #important for SAPT in psi4, default
symmetry c1  #important for SAPT in psi4, default
}

set PROPERTIES_ORIGIN ["COM"]
properties('MP2/aug-cc-pvtz', properties = ['dipole'])
--------------------------------------------------------------------------

    Molecular point group: c1
  Charge       = 0
  Multiplicity = 1
  Basis Set: AUG-CC-PVTZ
    Blend: AUG-CC-PVTZ
  Basis Set: (AUG-CC-PVTZ AUX)
    Blend: AUG-CC-PVTZ-JKFIT

    Orbital Energies [Eh]
    ---------------------

    Doubly Occupied:

       1A    -80.122042     2A    -20.616881     3A    -20.615016
       4A    -20.596539     5A    -20.522919     6A    -11.296604
       7A    -11.226070     8A     -7.636435     9A     -5.534879
      10A     -5.534544    11A     -5.533406    12A     -1.453120
      13A     -1.388642    14A     -1.383150    15A     -1.302802
      16A     -1.034282    17A     -0.868730    18A     -0.845701
      19A     -0.756598    20A     -0.718059    21A     -0.677650
      22A     -0.668450    23A     -0.642074    24A     -0.603754
      25A     -0.593384    26A     -0.570641    27A     -0.560342
      28A     -0.543306    29A     -0.535941    30A     -0.505654
      31A     -0.481337    32A     -0.475602    33A     -0.471295

  @DF-RHF Final Energy:  -720.29803968116505

   => Energetics <=

    Nuclear Repulsion Energy =            438.0940491807786543
    One-Electron Energy =               -1864.1524773144635674
    Two-Electron Energy =                 705.7603884525198055
    Total Energy =                       -720.2980396811650508
  Basis Set: (AUG-CC-PVTZ AUX)
    Blend: AUG-CC-PVTZ-RI
    Molecular point group: c1

    Geometry (in Angstrom), charge = 0, multiplicity = 1:

       Center              X                  Y                   Z               Mass
    ------------   -----------------  -----------------  -----------------  -----------------
         P            0.798216626108    -0.107458124931    -0.080394036682    30.973761998420
         O           -0.788531173892    -0.462506924931    -0.339645736682    15.994914619570
         O            0.965086626108     0.094658875069     1.528110963318    15.994914619570
         O            0.848992626108     1.426308875069    -0.588257036682    15.994914619570
         O            1.749835626108    -1.078602124931    -0.659292036682    15.994914619570
         C           -1.780781373892     0.429054875069     0.176729963318    12.000000000000
         C           -3.099342373892    -0.271719124931    -0.051912036682    12.000000000000
         H           -1.598852373892     0.613982875069     1.239293963318     1.007825032230
         H           -1.723081373892     1.376648875069    -0.363972036682     1.007825032230
         H           -3.920422373892     0.358152875069     0.302573963318     1.007825032230
         H           -3.243428373892    -0.470067124931    -1.115698036682     1.007825032230
         H           -3.125785373892    -1.220180124931     0.488084963318     1.007825032230
         H            1.388038626108    -0.699873124931     1.903222963318     1.007825032230
         H            1.751165626108     1.790162875069    -0.531216036682     1.007825032230

  Basis Set: AUG-CC-PVTZ
    Blend: AUG-CC-PVTZ
  Basis Set: (AUG-CC-PVTZ AUX)
    Blend: AUG-CC-PVTZ-JKFIT
	 Reference Energy          =    -720.2980396811650508 [Eh]
	 Singles Energy            =      -0.0000000000000000 [Eh]
	 Same-Spin Energy          =      -0.4078919919646045 [Eh]
	 Opposite-Spin Energy      =      -1.2322870912863677 [Eh]
	 Correlation Energy        =      -1.6401790832509722 [Eh]
	 Total Energy              =    -721.9382187644159785 [Eh]

	 ================> DF-SCS-MP2 Energies <==================
	-----------------------------------------------------------
	 SCS Same-Spin Scale       =       0.3333333333333333 [-]
	 SCS Opposite-Spin Scale   =       1.2000000000000000 [-]
	 SCS Same-Spin Energy      =      -0.1359639973215348 [Eh]
	 SCS Opposite-Spin Energy  =      -1.4787445095436411 [Eh]
	 SCS Correlation Energy    =      -1.6147085068651759 [Eh]
	 SCS Total Energy          =    -721.9127481880302639 [Eh]
	-----------------------------------------------------------

  Dipole Moment: [D]
     X:    -1.1552      Y:     2.1573      Z:     2.2303     Total:     3.3110

*** Psi4 exiting successfully. Buy a developer a beer!
