                               Psi4 1.3.2 release

  ==> Input File <==

--------------------------------------------------------------------------
#psi4
#
memory 32 gb

molecule  {
0 1
  P        0.7984170    -0.0731530     0.0007800
  O       -0.7151460    -0.6011470     0.0244450
  O        0.8775984     1.0785306     1.2713933
  O        0.8671220     0.9192840    -1.2738770
  O        1.7953140    -1.1636690     0.0390540
  C       -1.8145860     0.3407390    -0.0037780
  C       -3.0906020    -0.4663650     0.0208240
  H       -1.7354340     1.0001470     0.8651380
  H       -1.7363090     0.9469350    -0.9108340
  H       -3.9518740     0.2065980     0.0015450
  H       -3.1410370    -1.1262340    -0.8468920
  H       -3.1399160    -1.0739070     0.9260840
  H        1.4163280     0.6542800     1.9234740
  H        1.3957000     0.5030980    -1.9791460
units angstrom
no_reorient  #important for SAPT in psi4, default
symmetry c1  #important for SAPT in psi4, default
}

set PROPERTIES_ORIGIN ["COM"]
properties('MP2/aug-cc-pvtz', properties = ['dipole'])
--------------------------------------------------------------------------

    Molecular point group: c1
  Charge       = 0
  Multiplicity = 1
  Basis Set: AUG-CC-PVTZ
    Blend: AUG-CC-PVTZ
  Basis Set: (AUG-CC-PVTZ AUX)
    Blend: AUG-CC-PVTZ-JKFIT

    Orbital Energies [Eh]
    ---------------------

    Doubly Occupied:

       1A    -80.125639     2A    -20.616966     3A    -20.604636
       4A    -20.601546     5A    -20.528135     6A    -11.304689
       7A    -11.232051     8A     -7.639699     9A     -5.537998
      10A     -5.537637    11A     -5.536821    12A     -1.449395
      13A     -1.390198    14A     -1.374475    15A     -1.306875
      16A     -1.043008    17A     -0.874386    18A     -0.842694
      19A     -0.732378    20A     -0.719522    21A     -0.676970
      22A     -0.670417    23A     -0.642814    24A     -0.621746
      25A     -0.584374    26A     -0.565381    27A     -0.563908
      28A     -0.547165    29A     -0.531090    30A     -0.511246
      31A     -0.487971    32A     -0.480588    33A     -0.476437

  @DF-RHF Final Energy:  -720.29300827629481

   => Energetics <=

    Nuclear Repulsion Energy =            435.7307713619736091
    One-Electron Energy =               -1859.3298502396978620
    Two-Electron Energy =                 703.3060706014293828
    Total Energy =                       -720.2930082762948132
  Basis Set: (AUG-CC-PVTZ AUX)
    Blend: AUG-CC-PVTZ-RI
    Molecular point group: c1

    Geometry (in Angstrom), charge = 0, multiplicity = 1:

       Center              X                  Y                   Z               Mass
    ------------   -----------------  -----------------  -----------------  -----------------
         P            0.797831368179    -0.081668851349    -0.008615052469    30.973761998420
         O           -0.715731631821    -0.609662851349     0.015049947531    15.994914619570
         O            0.877012768179     1.070014748651     1.261998247531    15.994914619570
         O            0.866536368179     0.910768148651    -1.283272052469    15.994914619570
         O            1.794728368179    -1.172184851349     0.029658947531    15.994914619570
         C           -1.815171631821     0.332223148651    -0.013173052469    12.000000000000
         C           -3.091187631821    -0.474880851349     0.011428947531    12.000000000000
         H           -1.736019631821     0.991631148651     0.855742947531     1.007825032230
         H           -1.736894631821     0.938419148651    -0.920229052469     1.007825032230
         H           -3.952459631821     0.198082148651    -0.007850052469     1.007825032230
         H           -3.141622631821    -1.134749851349    -0.856287052469     1.007825032230
         H           -3.140501631821    -1.082422851349     0.916688947531     1.007825032230
         H            1.415742368179     0.645764148651     1.914078947531     1.007825032230
         H            1.395114368179     0.494582148651    -1.988541052469     1.007825032230

  Basis Set: AUG-CC-PVTZ
    Blend: AUG-CC-PVTZ
  Basis Set: (AUG-CC-PVTZ AUX)
    Blend: AUG-CC-PVTZ-JKFIT
	 Reference Energy          =    -720.2930082762948132 [Eh]
	 Singles Energy            =      -0.0000000000000000 [Eh]
	 Same-Spin Energy          =      -0.4077482616361509 [Eh]
	 Opposite-Spin Energy      =      -1.2329571710698399 [Eh]
	 Correlation Energy        =      -1.6407054327059907 [Eh]
	 Total Energy              =    -721.9337137090008127 [Eh]

	 ================> DF-SCS-MP2 Energies <==================
	-----------------------------------------------------------
	 SCS Same-Spin Scale       =       0.3333333333333333 [-]
	 SCS Opposite-Spin Scale   =       1.2000000000000000 [-]
	 SCS Same-Spin Energy      =      -0.1359160872120503 [Eh]
	 SCS Opposite-Spin Energy  =      -1.4795486052838078 [Eh]
	 SCS Correlation Energy    =      -1.6154646924958582 [Eh]
	 SCS Total Energy          =    -721.9084729687906474 [Eh]
	-----------------------------------------------------------

  Dipole Moment: [D]
     X:    -2.1367      Y:     1.5141      Z:    -0.5419     Total:     2.6742

*** Psi4 exiting successfully. Buy a developer a beer!
