                               Psi4 1.3.2 release

  ==> Input File <==

--------------------------------------------------------------------------
#psi4
#
memory 32 gb

molecule  {
0 1
  P        0.7984170    -0.0731530     0.0007800
  O       -0.7030455    -0.6347985    -0.0185963
  O        0.9273263     1.0200712     1.1848423
  O        0.8671220     0.9192840    -1.2738770
  O        1.7953140    -1.1636690     0.0390540
  C       -1.8145860     0.3407390    -0.0037780
  C       -3.0906020    -0.4663650     0.0208240
  H       -1.7354340     1.0001470     0.8651380
  H       -1.7363090     0.9469350    -0.9108340
  H       -3.9518740     0.2065980     0.0015450
  H       -3.1410370    -1.1262340    -0.8468920
  H       -3.1399160    -1.0739070     0.9260840
  H        1.4163280     0.6542800     1.9234740
  H        1.3957000     0.5030980    -1.9791460
units angstrom
no_reorient  #important for SAPT in psi4, default
symmetry c1  #important for SAPT in psi4, default
}

set PROPERTIES_ORIGIN ["COM"]
properties('MP2/aug-cc-pvtz', properties = ['dipole'])
--------------------------------------------------------------------------

    Molecular point group: c1
  Charge       = 0
  Multiplicity = 1
  Basis Set: AUG-CC-PVTZ
    Blend: AUG-CC-PVTZ
  Basis Set: (AUG-CC-PVTZ AUX)
    Blend: AUG-CC-PVTZ-JKFIT

    Orbital Energies [Eh]
    ---------------------

    Doubly Occupied:

       1A    -80.112901     2A    -20.611032     3A    -20.607570
       4A    -20.598275     5A    -20.513814     6A    -11.307602
       7A    -11.232934     8A     -7.628488     9A     -5.526866
      10A     -5.526402    11A     -5.525708    12A     -1.453054
      13A     -1.388793    14A     -1.380015    15A     -1.295145
      16A     -1.043005    17A     -0.871255    18A     -0.851475
      19A     -0.733452    20A     -0.727498    21A     -0.674091
      22A     -0.670092    23A     -0.644317    24A     -0.619590
      25A     -0.583264    26A     -0.569491    27A     -0.561875
      28A     -0.543096    29A     -0.532475    30A     -0.514796
      31A     -0.489367    32A     -0.469027    33A     -0.467251

  @DF-RHF Final Energy:  -720.30212809343197

   => Energetics <=

    Nuclear Repulsion Energy =            438.6631721469861418
    One-Electron Energy =               -1865.3825626218947491
    Two-Electron Energy =                 706.4172623814765757
    Total Energy =                       -720.3021280934319748
  Basis Set: (AUG-CC-PVTZ AUX)
    Blend: AUG-CC-PVTZ-RI
    Molecular point group: c1

    Geometry (in Angstrom), charge = 0, multiplicity = 1:

       Center              X                  Y                   Z               Mass
    ------------   -----------------  -----------------  -----------------  -----------------
         P            0.789983148676    -0.069976707256     0.007834812259    30.973761998420
         O           -0.711479351324    -0.631622207256    -0.011541487741    15.994914619570
         O            0.918892448676     1.023247492744     1.191897112259    15.994914619570
         O            0.858688148676     0.922460292744    -1.266822187741    15.994914619570
         O            1.786880148676    -1.160492707256     0.046108812259    15.994914619570
         C           -1.823019851324     0.343915292744     0.003276812259    12.000000000000
         C           -3.099035851324    -0.463188707256     0.027878812259    12.000000000000
         H           -1.743867851324     1.003323292744     0.872192812259     1.007825032230
         H           -1.744742851324     0.950111292744    -0.903779187741     1.007825032230
         H           -3.960307851324     0.209774292744     0.008599812259     1.007825032230
         H           -3.149470851324    -1.123057707256    -0.839837187741     1.007825032230
         H           -3.148349851324    -1.070730707256     0.933138812259     1.007825032230
         H            1.407894148676     0.657456292744     1.930528812259     1.007825032230
         H            1.387266148676     0.506274292744    -1.972091187741     1.007825032230

  Basis Set: AUG-CC-PVTZ
    Blend: AUG-CC-PVTZ
  Basis Set: (AUG-CC-PVTZ AUX)
    Blend: AUG-CC-PVTZ-JKFIT
	 Reference Energy          =    -720.3021280934319748 [Eh]
	 Singles Energy            =      -0.0000000000000000 [Eh]
	 Same-Spin Energy          =      -0.4069104043137390 [Eh]
	 Opposite-Spin Energy      =      -1.2302342765537833 [Eh]
	 Correlation Energy        =      -1.6371446808675223 [Eh]
	 Total Energy              =    -721.9392727742995248 [Eh]

	 ================> DF-SCS-MP2 Energies <==================
	-----------------------------------------------------------
	 SCS Same-Spin Scale       =       0.3333333333333333 [-]
	 SCS Opposite-Spin Scale   =       1.2000000000000000 [-]
	 SCS Same-Spin Energy      =      -0.1356368014379130 [Eh]
	 SCS Opposite-Spin Energy  =      -1.4762811318645399 [Eh]
	 SCS Correlation Energy    =      -1.6119179333024529 [Eh]
	 SCS Total Energy          =    -721.9140460267344679 [Eh]
	-----------------------------------------------------------

  Dipole Moment: [D]
     X:    -2.3238      Y:     1.9481      Z:     0.0588     Total:     3.0330

*** Psi4 exiting successfully. Buy a developer a beer!
