                               Psi4 1.3.2 release

  ==> Input File <==

--------------------------------------------------------------------------
#psi4
#
memory 32 gb

molecule  {
0 1
  P        0.7984170    -0.0731530     0.0007800
  O       -0.7104763    -0.6143263     0.0249265
  O        0.8729860     1.0114440     1.1973790
  O        0.8671220     0.9192840    -1.2738770
  O        1.7857538    -1.1723200     0.0394025
  C       -1.8145860     0.3407390    -0.0037780
  C       -3.0906020    -0.4663650     0.0208240
  H       -1.7354340     1.0001470     0.8651380
  H       -1.7363090     0.9469350    -0.9108340
  H       -3.9518740     0.2065980     0.0015450
  H       -3.1410370    -1.1262340    -0.8468920
  H       -3.1399160    -1.0739070     0.9260840
  H        1.4163280     0.6542800     1.9234740
  H        1.3957000     0.5030980    -1.9791460
units angstrom
no_reorient  #important for SAPT in psi4, default
symmetry c1  #important for SAPT in psi4, default
}

set PROPERTIES_ORIGIN ["COM"]
properties('MP2/aug-cc-pvtz', properties = ['dipole'])
--------------------------------------------------------------------------

    Molecular point group: c1
  Charge       = 0
  Multiplicity = 1
  Basis Set: AUG-CC-PVTZ
    Blend: AUG-CC-PVTZ
  Basis Set: (AUG-CC-PVTZ AUX)
    Blend: AUG-CC-PVTZ-JKFIT

    Orbital Energies [Eh]
    ---------------------

    Doubly Occupied:

       1A    -80.113915     2A    -20.611169     3A    -20.611129
       4A    -20.594447     5A    -20.517863     6A    -11.303399
       7A    -11.230624     8A     -7.629477     9A     -5.527833
      10A     -5.527470    11A     -5.526681    12A     -1.453673
      13A     -1.387049    14A     -1.382011    15A     -1.298495
      16A     -1.040629    17A     -0.871371    18A     -0.848412
      19A     -0.730065    20A     -0.729782    21A     -0.676534
      22A     -0.669170    23A     -0.645317    24A     -0.619108
      25A     -0.583819    26A     -0.568873    27A     -0.562469
      28A     -0.543748    29A     -0.531888    30A     -0.509848
      31A     -0.485742    32A     -0.472707    33A     -0.470051

  @DF-RHF Final Energy:  -720.30309075527327

   => Energetics <=

    Nuclear Repulsion Energy =            439.2064787092457436
    One-Electron Energy =               -1866.4696026106053068
    Two-Electron Energy =                 706.9600331460861753
    Total Energy =                       -720.3030907552732742
  Basis Set: (AUG-CC-PVTZ AUX)
    Blend: AUG-CC-PVTZ-RI
    Molecular point group: c1

    Geometry (in Angstrom), charge = 0, multiplicity = 1:

       Center              X                  Y                   Z               Mass
    ------------   -----------------  -----------------  -----------------  -----------------
         P            0.799037623640    -0.070382139276     0.000674633996    30.973761998420
         O           -0.709855676360    -0.611555439276     0.024821133996    15.994914619570
         O            0.873606623640     1.014214860724     1.197273633996    15.994914619570
         O            0.867742623640     0.922054860724    -1.273982366004    15.994914619570
         O            1.786374423640    -1.169549139276     0.039297133996    15.994914619570
         C           -1.813965376360     0.343509860724    -0.003883366004    12.000000000000
         C           -3.089981376360    -0.463594139276     0.020718633996    12.000000000000
         H           -1.734813376360     1.002917860724     0.865032633996     1.007825032230
         H           -1.735688376360     0.949705860724    -0.910939366004     1.007825032230
         H           -3.951253376360     0.209368860724     0.001439633996     1.007825032230
         H           -3.140416376360    -1.123463139276    -0.846997366004     1.007825032230
         H           -3.139295376360    -1.071136139276     0.925978633996     1.007825032230
         H            1.416948623640     0.657050860724     1.923368633996     1.007825032230
         H            1.396320623640     0.505868860724    -1.979251366004     1.007825032230

  Basis Set: AUG-CC-PVTZ
    Blend: AUG-CC-PVTZ
  Basis Set: (AUG-CC-PVTZ AUX)
    Blend: AUG-CC-PVTZ-JKFIT
	 Reference Energy          =    -720.3030907552732742 [Eh]
	 Singles Energy            =      -0.0000000000000000 [Eh]
	 Same-Spin Energy          =      -0.4071133521399923 [Eh]
	 Opposite-Spin Energy      =      -1.2304161363783941 [Eh]
	 Correlation Energy        =      -1.6375294885183864 [Eh]
	 Total Energy              =    -721.9406202437916136 [Eh]

	 ================> DF-SCS-MP2 Energies <==================
	-----------------------------------------------------------
	 SCS Same-Spin Scale       =       0.3333333333333333 [-]
	 SCS Opposite-Spin Scale   =       1.2000000000000000 [-]
	 SCS Same-Spin Energy      =      -0.1357044507133308 [Eh]
	 SCS Opposite-Spin Energy  =      -1.4764993636540729 [Eh]
	 SCS Correlation Energy    =      -1.6122038143674036 [Eh]
	 SCS Total Energy          =    -721.9152945696406505 [Eh]
	-----------------------------------------------------------

  Dipole Moment: [D]
     X:    -2.0366      Y:     1.9345      Z:    -0.0700     Total:     2.8098

*** Psi4 exiting successfully. Buy a developer a beer!
