                               Psi4 1.3.2 release

  ==> Input File <==

--------------------------------------------------------------------------
#psi4
#
memory 32 gb

molecule  {
0 1
  P        0.7984170    -0.0731530     0.0007800
  O       -0.6673361    -0.5423424     0.0226610
  O        0.8729860     1.0114440     1.1973790
  O        0.8671220     0.9192840    -1.2738770
  O        1.7953140    -1.1636690     0.0390540
  C       -1.8145860     0.3407390    -0.0037780
  C       -3.1311134    -0.3985075     0.0187834
  H       -1.7354340     1.0001470     0.8651380
  H       -1.7363090     0.9469350    -0.9108340
  H       -3.9518740     0.2065980     0.0015450
  H       -3.1410370    -1.1262340    -0.8468920
  H       -3.1399160    -1.0739070     0.9260840
  H        1.4163280     0.6542800     1.9234740
  H        1.3957000     0.5030980    -1.9791460
units angstrom
no_reorient  #important for SAPT in psi4, default
symmetry c1  #important for SAPT in psi4, default
}

set PROPERTIES_ORIGIN ["COM"]
properties('MP2/aug-cc-pvtz', properties = ['dipole'])
--------------------------------------------------------------------------

    Molecular point group: c1
  Charge       = 0
  Multiplicity = 1
  Basis Set: AUG-CC-PVTZ
    Blend: AUG-CC-PVTZ
  Basis Set: (AUG-CC-PVTZ AUX)
    Blend: AUG-CC-PVTZ-JKFIT

    Orbital Energies [Eh]
    ---------------------

    Doubly Occupied:

       1A    -80.106903     2A    -20.604368     3A    -20.604353
       4A    -20.595780     5A    -20.516030     6A    -11.308627
       7A    -11.236240     8A     -7.623694     9A     -5.522119
      10A     -5.521924    11A     -5.520792    12A     -1.462022
      13A     -1.390665    14A     -1.381582    15A     -1.296923
      16A     -1.049983    17A     -0.885857    18A     -0.842540
      19A     -0.735330    20A     -0.731109    21A     -0.674703
      22A     -0.669788    23A     -0.641026    24A     -0.626664
      25A     -0.601472    26A     -0.564503    27A     -0.562737
      28A     -0.556326    29A     -0.524092    30A     -0.506725
      31A     -0.481635    32A     -0.472470    33A     -0.468629

  @DF-RHF Final Energy:  -720.29704769622845

   => Energetics <=

    Nuclear Repulsion Energy =            441.3748096859711154
    One-Electron Energy =               -1870.7684951466869734
    Two-Electron Energy =                 709.0966377644874683
    Total Energy =                       -720.2970476962284465
  Basis Set: (AUG-CC-PVTZ AUX)
    Blend: AUG-CC-PVTZ-RI
    Molecular point group: c1

    Geometry (in Angstrom), charge = 0, multiplicity = 1:

       Center              X                  Y                   Z               Mass
    ------------   -----------------  -----------------  -----------------  -----------------
         P            0.796206049103    -0.087079770165     0.001200773636    30.973761998420
         O           -0.669547050897    -0.556269170165     0.023081773636    15.994914619570
         O            0.870775049103     0.997517229835     1.197799773636    15.994914619570
         O            0.864911049103     0.905357229835    -1.273456226364    15.994914619570
         O            1.793103049103    -1.177595770165     0.039474773636    15.994914619570
         C           -1.816796950897     0.326812229835    -0.003357226364    12.000000000000
         C           -3.133324350897    -0.412434270165     0.019204173636    12.000000000000
         H           -1.737644950897     0.986220229835     0.865558773636     1.007825032230
         H           -1.738519950897     0.933008229835    -0.910413226364     1.007825032230
         H           -3.954084950897     0.192671229835     0.001965773636     1.007825032230
         H           -3.143247950897    -1.140160770165    -0.846471226364     1.007825032230
         H           -3.142126950897    -1.087833770165     0.926504773636     1.007825032230
         H            1.414117049103     0.640353229835     1.923894773636     1.007825032230
         H            1.393489049103     0.489171229835    -1.978725226364     1.007825032230

  Basis Set: AUG-CC-PVTZ
    Blend: AUG-CC-PVTZ
  Basis Set: (AUG-CC-PVTZ AUX)
    Blend: AUG-CC-PVTZ-JKFIT
	 Reference Energy          =    -720.2970476962284465 [Eh]
	 Singles Energy            =      -0.0000000000000000 [Eh]
	 Same-Spin Energy          =      -0.4062890771880205 [Eh]
	 Opposite-Spin Energy      =      -1.2280449866603833 [Eh]
	 Correlation Energy        =      -1.6343340638484039 [Eh]
	 Total Energy              =    -721.9313817600768743 [Eh]

	 ================> DF-SCS-MP2 Energies <==================
	-----------------------------------------------------------
	 SCS Same-Spin Scale       =       0.3333333333333333 [-]
	 SCS Opposite-Spin Scale   =       1.2000000000000000 [-]
	 SCS Same-Spin Energy      =      -0.1354296923960068 [Eh]
	 SCS Opposite-Spin Energy  =      -1.4736539839924598 [Eh]
	 SCS Correlation Energy    =      -1.6090836763884666 [Eh]
	 SCS Total Energy          =    -721.9061313726168692 [Eh]
	-----------------------------------------------------------

  Dipole Moment: [D]
     X:    -2.4139      Y:     1.7316      Z:    -0.0623     Total:     2.9715

*** Psi4 exiting successfully. Buy a developer a beer!
