                               Psi4 1.3.2 release

  ==> Input File <==

--------------------------------------------------------------------------
#psi4
#
memory 32 gb

molecule  {
0 1
  P        0.7498993    -0.0188776    -0.0423981
  O       -0.7151460    -0.6011470     0.0244450
  O        0.8729860     1.0114440     1.1973790
  O        0.8671220     0.9192840    -1.2738770
  O        1.7953140    -1.1636690     0.0390540
  C       -1.8145860     0.3407390    -0.0037780
  C       -3.0906020    -0.4663650     0.0208240
  H       -1.7354340     1.0001470     0.8651380
  H       -1.7363090     0.9469350    -0.9108340
  H       -3.9518740     0.2065980     0.0015450
  H       -3.1410370    -1.1262340    -0.8468920
  H       -3.1399160    -1.0739070     0.9260840
  H        1.4080937     0.6976010     1.9491522
  H        1.3957000     0.5030980    -1.9791460
units angstrom
no_reorient  #important for SAPT in psi4, default
symmetry c1  #important for SAPT in psi4, default
}

set PROPERTIES_ORIGIN ["COM"]
properties('MP2/aug-cc-pvtz', properties = ['dipole'])
--------------------------------------------------------------------------

    Molecular point group: c1
  Charge       = 0
  Multiplicity = 1
  Basis Set: AUG-CC-PVTZ
    Blend: AUG-CC-PVTZ
  Basis Set: (AUG-CC-PVTZ AUX)
    Blend: AUG-CC-PVTZ-JKFIT

    Orbital Energies [Eh]
    ---------------------

    Doubly Occupied:

       1A    -80.116315     2A    -20.625826     3A    -20.604250
       4A    -20.602402     5A    -20.500933     6A    -11.307733
       7A    -11.233890     8A     -7.631329     9A     -5.529928
      10A     -5.529484    11A     -5.528087    12A     -1.470509
      13A     -1.407613    14A     -1.385705    15A     -1.253084
      16A     -1.045954    17A     -0.880296    18A     -0.862823
      19A     -0.750881    20A     -0.740910    21A     -0.683283
      22A     -0.678645    23A     -0.642961    24A     -0.627112
      25A     -0.594141    26A     -0.574471    27A     -0.558198
      28A     -0.537632    29A     -0.525652    30A     -0.516814
      31A     -0.490112    32A     -0.443876    33A     -0.441786

  @DF-RHF Final Energy:  -720.29221571422431

   => Energetics <=

    Nuclear Repulsion Energy =            440.1909720376935979
    One-Electron Energy =               -1868.3211015076597050
    Two-Electron Energy =                 707.8379137557417380
    Total Energy =                       -720.2922157142243123
  Basis Set: (AUG-CC-PVTZ AUX)
    Blend: AUG-CC-PVTZ-RI
    Molecular point group: c1

    Geometry (in Angstrom), charge = 0, multiplicity = 1:

       Center              X                  Y                   Z               Mass
    ------------   -----------------  -----------------  -----------------  -----------------
         P            0.761891019688    -0.032565566285    -0.031989984465    30.973761998420
         O           -0.703154280312    -0.614834966285     0.034853115535    15.994914619570
         O            0.884977719688     0.997756033715     1.207787115535    15.994914619570
         O            0.879113719688     0.905596033715    -1.263468884465    15.994914619570
         O            1.807305719688    -1.177356966285     0.049462115535    15.994914619570
         C           -1.802594280312     0.327051033715     0.006630115535    12.000000000000
         C           -3.078610280312    -0.480052966285     0.031232115535    12.000000000000
         H           -1.723442280312     0.986459033715     0.875546115535     1.007825032230
         H           -1.724317280312     0.933247033715    -0.900425884465     1.007825032230
         H           -3.939882280312     0.192910033715     0.011953115535     1.007825032230
         H           -3.129045280312    -1.139921966285    -0.836483884465     1.007825032230
         H           -3.127924280312    -1.087594966285     0.936492115535     1.007825032230
         H            1.420085419688     0.683913033715     1.959560315535     1.007825032230
         H            1.407691719688     0.489410033715    -1.968737884465     1.007825032230

  Basis Set: AUG-CC-PVTZ
    Blend: AUG-CC-PVTZ
  Basis Set: (AUG-CC-PVTZ AUX)
    Blend: AUG-CC-PVTZ-JKFIT
	 Reference Energy          =    -720.2922157142243123 [Eh]
	 Singles Energy            =      -0.0000000000000000 [Eh]
	 Same-Spin Energy          =      -0.4075932593634415 [Eh]
	 Opposite-Spin Energy      =      -1.2304898748958588 [Eh]
	 Correlation Energy        =      -1.6380831342593003 [Eh]
	 Total Energy              =    -721.9302988484836305 [Eh]

	 ================> DF-SCS-MP2 Energies <==================
	-----------------------------------------------------------
	 SCS Same-Spin Scale       =       0.3333333333333333 [-]
	 SCS Opposite-Spin Scale   =       1.2000000000000000 [-]
	 SCS Same-Spin Energy      =      -0.1358644197878138 [Eh]
	 SCS Opposite-Spin Energy  =      -1.4765878498750304 [Eh]
	 SCS Correlation Energy    =      -1.6124522696628443 [Eh]
	 SCS Total Energy          =    -721.9046679838871796 [Eh]
	-----------------------------------------------------------

  Dipole Moment: [D]
     X:    -2.6038      Y:     2.4814      Z:    -0.4675     Total:     3.6271

*** Psi4 exiting successfully. Buy a developer a beer!
