                               Psi4 1.3.2 release

  ==> Input File <==

--------------------------------------------------------------------------
#psi4
#
memory 32 gb

molecule  {
0 1
  P        0.7984170    -0.0731530     0.0007800
  O       -0.7151460    -0.6011470     0.0244450
  O        0.8729860     1.0114440     1.1973790
  O        0.8671220     0.9192840    -1.2738770
  O        1.7953140    -1.1636690     0.0390540
  C       -1.8145860     0.3407390    -0.0037780
  C       -3.0906020    -0.4663650     0.0208240
  H       -1.7354340     1.0001470     0.8651380
  H       -1.7363090     0.9469350    -0.9108340
  H       -3.9518740     0.2065980     0.0015450
  H       -3.1410370    -1.1262340    -0.8468920
  H       -3.1399160    -1.0739070     0.9260840
  H        1.3048366     0.7275685     1.7744825
  H        1.3957000     0.5030980    -1.9791460
units angstrom
no_reorient  #important for SAPT in psi4, default
symmetry c1  #important for SAPT in psi4, default
}

set PROPERTIES_ORIGIN ["COM"]
properties('MP2/aug-cc-pvtz', properties = ['dipole'])
--------------------------------------------------------------------------

    Molecular point group: c1
  Charge       = 0
  Multiplicity = 1
  Basis Set: AUG-CC-PVTZ
    Blend: AUG-CC-PVTZ
  Basis Set: (AUG-CC-PVTZ AUX)
    Blend: AUG-CC-PVTZ-JKFIT

    Orbital Energies [Eh]
    ---------------------

    Doubly Occupied:

       1A    -80.118767     2A    -20.612995     3A    -20.597201
       4A    -20.593691     5A    -20.522755     6A    -11.304014
       7A    -11.231441     8A     -7.634247     9A     -5.532670
      10A     -5.532270    11A     -5.531398    12A     -1.487952
      13A     -1.420540    14A     -1.387333    15A     -1.304020
      16A     -1.042364    17A     -0.892473    18A     -0.866004
      19A     -0.758013    20A     -0.733966    21A     -0.685013
      22A     -0.674942    23A     -0.651421    24A     -0.623889
      25A     -0.589238    26A     -0.573191    27A     -0.566462
      28A     -0.546825    29A     -0.536346    30A     -0.510535
      31A     -0.487340    32A     -0.477483    33A     -0.473837

  @DF-RHF Final Energy:  -720.25670657590547

   => Energetics <=

    Nuclear Repulsion Energy =            441.0080769646947942
    One-Electron Energy =               -1869.5282922628371125
    Two-Electron Energy =                 708.2635087222369066
    Total Energy =                       -720.2567065759054685
  Basis Set: (AUG-CC-PVTZ AUX)
    Blend: AUG-CC-PVTZ-RI
    Molecular point group: c1

    Geometry (in Angstrom), charge = 0, multiplicity = 1:

       Center              X                  Y                   Z               Mass
    ------------   -----------------  -----------------  -----------------  -----------------
         P            0.799308563904    -0.073739347647     0.001971638063    30.973761998420
         O           -0.714254436096    -0.601733347647     0.025636638063    15.994914619570
         O            0.873877563904     1.010857652353     1.198570638063    15.994914619570
         O            0.868013563904     0.918697652353    -1.272685361937    15.994914619570
         O            1.796205563904    -1.164255347647     0.040245638063    15.994914619570
         C           -1.813694436096     0.340152652353    -0.002586361937    12.000000000000
         C           -3.089710436096    -0.466951347647     0.022015638063    12.000000000000
         H           -1.734542436096     0.999560652353     0.866329638063     1.007825032230
         H           -1.735417436096     0.946348652353    -0.909642361937     1.007825032230
         H           -3.950982436096     0.206011652353     0.002736638063     1.007825032230
         H           -3.140145436096    -1.126820347647    -0.845700361937     1.007825032230
         H           -3.139024436096    -1.074493347647     0.927275638063     1.007825032230
         H            1.305728163904     0.726982152353     1.775674138063     1.007825032230
         H            1.396591563904     0.502511652353    -1.977954361937     1.007825032230

  Basis Set: AUG-CC-PVTZ
    Blend: AUG-CC-PVTZ
  Basis Set: (AUG-CC-PVTZ AUX)
    Blend: AUG-CC-PVTZ-JKFIT
	 Reference Energy          =    -720.2567065759054685 [Eh]
	 Singles Energy            =      -0.0000000000000000 [Eh]
	 Same-Spin Energy          =      -0.4049397574985803 [Eh]
	 Opposite-Spin Energy      =      -1.2255567232095932 [Eh]
	 Correlation Energy        =      -1.6304964807081734 [Eh]
	 Total Energy              =    -721.8872030566136573 [Eh]

	 ================> DF-SCS-MP2 Energies <==================
	-----------------------------------------------------------
	 SCS Same-Spin Scale       =       0.3333333333333333 [-]
	 SCS Opposite-Spin Scale   =       1.2000000000000000 [-]
	 SCS Same-Spin Energy      =      -0.1349799191661934 [Eh]
	 SCS Opposite-Spin Energy  =      -1.4706680678515118 [Eh]
	 SCS Correlation Energy    =      -1.6056479870177052 [Eh]
	 SCS Total Energy          =    -721.8623545629232012 [Eh]
	-----------------------------------------------------------

  Dipole Moment: [D]
     X:    -2.1865      Y:     1.8730      Z:    -0.3590     Total:     2.9013

*** Psi4 exiting successfully. Buy a developer a beer!
