                               Psi4 1.3.2 release

  ==> Input File <==

--------------------------------------------------------------------------
#psi4
#
memory 32 gb

molecule  {
0 1
  P        0.7984170    -0.0731530     0.0007800
  O       -0.7151460    -0.6011470     0.0244450
  O        0.8729860     1.0114440     1.1973790
  O        0.8671220     0.9192840    -1.2738770
  O        1.8627629    -1.2374521     0.0416436
  C       -1.8145860     0.3407390    -0.0037780
  C       -3.0906020    -0.4663650     0.0208240
  H       -1.7354340     1.0001470     0.8651380
  H       -1.7363090     0.9469350    -0.9108340
  H       -3.9518740     0.2065980     0.0015450
  H       -3.1410370    -1.1262340    -0.8468920
  H       -3.1399160    -1.0739070     0.9260840
  H        1.4163280     0.6542800     1.9234740
  H        1.3957000     0.5030980    -1.9791460
units angstrom
no_reorient  #important for SAPT in psi4, default
symmetry c1  #important for SAPT in psi4, default
}

set PROPERTIES_ORIGIN ["COM"]
properties('MP2/aug-cc-pvtz', properties = ['dipole'])
--------------------------------------------------------------------------

    Molecular point group: c1
  Charge       = 0
  Multiplicity = 1
  Basis Set: AUG-CC-PVTZ
    Blend: AUG-CC-PVTZ
  Basis Set: (AUG-CC-PVTZ AUX)
    Blend: AUG-CC-PVTZ-JKFIT

    Orbital Energies [Eh]
    ---------------------

    Doubly Occupied:

       1A    -80.131029     2A    -20.617574     3A    -20.617533
       4A    -20.600724     5A    -20.522137     6A    -11.306084
       7A    -11.232704     8A     -7.643402     9A     -5.542038
      10A     -5.541697    11A     -5.539889    12A     -1.456813
      13A     -1.392557    14A     -1.389858    15A     -1.259160
      16A     -1.043923    17A     -0.878044    18A     -0.853216
      19A     -0.735485    20A     -0.735161    21A     -0.680383
      22A     -0.674148    23A     -0.645291    24A     -0.624266
      25A     -0.586644    26A     -0.573028    27A     -0.556955
      28A     -0.536432    29A     -0.533497    30A     -0.512107
      31A     -0.486868    32A     -0.455348    33A     -0.453945

  @DF-RHF Final Energy:  -720.28479315667857

   => Energetics <=

    Nuclear Repulsion Energy =            435.1004152554809821
    One-Electron Energy =               -1858.0545321474355660
    Two-Electron Energy =                 702.6693237352759525
    Total Energy =                       -720.2847931566785746
  Basis Set: (AUG-CC-PVTZ AUX)
    Blend: AUG-CC-PVTZ-RI
    Molecular point group: c1

    Geometry (in Angstrom), charge = 0, multiplicity = 1:

       Center              X                  Y                   Z               Mass
    ------------   -----------------  -----------------  -----------------  -----------------
         P            0.789855184988    -0.063787484098     0.000451278272    30.973761998420
         O           -0.723707815012    -0.591781484098     0.024116278272    15.994914619570
         O            0.864424184988     1.020809515902     1.197050278272    15.994914619570
         O            0.858560184988     0.928649515902    -1.274205721728    15.994914619570
         O            1.854201084988    -1.228086584098     0.041314878272    15.994914619570
         C           -1.823147815012     0.350104515902    -0.004106721728    12.000000000000
         C           -3.099163815012    -0.456999484098     0.020495278272    12.000000000000
         H           -1.743995815012     1.009512515902     0.864809278272     1.007825032230
         H           -1.744870815012     0.956300515902    -0.911162721728     1.007825032230
         H           -3.960435815012     0.215963515902     0.001216278272     1.007825032230
         H           -3.149598815012    -1.116868484098    -0.847220721728     1.007825032230
         H           -3.148477815012    -1.064541484098     0.925755278272     1.007825032230
         H            1.407766184988     0.663645515902     1.923145278272     1.007825032230
         H            1.387138184988     0.512463515902    -1.979474721728     1.007825032230

  Basis Set: AUG-CC-PVTZ
    Blend: AUG-CC-PVTZ
  Basis Set: (AUG-CC-PVTZ AUX)
    Blend: AUG-CC-PVTZ-JKFIT
	 Reference Energy          =    -720.2847931566785746 [Eh]
	 Singles Energy            =      -0.0000000000000000 [Eh]
	 Same-Spin Energy          =      -0.4092408293566387 [Eh]
	 Opposite-Spin Energy      =      -1.2355136382667804 [Eh]
	 Correlation Energy        =      -1.6447544676234191 [Eh]
	 Total Energy              =    -721.9295476243020175 [Eh]

	 ================> DF-SCS-MP2 Energies <==================
	-----------------------------------------------------------
	 SCS Same-Spin Scale       =       0.3333333333333333 [-]
	 SCS Opposite-Spin Scale   =       1.2000000000000000 [-]
	 SCS Same-Spin Energy      =      -0.1364136097855462 [Eh]
	 SCS Opposite-Spin Energy  =      -1.4826163659201363 [Eh]
	 SCS Correlation Energy    =      -1.6190299757056825 [Eh]
	 SCS Total Energy          =    -721.9038231323842183 [Eh]
	-----------------------------------------------------------

  Dipole Moment: [D]
     X:    -2.3879      Y:     2.2290      Z:    -0.0802     Total:     3.2676

*** Psi4 exiting successfully. Buy a developer a beer!
