                               Psi4 1.4a3.dev225

  ==> Input File <==

--------------------------------------------------------------------------
#psi4
#
memory 32 gb

molecule  {
0 1
  P        0.8768730    -0.1227020    -0.0963880
  O       -0.6616900    -0.4669690    -0.3477670
  O        1.0437430     0.0794150     1.5121170
  O        0.9276490     1.4110650    -0.6042510
  O        1.8606897    -1.1267043    -0.6948728
  C       -1.7021250     0.4138110     0.1607360
  C       -3.0206860    -0.2869630    -0.0679060
  H       -1.5201960     0.5987390     1.2233000
  H       -1.6444250     1.3614050    -0.3799660
  H       -3.8417660     0.3429090     0.2865800
  H       -3.1647720    -0.4853110    -1.1316920
  H       -3.0471290    -1.2354240     0.4720910
  H        1.4666950    -0.7151170     1.8872290
  H        1.8298220     1.7749190    -0.5472100
units angstrom
no_reorient  #important for SAPT in psi4, default
symmetry c1  #important for SAPT in psi4, default
}

set PROPERTIES_ORIGIN ["COM"]
properties('MP2/aug-cc-pvtz', properties = ['dipole'])
--------------------------------------------------------------------------

    Molecular point group: c1
  Charge       = 0
  Multiplicity = 1
  Basis Set: AUG-CC-PVTZ
    Blend: AUG-CC-PVTZ
  Basis Set: (AUG-CC-PVTZ AUX)
    Blend: AUG-CC-PVTZ-JKFIT

    Orbital Energies [Eh]
    ---------------------

    Doubly Occupied:

       1A    -80.123472     2A    -20.616150     3A    -20.614029
       4A    -20.599533     5A    -20.519055     6A    -11.305549
       7A    -11.231883     8A     -7.636883     9A     -5.535520
      10A     -5.535308    11A     -5.533437    12A     -1.455268
      13A     -1.387955    14A     -1.386787    15A     -1.277058
      16A     -1.043007    17A     -0.875758    18A     -0.846136
      19A     -0.757374    20A     -0.721598    21A     -0.676464
      22A     -0.670615    23A     -0.640053    24A     -0.607386
      25A     -0.591430    26A     -0.571130    27A     -0.558574
      28A     -0.543856    29A     -0.534676    30A     -0.513207
      31A     -0.487556    32A     -0.462307    33A     -0.459687

  @DF-RHF Final Energy:  -720.29551086938659

   => Energetics <=

    Nuclear Repulsion Energy =            437.1514361124932861
    One-Electron Energy =               -1862.2564916515175355
    Two-Electron Energy =                 704.8095446696377167
    Total Energy =                       -720.2955108693865895
  Basis Set: (AUG-CC-PVTZ AUX)
    Blend: AUG-CC-PVTZ-RI
    Molecular point group: c1

    Geometry (in Angstrom), charge = 0, multiplicity = 1:

       Center              X                  Y                   Z               Mass
    ------------   -----------------  -----------------  -----------------  -----------------
         P            0.788013232453    -0.104655833138    -0.078907101421    30.973761998420
         O           -0.750549767547    -0.448922833138    -0.330286101421    15.994914619570
         O            0.954883232453     0.097461166862     1.529597898579    15.994914619570
         O            0.838789232453     1.429111166862    -0.586770101421    15.994914619570
         O            1.771829932453    -1.108658133138    -0.677391901421    15.994914619570
         C           -1.790984767547     0.431857166862     0.178216898579    12.000000000000
         C           -3.109545767547    -0.268916833138    -0.050425101421    12.000000000000
         H           -1.609055767547     0.616785166862     1.240780898579     1.007825032230
         H           -1.733284767547     1.379451166862    -0.362485101421     1.007825032230
         H           -3.930625767547     0.360955166862     0.304060898579     1.007825032230
         H           -3.253631767547    -0.467264833138    -1.114211101421     1.007825032230
         H           -3.135988767547    -1.217377833138     0.489571898579     1.007825032230
         H            1.377835232453    -0.697070833138     1.904709898579     1.007825032230
         H            1.740962232453     1.792965166862    -0.529729101421     1.007825032230

  Basis Set: AUG-CC-PVTZ
    Blend: AUG-CC-PVTZ
  Basis Set: (AUG-CC-PVTZ AUX)
    Blend: AUG-CC-PVTZ-JKFIT
	 Reference Energy          =    -720.2955108693865895 [Eh]
	 Singles Energy            =      -0.0000000000000000 [Eh]
	 Same-Spin Energy          =      -0.4083676237558040 [Eh]
	 Opposite-Spin Energy      =      -1.2334864703354493 [Eh]
	 Correlation Energy        =      -1.6418540940912534 [Eh]
	 Total Energy              =    -721.9373649634778758 [Eh]

	 ================> DF-SCS-MP2 Energies <==================
	-----------------------------------------------------------
	 SCS Same-Spin Scale       =       0.3333333333333333 [-]
	 SCS Opposite-Spin Scale   =       1.2000000000000000 [-]
	 SCS Same-Spin Energy      =      -0.1361225412519347 [Eh]
	 SCS Opposite-Spin Energy  =      -1.4801837644025391 [Eh]
	 SCS Correlation Energy    =      -1.6163063056544738 [Eh]
	 SCS Total Energy          =    -721.9118171750410511 [Eh]
	-----------------------------------------------------------

  Dipole Moment: [D]
     X:    -1.7356      Y:     2.3228      Z:     2.3197     Total:     3.7133

*** Psi4 exiting successfully. Buy a developer a beer!
