                               Psi4 1.3.2 release

  ==> Input File <==

--------------------------------------------------------------------------
#psi4
#
memory 32 gb

molecule  {
0 1
  P        0.8074099    -0.0996346     0.0016542
  O       -0.7151460    -0.6011470     0.0244450
  O        0.8729860     1.0114440     1.1973790
  O        0.8671220     0.9192840    -1.2738770
  O        1.7953140    -1.1636690     0.0390540
  C       -1.8308638     0.3214209    -0.0030561
  C       -3.0906020    -0.4663650     0.0208240
  H       -1.7354340     1.0001470     0.8651380
  H       -1.7363090     0.9469350    -0.9108340
  H       -3.9518740     0.2065980     0.0015450
  H       -3.1410370    -1.1262340    -0.8468920
  H       -3.1399160    -1.0739070     0.9260840
  H        1.4163280     0.6542800     1.9234740
  H        1.3957000     0.5030980    -1.9791460
units angstrom
no_reorient  #important for SAPT in psi4, default
symmetry c1  #important for SAPT in psi4, default
}

set PROPERTIES_ORIGIN ["COM"]
properties('MP2/aug-cc-pvtz', properties = ['dipole'])
--------------------------------------------------------------------------

    Molecular point group: c1
  Charge       = 0
  Multiplicity = 1
  Basis Set: AUG-CC-PVTZ
    Blend: AUG-CC-PVTZ
  Basis Set: (AUG-CC-PVTZ AUX)
    Blend: AUG-CC-PVTZ-JKFIT

    Orbital Energies [Eh]
    ---------------------

    Doubly Occupied:

       1A    -80.113749     2A    -20.607122     3A    -20.607105
       4A    -20.593391     5A    -20.524763     6A    -11.303113
       7A    -11.229399     8A     -7.629676     9A     -5.527910
      10A     -5.527655    11A     -5.527048    12A     -1.449823
      13A     -1.381101    14A     -1.379087    15A     -1.315267
      16A     -1.045660    17A     -0.871621    18A     -0.840387
      19A     -0.728764    20A     -0.721961    21A     -0.675302
      22A     -0.665987    23A     -0.642556    24A     -0.619056
      25A     -0.585596    26A     -0.568251    27A     -0.566223
      28A     -0.545967    29A     -0.528271    30A     -0.509710
      31A     -0.485144    32A     -0.484795    33A     -0.473642

  @DF-RHF Final Energy:  -720.30178203129481

   => Energetics <=

    Nuclear Repulsion Energy =            439.1591832353163340
    One-Electron Energy =               -1866.3717260985222310
    Two-Electron Energy =                 706.9107608319111478
    Total Energy =                       -720.3017820312948061
  Basis Set: (AUG-CC-PVTZ AUX)
    Blend: AUG-CC-PVTZ-RI
    Molecular point group: c1

    Geometry (in Angstrom), charge = 0, multiplicity = 1:

       Center              X                  Y                   Z               Mass
    ------------   -----------------  -----------------  -----------------  -----------------
         P            0.806749388922    -0.091285703758     0.001370557626    30.973761998420
         O           -0.715806511078    -0.592798103758     0.024161357626    15.994914619570
         O            0.872325488922     1.019792896242     1.197095357626    15.994914619570
         O            0.866461488922     0.927632896242    -1.274160642374    15.994914619570
         O            1.794653488922    -1.155320103758     0.038770357626    15.994914619570
         C           -1.831524311078     0.329769796242    -0.003339742374    12.000000000000
         C           -3.091262511078    -0.458016103758     0.020540357626    12.000000000000
         H           -1.736094511078     1.008495896242     0.864854357626     1.007825032230
         H           -1.736969511078     0.955283896242    -0.911117642374     1.007825032230
         H           -3.952534511078     0.214946896242     0.001261357626     1.007825032230
         H           -3.141697511078    -1.117885103758    -0.847175642374     1.007825032230
         H           -3.140576511078    -1.065558103758     0.925800357626     1.007825032230
         H            1.415667488922     0.662628896242     1.923190357626     1.007825032230
         H            1.395039488922     0.511446896242    -1.979429642374     1.007825032230

  Basis Set: AUG-CC-PVTZ
    Blend: AUG-CC-PVTZ
  Basis Set: (AUG-CC-PVTZ AUX)
    Blend: AUG-CC-PVTZ-JKFIT
	 Reference Energy          =    -720.3017820312948061 [Eh]
	 Singles Energy            =      -0.0000000000000000 [Eh]
	 Same-Spin Energy          =      -0.4069976665389975 [Eh]
	 Opposite-Spin Energy      =      -1.2301279170331210 [Eh]
	 Correlation Energy        =      -1.6371255835721183 [Eh]
	 Total Energy              =    -721.9389076148669346 [Eh]

	 ================> DF-SCS-MP2 Energies <==================
	-----------------------------------------------------------
	 SCS Same-Spin Scale       =       0.3333333333333333 [-]
	 SCS Opposite-Spin Scale   =       1.2000000000000000 [-]
	 SCS Same-Spin Energy      =      -0.1356658888463325 [Eh]
	 SCS Opposite-Spin Energy  =      -1.4761535004397450 [Eh]
	 SCS Correlation Energy    =      -1.6118193892860775 [Eh]
	 SCS Total Energy          =    -721.9136014205809033 [Eh]
	-----------------------------------------------------------

  Dipole Moment: [D]
     X:    -1.9676      Y:     1.5915      Z:    -0.0583     Total:     2.5314

*** Psi4 exiting successfully. Buy a developer a beer!
