                               Psi4 1.3.2 release

  ==> Input File <==

--------------------------------------------------------------------------
#psi4
#
memory 32 gb

molecule  {
0 1
  P        0.7660409    -0.0372907    -0.0283773
  O       -0.7151460    -0.6011470     0.0244450
  O        0.8729860     1.0114440     1.1973790
  O        0.8671220     0.9192840    -1.2738770
  O        1.7953140    -1.1636690     0.0390540
  C       -1.8145860     0.3407390    -0.0037780
  C       -3.0906020    -0.4663650     0.0208240
  H       -1.7354340     1.0001470     0.8651380
  H       -1.7363090     0.9469350    -0.9108340
  H       -3.9518740     0.2065980     0.0015450
  H       -3.1410370    -1.1262340    -0.8468920
  H       -3.1399160    -1.0739070     0.9260840
  H        1.4110026     0.6830592     1.9408184
  H        1.3957000     0.5030980    -1.9791460
units angstrom
no_reorient  #important for SAPT in psi4, default
symmetry c1  #important for SAPT in psi4, default
}

set PROPERTIES_ORIGIN ["COM"]
properties('MP2/aug-cc-pvtz', properties = ['dipole'])
--------------------------------------------------------------------------

    Molecular point group: c1
  Charge       = 0
  Multiplicity = 1
  Basis Set: AUG-CC-PVTZ
    Blend: AUG-CC-PVTZ
  Basis Set: (AUG-CC-PVTZ AUX)
    Blend: AUG-CC-PVTZ-JKFIT

    Orbital Energies [Eh]
    ---------------------

    Doubly Occupied:

       1A    -80.115888     2A    -20.620869     3A    -20.606288
       4A    -20.599904     5A    -20.507093     6A    -11.305950
       7A    -11.232695     8A     -7.630880     9A     -5.529394
      10A     -5.529046    11A     -5.527768    12A     -1.464035
      13A     -1.400700    14A     -1.386079    15A     -1.268561
      16A     -1.044219    17A     -0.877640    18A     -0.857843
      19A     -0.744116    20A     -0.737562    21A     -0.679739
      22A     -0.675832    23A     -0.643839    24A     -0.625320
      25A     -0.589971    26A     -0.573130    27A     -0.557912
      28A     -0.536394    29A     -0.534129    30A     -0.514102
      31A     -0.487995    32A     -0.453911    33A     -0.451957

  @DF-RHF Final Energy:  -720.29845987773786

   => Energetics <=

    Nuclear Repulsion Energy =            439.9182182799219731
    One-Electron Energy =               -1867.8118355171247913
    Two-Electron Energy =                 707.5951573594649062
    Total Energy =                       -720.2984598777378551
  Basis Set: (AUG-CC-PVTZ AUX)
    Blend: AUG-CC-PVTZ-RI
    Molecular point group: c1

    Geometry (in Angstrom), charge = 0, multiplicity = 1:

       Center              X                  Y                   Z               Mass
    ------------   -----------------  -----------------  -----------------  -----------------
         P            0.774041627387    -0.046336281210    -0.021348948040    30.973761998420
         O           -0.707145272613    -0.610192581210     0.031473351960    15.994914619570
         O            0.880986727387     1.002398418790     1.204407351960    15.994914619570
         O            0.875122727387     0.910238418790    -1.266848648040    15.994914619570
         O            1.803314727387    -1.172714581210     0.046082351960    15.994914619570
         C           -1.806585272613     0.331693418790     0.003250351960    12.000000000000
         C           -3.082601272613    -0.475410581210     0.027852351960    12.000000000000
         H           -1.727433272613     0.991101418790     0.872166351960     1.007825032230
         H           -1.728308272613     0.937889418790    -0.903805648040     1.007825032230
         H           -3.943873272613     0.197552418790     0.008573351960     1.007825032230
         H           -3.133036272613    -1.135279581210    -0.839863648040     1.007825032230
         H           -3.131915272613    -1.082952581210     0.933112351960     1.007825032230
         H            1.419003327387     0.674013618790     1.947846751960     1.007825032230
         H            1.403700727387     0.494052418790    -1.972117648040     1.007825032230

  Basis Set: AUG-CC-PVTZ
    Blend: AUG-CC-PVTZ
  Basis Set: (AUG-CC-PVTZ AUX)
    Blend: AUG-CC-PVTZ-JKFIT
	 Reference Energy          =    -720.2984598777378551 [Eh]
	 Singles Energy            =      -0.0000000000000000 [Eh]
	 Same-Spin Energy          =      -0.4073983985419403 [Eh]
	 Opposite-Spin Energy      =      -1.2303225904436503 [Eh]
	 Correlation Energy        =      -1.6377209889855906 [Eh]
	 Total Energy              =    -721.9361808667234754 [Eh]

	 ================> DF-SCS-MP2 Energies <==================
	-----------------------------------------------------------
	 SCS Same-Spin Scale       =       0.3333333333333333 [-]
	 SCS Opposite-Spin Scale   =       1.2000000000000000 [-]
	 SCS Same-Spin Energy      =      -0.1357994661806468 [Eh]
	 SCS Opposite-Spin Energy  =      -1.4763871085323803 [Eh]
	 SCS Correlation Energy    =      -1.6121865747130271 [Eh]
	 SCS Total Energy          =    -721.9106464524509192 [Eh]
	-----------------------------------------------------------

  Dipole Moment: [D]
     X:    -2.4073      Y:     2.2727      Z:    -0.3387     Total:     3.3279

*** Psi4 exiting successfully. Buy a developer a beer!
