                               Psi4 1.3.2 release

  ==> Input File <==

--------------------------------------------------------------------------
#psi4
#
memory 32 gb

molecule  {
0 1
  P        0.7984170    -0.0731530     0.0007800
  O       -0.7151460    -0.6011470     0.0244450
  O        0.8729860     1.0114440     1.1973790
  O        0.8671220     0.9192840    -1.2738770
  O        1.7278651    -1.0898859     0.0364644
  C       -1.8145860     0.3407390    -0.0037780
  C       -3.0906020    -0.4663650     0.0208240
  H       -1.7354340     1.0001470     0.8651380
  H       -1.7363090     0.9469350    -0.9108340
  H       -3.9518740     0.2065980     0.0015450
  H       -3.1410370    -1.1262340    -0.8468920
  H       -3.1399160    -1.0739070     0.9260840
  H        1.4163280     0.6542800     1.9234740
  H        1.3957000     0.5030980    -1.9791460
units angstrom
no_reorient  #important for SAPT in psi4, default
symmetry c1  #important for SAPT in psi4, default
}

set PROPERTIES_ORIGIN ["COM"]
properties('MP2/aug-cc-pvtz', properties = ['dipole'])
--------------------------------------------------------------------------

    Molecular point group: c1
  Charge       = 0
  Multiplicity = 1
  Basis Set: AUG-CC-PVTZ
    Blend: AUG-CC-PVTZ
  Basis Set: (AUG-CC-PVTZ AUX)
    Blend: AUG-CC-PVTZ-JKFIT

    Orbital Energies [Eh]
    ---------------------

    Doubly Occupied:

       1A    -80.092597     2A    -20.603126     3A    -20.603084
       4A    -20.588047     5A    -20.515173     6A    -11.298135
       7A    -11.227572     8A     -7.614110     9A     -5.512722
      10A     -5.511554    11A     -5.511147    12A     -1.456368
      13A     -1.380359    14A     -1.378589    15A     -1.341552
      16A     -1.036848    17A     -0.867796    18A     -0.841584
      19A     -0.727651    20A     -0.725012    21A     -0.674251
      22A     -0.665731    23A     -0.647910    24A     -0.616129
      25A     -0.587111    26A     -0.572486    27A     -0.564381
      28A     -0.544791    29A     -0.527365    30A     -0.504615
      31A     -0.495621    32A     -0.494909    33A     -0.475947

  @DF-RHF Final Energy:  -720.29954174165937

   => Energetics <=

    Nuclear Repulsion Energy =            444.1722623202931572
    One-Electron Energy =               -1876.5350611494534405
    Two-Electron Energy =                 712.0632570875009151
    Total Energy =                       -720.2995417416593682
  Basis Set: (AUG-CC-PVTZ AUX)
    Blend: AUG-CC-PVTZ-RI
    Molecular point group: c1

    Geometry (in Angstrom), charge = 0, multiplicity = 1:

       Center              X                  Y                   Z               Mass
    ------------   -----------------  -----------------  -----------------  -----------------
         P            0.806978506065    -0.082518874993     0.001108702666    30.973761998420
         O           -0.706584493935    -0.610512874993     0.024773702666    15.994914619570
         O            0.881547506065     1.002078125007     1.197707702666    15.994914619570
         O            0.875683506065     0.909918125007    -1.273548297334    15.994914619570
         O            1.736426606065    -1.099251774993     0.036793102666    15.994914619570
         C           -1.806024493935     0.331373125007    -0.003449297334    12.000000000000
         C           -3.082040493935    -0.475730874993     0.021152702666    12.000000000000
         H           -1.726872493935     0.990781125007     0.865466702666     1.007825032230
         H           -1.727747493935     0.937569125007    -0.910505297334     1.007825032230
         H           -3.943312493935     0.197232125007     0.001873702666     1.007825032230
         H           -3.132475493935    -1.135599874993    -0.846563297334     1.007825032230
         H           -3.131354493935    -1.083272874993     0.926412702666     1.007825032230
         H            1.424889506065     0.644914125007     1.923802702666     1.007825032230
         H            1.404261506065     0.493732125007    -1.978817297334     1.007825032230

  Basis Set: AUG-CC-PVTZ
    Blend: AUG-CC-PVTZ
  Basis Set: (AUG-CC-PVTZ AUX)
    Blend: AUG-CC-PVTZ-JKFIT
	 Reference Energy          =    -720.2995417416593682 [Eh]
	 Singles Energy            =      -0.0000000000000000 [Eh]
	 Same-Spin Energy          =      -0.4046842895259558 [Eh]
	 Opposite-Spin Energy      =      -1.2245714757143751 [Eh]
	 Correlation Energy        =      -1.6292557652403308 [Eh]
	 Total Energy              =    -721.9287975068997412 [Eh]

	 ================> DF-SCS-MP2 Energies <==================
	-----------------------------------------------------------
	 SCS Same-Spin Scale       =       0.3333333333333333 [-]
	 SCS Opposite-Spin Scale   =       1.2000000000000000 [-]
	 SCS Same-Spin Energy      =      -0.1348947631753186 [Eh]
	 SCS Opposite-Spin Energy  =      -1.4694857708572500 [Eh]
	 SCS Correlation Energy    =      -1.6043805340325685 [Eh]
	 SCS Total Energy          =    -721.9039222756919116 [Eh]
	-----------------------------------------------------------

  Dipole Moment: [D]
     X:    -1.6353      Y:     1.4972      Z:    -0.0547     Total:     2.2178

*** Psi4 exiting successfully. Buy a developer a beer!
