                               Psi4 1.4a3.dev225

  ==> Input File <==

--------------------------------------------------------------------------
#psi4
#
memory 32 gb

molecule  {
0 1
  P        0.8768730    -0.1227020    -0.0963880
  O       -0.6616900    -0.4669690    -0.3477670
  O        1.0437430     0.0794150     1.5121170
  O        0.9276490     1.4110650    -0.6042510
  O        1.8284920    -1.0938460    -0.6752860
  C       -1.6663698     0.3835424     0.1432610
  C       -3.0206860    -0.2869630    -0.0679060
  H       -1.5201960     0.5987390     1.2233000
  H       -1.6444250     1.3614050    -0.3799660
  H       -3.8417660     0.3429090     0.2865800
  H       -3.1647720    -0.4853110    -1.1316920
  H       -3.0471290    -1.2354240     0.4720910
  H        1.4666950    -0.7151170     1.8872290
  H        1.8298220     1.7749190    -0.5472100
units angstrom
no_reorient  #important for SAPT in psi4, default
symmetry c1  #important for SAPT in psi4, default
}

set PROPERTIES_ORIGIN ["COM"]
properties('MP2/aug-cc-pvtz', properties = ['dipole'])
--------------------------------------------------------------------------

    Molecular point group: c1
  Charge       = 0
  Multiplicity = 1
  Basis Set: AUG-CC-PVTZ
    Blend: AUG-CC-PVTZ
  Basis Set: (AUG-CC-PVTZ AUX)
    Blend: AUG-CC-PVTZ-JKFIT

    Orbital Energies [Eh]
    ---------------------

    Doubly Occupied:

       1A    -80.118423     2A    -20.614668     3A    -20.612565
       4A    -20.602521     5A    -20.520426     6A    -11.302237
       7A    -11.228729     8A     -7.633696     9A     -5.532131
      10A     -5.531924    11A     -5.530659    12A     -1.461575
      13A     -1.397268    14A     -1.386796    15A     -1.301227
      16A     -1.035424    17A     -0.876776    18A     -0.843732
      19A     -0.757783    20A     -0.727567    21A     -0.676582
      22A     -0.669617    23A     -0.641497    24A     -0.614776
      25A     -0.591845    26A     -0.571608    27A     -0.559903
      28A     -0.548721    29A     -0.538248    30A     -0.501554
      31A     -0.479035    32A     -0.475565    33A     -0.469536

  @DF-RHF Final Energy:  -720.30167429541962

   => Energetics <=

    Nuclear Repulsion Energy =            440.2716645299873903
    One-Electron Energy =               -1868.4374527879899688
    Two-Electron Energy =                 707.8641139625829055
    Total Energy =                       -720.3016742954196161
  Basis Set: (AUG-CC-PVTZ AUX)
    Blend: AUG-CC-PVTZ-RI
    Molecular point group: c1

    Geometry (in Angstrom), charge = 0, multiplicity = 1:

       Center              X                  Y                   Z               Mass
    ------------   -----------------  -----------------  -----------------  -----------------
         P            0.788695228271    -0.105944181901    -0.079729184406    30.973761998420
         O           -0.749867771729    -0.450211181901    -0.331108184406    15.994914619570
         O            0.955565228271     0.096172818099     1.528775815594    15.994914619570
         O            0.839471228271     1.427822818099    -0.587592184406    15.994914619570
         O            1.740314228271    -1.077088181901    -0.658627184406    15.994914619570
         C           -1.754547571729     0.400300218099     0.159919815594    12.000000000000
         C           -3.108863771729    -0.270205181901    -0.051247184406    12.000000000000
         H           -1.608373771729     0.615496818099     1.239958815594     1.007825032230
         H           -1.732602771729     1.378162818099    -0.363307184406     1.007825032230
         H           -3.929943771729     0.359666818099     0.303238815594     1.007825032230
         H           -3.252949771729    -0.468553181901    -1.115033184406     1.007825032230
         H           -3.135306771729    -1.218666181901     0.488749815594     1.007825032230
         H            1.378517228271    -0.698359181901     1.903887815594     1.007825032230
         H            1.741644228271     1.791676818099    -0.530551184406     1.007825032230

  Basis Set: AUG-CC-PVTZ
    Blend: AUG-CC-PVTZ
  Basis Set: (AUG-CC-PVTZ AUX)
    Blend: AUG-CC-PVTZ-JKFIT
	 Reference Energy          =    -720.3016742954196161 [Eh]
	 Singles Energy            =      -0.0000000000000000 [Eh]
	 Same-Spin Energy          =      -0.4072320439383171 [Eh]
	 Opposite-Spin Energy      =      -1.2303790364031020 [Eh]
	 Correlation Energy        =      -1.6376110803414190 [Eh]
	 Total Energy              =    -721.9392853757610737 [Eh]

	 ================> DF-SCS-MP2 Energies <==================
	-----------------------------------------------------------
	 SCS Same-Spin Scale       =       0.3333333333333333 [-]
	 SCS Opposite-Spin Scale   =       1.2000000000000000 [-]
	 SCS Same-Spin Energy      =      -0.1357440146461057 [Eh]
	 SCS Opposite-Spin Energy  =      -1.4764548436837224 [Eh]
	 SCS Correlation Energy    =      -1.6121988583298281 [Eh]
	 SCS Total Energy          =    -721.9138731537494778 [Eh]
	-----------------------------------------------------------

  Dipole Moment: [D]
     X:    -1.3243      Y:     2.0787      Z:     2.1731     Total:     3.2859

*** Psi4 exiting successfully. Buy a developer a beer!
