                               Psi4 1.3.2 release

  ==> Input File <==

--------------------------------------------------------------------------
#psi4
#
memory 32 gb

molecule  {
0 1
  P        0.7889630    -0.0468322    -0.0000870
  O       -0.7151460    -0.6011470     0.0244450
  O        0.8729860     1.0114440     1.1973790
  O        0.8671220     0.9192840    -1.2738770
  O        1.7953140    -1.1636690     0.0390540
  C       -1.7979733     0.3597702    -0.0044913
  C       -3.0906020    -0.4663650     0.0208240
  H       -1.7354340     1.0001470     0.8651380
  H       -1.7363090     0.9469350    -0.9108340
  H       -3.9518740     0.2065980     0.0015450
  H       -3.1410370    -1.1262340    -0.8468920
  H       -3.1399160    -1.0739070     0.9260840
  H        1.4163280     0.6542800     1.9234740
  H        1.3957000     0.5030980    -1.9791460
units angstrom
no_reorient  #important for SAPT in psi4, default
symmetry c1  #important for SAPT in psi4, default
}

set PROPERTIES_ORIGIN ["COM"]
properties('MP2/aug-cc-pvtz', properties = ['dipole'])
--------------------------------------------------------------------------

    Molecular point group: c1
  Charge       = 0
  Multiplicity = 1
  Basis Set: AUG-CC-PVTZ
    Blend: AUG-CC-PVTZ
  Basis Set: (AUG-CC-PVTZ AUX)
    Blend: AUG-CC-PVTZ-JKFIT

    Orbital Energies [Eh]
    ---------------------

    Doubly Occupied:

       1A    -80.115431     2A    -20.614207     3A    -20.614122
       4A    -20.596201     5A    -20.513516     6A    -11.301732
       7A    -11.231168     8A     -7.630718     9A     -5.529175
      10A     -5.528793    11A     -5.527733    12A     -1.459855
      13A     -1.394311    14A     -1.387717    15A     -1.283978
      16A     -1.035816    17A     -0.874541    18A     -0.855131
      19A     -0.738632    20A     -0.733752    21A     -0.678932
      22A     -0.674411    23A     -0.648230    24A     -0.622051
      25A     -0.584092    26A     -0.571815    27A     -0.558743
      28A     -0.540612    29A     -0.535498    30A     -0.505512
      31A     -0.488905    32A     -0.463674    33A     -0.462427

  @DF-RHF Final Energy:  -720.30159515478692

   => Energetics <=

    Nuclear Repulsion Energy =            439.6765396396213532
    One-Electron Energy =               -1867.3534074375006639
    Two-Electron Energy =                 707.3752726430924440
    Total Energy =                       -720.3015951547869236
  Basis Set: (AUG-CC-PVTZ AUX)
    Blend: AUG-CC-PVTZ-RI
    Molecular point group: c1

    Geometry (in Angstrom), charge = 0, multiplicity = 1:

       Center              X                  Y                   Z               Mass
    ------------   -----------------  -----------------  -----------------  -----------------
         P            0.789704650815    -0.055114607451     0.000194034503    30.973761998420
         O           -0.714404349185    -0.609429407451     0.024726034503    15.994914619570
         O            0.873727650815     1.003161592549     1.197660034503    15.994914619570
         O            0.867863650815     0.911001592549    -1.273595965497    15.994914619570
         O            1.796055650815    -1.171951407451     0.039335034503    15.994914619570
         C           -1.797231649185     0.351487792549    -0.004210265497    12.000000000000
         C           -3.089860349185    -0.474647407451     0.021105034503    12.000000000000
         H           -1.734692349185     0.991864592549     0.865419034503     1.007825032230
         H           -1.735567349185     0.938652592549    -0.910552965497     1.007825032230
         H           -3.951132349185     0.198315592549     0.001826034503     1.007825032230
         H           -3.140295349185    -1.134516407451    -0.846610965497     1.007825032230
         H           -3.139174349185    -1.082189407451     0.926365034503     1.007825032230
         H            1.417069650815     0.645997592549     1.923755034503     1.007825032230
         H            1.396441650815     0.494815592549    -1.978864965497     1.007825032230

  Basis Set: AUG-CC-PVTZ
    Blend: AUG-CC-PVTZ
  Basis Set: (AUG-CC-PVTZ AUX)
    Blend: AUG-CC-PVTZ-JKFIT
	 Reference Energy          =    -720.3015951547869236 [Eh]
	 Singles Energy            =      -0.0000000000000000 [Eh]
	 Same-Spin Energy          =      -0.4071887052939958 [Eh]
	 Opposite-Spin Energy      =      -1.2302944256904453 [Eh]
	 Correlation Energy        =      -1.6374831309844411 [Eh]
	 Total Energy              =    -721.9390782857714157 [Eh]

	 ================> DF-SCS-MP2 Energies <==================
	-----------------------------------------------------------
	 SCS Same-Spin Scale       =       0.3333333333333333 [-]
	 SCS Opposite-Spin Scale   =       1.2000000000000000 [-]
	 SCS Same-Spin Energy      =      -0.1357295684313319 [Eh]
	 SCS Opposite-Spin Energy  =      -1.4763533108285343 [Eh]
	 SCS Correlation Energy    =      -1.6120828792598663 [Eh]
	 SCS Total Energy          =    -721.9136780340468249 [Eh]
	-----------------------------------------------------------

  Dipole Moment: [D]
     X:    -2.0800      Y:     2.1460      Z:    -0.0769     Total:     2.9896

*** Psi4 exiting successfully. Buy a developer a beer!
