                               Psi4 1.4a3.dev225

  ==> Input File <==

--------------------------------------------------------------------------
#psi4
#
memory 32 gb

molecule  {
0 1
  P        0.8768730    -0.1227020    -0.0963880
  O       -0.6616900    -0.4669690    -0.3477670
  O        1.0437430     0.0794150     1.5121170
  O        0.9276490     1.4110650    -0.6042510
  O        1.8413711    -1.1069893    -0.6831207
  C       -1.7021250     0.4138110     0.1607360
  C       -3.0206860    -0.2869630    -0.0679060
  H       -1.5201960     0.5987390     1.2233000
  H       -1.6444250     1.3614050    -0.3799660
  H       -3.8417660     0.3429090     0.2865800
  H       -3.1647720    -0.4853110    -1.1316920
  H       -3.0471290    -1.2354240     0.4720910
  H        1.4666950    -0.7151170     1.8872290
  H        1.8298220     1.7749190    -0.5472100
units angstrom
no_reorient  #important for SAPT in psi4, default
symmetry c1  #important for SAPT in psi4, default
}

set PROPERTIES_ORIGIN ["COM"]
properties('MP2/aug-cc-pvtz', properties = ['dipole'])
--------------------------------------------------------------------------

    Molecular point group: c1
  Charge       = 0
  Multiplicity = 1
  Basis Set: AUG-CC-PVTZ
    Blend: AUG-CC-PVTZ
  Basis Set: (AUG-CC-PVTZ AUX)
    Blend: AUG-CC-PVTZ-JKFIT

    Orbital Energies [Eh]
    ---------------------

    Doubly Occupied:

       1A    -80.118277     2A    -20.614078     3A    -20.611868
       4A    -20.597695     5A    -20.518188     6A    -11.304397
       7A    -11.231133     8A     -7.632732     9A     -5.531269
      10A     -5.531054    11A     -5.529518    12A     -1.454561
      13A     -1.386188    14A     -1.385120    15A     -1.289534
      16A     -1.041967    17A     -0.874269    18A     -0.844373
      19A     -0.755826    20A     -0.720526    21A     -0.675281
      22A     -0.669465    23A     -0.639793    24A     -0.606458
      25A     -0.590639    26A     -0.570478    27A     -0.559242
      28A     -0.544910    29A     -0.535974    30A     -0.512062
      31A     -0.486595    32A     -0.468267    33A     -0.465021

  @DF-RHF Final Energy:  -720.30065042995841

   => Energetics <=

    Nuclear Repulsion Energy =            438.4599166033877395
    One-Electron Energy =               -1864.9276228126163915
    Two-Electron Energy =                 706.1670557792702994
    Total Energy =                       -720.3006504299584094
  Basis Set: (AUG-CC-PVTZ AUX)
    Blend: AUG-CC-PVTZ-RI
    Molecular point group: c1

    Geometry (in Angstrom), charge = 0, multiplicity = 1:

       Center              X                  Y                   Z               Mass
    ------------   -----------------  -----------------  -----------------  -----------------
         P            0.790465448802    -0.107158366723    -0.080398860231    30.973761998420
         O           -0.748097551198    -0.451425366723    -0.331777860231    15.994914619570
         O            0.957335448802     0.094958633277     1.528106139769    15.994914619570
         O            0.841241448802     1.426608633277    -0.588261860231    15.994914619570
         O            1.754963548802    -1.091445666723    -0.667131560231    15.994914619570
         C           -1.788532551198     0.429354633277     0.176725139769    12.000000000000
         C           -3.107093551198    -0.271419366723    -0.051916860231    12.000000000000
         H           -1.606603551198     0.614282633277     1.239289139769     1.007825032230
         H           -1.730832551198     1.376948633277    -0.363976860231     1.007825032230
         H           -3.928173551198     0.358452633277     0.302569139769     1.007825032230
         H           -3.251179551198    -0.469767366723    -1.115702860231     1.007825032230
         H           -3.133536551198    -1.219880366723     0.488080139769     1.007825032230
         H            1.380287448802    -0.699573366723     1.903218139769     1.007825032230
         H            1.743414448802     1.790462633277    -0.531220860231     1.007825032230

  Basis Set: AUG-CC-PVTZ
    Blend: AUG-CC-PVTZ
  Basis Set: (AUG-CC-PVTZ AUX)
    Blend: AUG-CC-PVTZ-JKFIT
	 Reference Energy          =    -720.3006504299584094 [Eh]
	 Singles Energy            =      -0.0000000000000000 [Eh]
	 Same-Spin Energy          =      -0.4076932790443466 [Eh]
	 Opposite-Spin Energy      =      -1.2318414771419137 [Eh]
	 Correlation Energy        =      -1.6395347561862603 [Eh]
	 Total Energy              =    -721.9401851861446175 [Eh]

	 ================> DF-SCS-MP2 Energies <==================
	-----------------------------------------------------------
	 SCS Same-Spin Scale       =       0.3333333333333333 [-]
	 SCS Opposite-Spin Scale   =       1.2000000000000000 [-]
	 SCS Same-Spin Energy      =      -0.1358977596814488 [Eh]
	 SCS Opposite-Spin Energy  =      -1.4782097725702965 [Eh]
	 SCS Correlation Energy    =      -1.6141075322517453 [Eh]
	 SCS Total Energy          =    -721.9147579622101603 [Eh]
	-----------------------------------------------------------

  Dipole Moment: [D]
     X:    -1.6303      Y:     2.2263      Z:     2.2595     Total:     3.5665

*** Psi4 exiting successfully. Buy a developer a beer!
