                               Psi4 1.4a3.dev225

  ==> Input File <==

--------------------------------------------------------------------------
#psi4
#
memory 32 gb

molecule  {
0 1
  P        0.8768730    -0.1227020    -0.0963880
  O       -0.6616900    -0.4669690    -0.3477670
  O        1.0437430     0.0794150     1.5121170
  O        0.9276490     1.4110650    -0.6042510
  O        1.8284920    -1.0938460    -0.6752860
  C       -1.7021250     0.4138110     0.1607360
  C       -3.0206860    -0.2869630    -0.0679060
  H       -1.5201960     0.5987390     1.2233000
  H       -1.6444250     1.3614050    -0.3799660
  H       -3.8417660     0.3429090     0.2865800
  H       -3.1647720    -0.4853110    -1.1316920
  H       -3.0471290    -1.2354240     0.4720910
  H        1.4450080    -0.6743772     1.8679951
  H        1.8298220     1.7749190    -0.5472100
units angstrom
no_reorient  #important for SAPT in psi4, default
symmetry c1  #important for SAPT in psi4, default
}

set PROPERTIES_ORIGIN ["COM"]
properties('MP2/aug-cc-pvtz', properties = ['dipole'])
--------------------------------------------------------------------------

    Molecular point group: c1
  Charge       = 0
  Multiplicity = 1
  Basis Set: AUG-CC-PVTZ
    Blend: AUG-CC-PVTZ
  Basis Set: (AUG-CC-PVTZ AUX)
    Blend: AUG-CC-PVTZ-JKFIT

    Orbital Energies [Eh]
    ---------------------

    Doubly Occupied:

       1A    -80.115496     2A    -20.613136     3A    -20.606900
       4A    -20.597044     5A    -20.518436     6A    -11.304022
       7A    -11.230901     8A     -7.630776     9A     -5.529218
      10A     -5.529013    11A     -5.527734    12A     -1.458108
      13A     -1.394587    14A     -1.384530    15A     -1.299217
      16A     -1.041678    17A     -0.874660    18A     -0.848234
      19A     -0.762305    20A     -0.721083    21A     -0.677051
      22A     -0.669941    23A     -0.641332    24A     -0.606772
      25A     -0.591702    26A     -0.571430    27A     -0.560516
      28A     -0.546439    29A     -0.537168    30A     -0.511833
      31A     -0.486663    32A     -0.473130    33A     -0.469515

  @DF-RHF Final Energy:  -720.30356914904348

   => Energetics <=

    Nuclear Repulsion Energy =            439.7059227605552110
    One-Electron Energy =               -1867.3578423972992368
    Two-Electron Energy =                 707.3483504877004862
    Total Energy =                       -720.3035691490434829
  Basis Set: (AUG-CC-PVTZ AUX)
    Blend: AUG-CC-PVTZ-RI
    Molecular point group: c1

    Geometry (in Angstrom), charge = 0, multiplicity = 1:

       Center              X                  Y                   Z               Mass
    ------------   -----------------  -----------------  -----------------  -----------------
         P            0.792273718535    -0.109152558848    -0.081239527388    30.973761998420
         O           -0.746289281465    -0.453419558848    -0.332618527388    15.994914619570
         O            0.959143718535     0.092964441152     1.527265472612    15.994914619570
         O            0.843049718535     1.424614441152    -0.589102527388    15.994914619570
         O            1.743892718535    -1.080296558848    -0.660137527388    15.994914619570
         C           -1.786724281465     0.427360441152     0.175884472612    12.000000000000
         C           -3.105285281465    -0.273413558848    -0.052757527388    12.000000000000
         H           -1.604795281465     0.612288441152     1.238448472612     1.007825032230
         H           -1.729024281465     1.374954441152    -0.364817527388     1.007825032230
         H           -3.926365281465     0.356458441152     0.301728472612     1.007825032230
         H           -3.249371281465    -0.471761558848    -1.116543527388     1.007825032230
         H           -3.131728281465    -1.221874558848     0.487239472612     1.007825032230
         H            1.360408718535    -0.660827758848     1.883143572612     1.007825032230
         H            1.745222718535     1.788468441152    -0.532061527388     1.007825032230

  Basis Set: AUG-CC-PVTZ
    Blend: AUG-CC-PVTZ
  Basis Set: (AUG-CC-PVTZ AUX)
    Blend: AUG-CC-PVTZ-JKFIT
	 Reference Energy          =    -720.3035691490434829 [Eh]
	 Singles Energy            =      -0.0000000000000000 [Eh]
	 Same-Spin Energy          =      -0.4066719025808417 [Eh]
	 Opposite-Spin Energy      =      -1.2294196003379265 [Eh]
	 Correlation Energy        =      -1.6360915029187681 [Eh]
	 Total Energy              =    -721.9396606519622992 [Eh]

	 ================> DF-SCS-MP2 Energies <==================
	-----------------------------------------------------------
	 SCS Same-Spin Scale       =       0.3333333333333333 [-]
	 SCS Opposite-Spin Scale   =       1.2000000000000000 [-]
	 SCS Same-Spin Energy      =      -0.1355573008602806 [Eh]
	 SCS Opposite-Spin Energy  =      -1.4753035204055118 [Eh]
	 SCS Correlation Energy    =      -1.6108608212657924 [Eh]
	 SCS Total Energy          =    -721.9144299703092429 [Eh]
	-----------------------------------------------------------

  Dipole Moment: [D]
     X:    -1.5955      Y:     2.2098      Z:     2.1667     Total:     3.4819

*** Psi4 exiting successfully. Buy a developer a beer!
