                               Psi4 1.4a3.dev225

  ==> Input File <==

--------------------------------------------------------------------------
#psi4
#
memory 32 gb

molecule  {
0 1
  P        0.8768730    -0.1227020    -0.0963880
  O       -0.6616900    -0.4669690    -0.3477670
  O        1.0457908     0.0818954     1.5318567
  O        0.9276490     1.4110650    -0.6042510
  O        1.8284920    -1.0938460    -0.6752860
  C       -1.7021250     0.4138110     0.1607360
  C       -3.0206860    -0.2869630    -0.0679060
  H       -1.5201960     0.5987390     1.2233000
  H       -1.6444250     1.3614050    -0.3799660
  H       -3.8417660     0.3429090     0.2865800
  H       -3.1647720    -0.4853110    -1.1316920
  H       -3.0471290    -1.2354240     0.4720910
  H        1.4666950    -0.7151170     1.8872290
  H        1.8298220     1.7749190    -0.5472100
units angstrom
no_reorient  #important for SAPT in psi4, default
symmetry c1  #important for SAPT in psi4, default
}

set PROPERTIES_ORIGIN ["COM"]
properties('MP2/aug-cc-pvtz', properties = ['dipole'])
--------------------------------------------------------------------------

    Molecular point group: c1
  Charge       = 0
  Multiplicity = 1
  Basis Set: AUG-CC-PVTZ
    Blend: AUG-CC-PVTZ
  Basis Set: (AUG-CC-PVTZ AUX)
    Blend: AUG-CC-PVTZ-JKFIT

    Orbital Energies [Eh]
    ---------------------

    Doubly Occupied:

       1A    -80.116839     2A    -20.614035     3A    -20.609079
       4A    -20.597812     5A    -20.519455     6A    -11.304096
       7A    -11.230971     8A     -7.631785     9A     -5.530243
      10A     -5.529964    11A     -5.528747    12A     -1.452858
      13A     -1.385051    14A     -1.382705    15A     -1.299519
      16A     -1.041758    17A     -0.873580    18A     -0.842263
      19A     -0.752688    20A     -0.719830    21A     -0.674215
      22A     -0.669201    23A     -0.638672    24A     -0.606728
      25A     -0.589629    26A     -0.570192    27A     -0.559956
      28A     -0.546239    29A     -0.535887    30A     -0.511936
      31A     -0.486685    32A     -0.473767    33A     -0.469881

  @DF-RHF Final Energy:  -720.30183222935477

   => Energetics <=

    Nuclear Repulsion Energy =            438.6032644439840169
    One-Electron Energy =               -1865.2176586687078270
    Two-Electron Energy =                 706.3125619953690375
    Total Energy =                       -720.3018322293547726
  Basis Set: (AUG-CC-PVTZ AUX)
    Blend: AUG-CC-PVTZ-RI
    Molecular point group: c1

    Geometry (in Angstrom), charge = 0, multiplicity = 1:

       Center              X                  Y                   Z               Mass
    ------------   -----------------  -----------------  -----------------  -----------------
         P            0.791840325394    -0.109141569055    -0.083899030765    30.973761998420
         O           -0.746722674606    -0.453408569055    -0.335278030765    15.994914619570
         O            0.960758125394     0.095455830945     1.544345669235    15.994914619570
         O            0.842616325394     1.424625430945    -0.591762030765    15.994914619570
         O            1.743459325394    -1.080285569055    -0.662797030765    15.994914619570
         C           -1.787157674606     0.427371430945     0.173224969235    12.000000000000
         C           -3.105718674606    -0.273402569055    -0.055417030765    12.000000000000
         H           -1.605228674606     0.612299430945     1.235788969235     1.007825032230
         H           -1.729457674606     1.374965430945    -0.367477030765     1.007825032230
         H           -3.926798674606     0.356469430945     0.299068969235     1.007825032230
         H           -3.249804674606    -0.471750569055    -1.119203030765     1.007825032230
         H           -3.132161674606    -1.221863569055     0.484579969235     1.007825032230
         H            1.381662325394    -0.701556569055     1.899717969235     1.007825032230
         H            1.744789325394     1.788479430945    -0.534721030765     1.007825032230

  Basis Set: AUG-CC-PVTZ
    Blend: AUG-CC-PVTZ
  Basis Set: (AUG-CC-PVTZ AUX)
    Blend: AUG-CC-PVTZ-JKFIT
	 Reference Energy          =    -720.3018322293547726 [Eh]
	 Singles Energy            =      -0.0000000000000000 [Eh]
	 Same-Spin Energy          =      -0.4073661803487320 [Eh]
	 Opposite-Spin Energy      =      -1.2312796814886369 [Eh]
	 Correlation Energy        =      -1.6386458618373689 [Eh]
	 Total Energy              =    -721.9404780911921762 [Eh]

	 ================> DF-SCS-MP2 Energies <==================
	-----------------------------------------------------------
	 SCS Same-Spin Scale       =       0.3333333333333333 [-]
	 SCS Opposite-Spin Scale   =       1.2000000000000000 [-]
	 SCS Same-Spin Energy      =      -0.1357887267829107 [Eh]
	 SCS Opposite-Spin Energy  =      -1.4775356177863641 [Eh]
	 SCS Correlation Energy    =      -1.6133243445692746 [Eh]
	 SCS Total Energy          =    -721.9151565739240368 [Eh]
	-----------------------------------------------------------

  Dipole Moment: [D]
     X:    -1.5864      Y:     2.1604      Z:     2.0970     Total:     3.4032

*** Psi4 exiting successfully. Buy a developer a beer!
