                               Psi4 1.3.2 release

  ==> Input File <==

--------------------------------------------------------------------------
#psi4
#
memory 32 gb

molecule  {
0 1
  P        0.8029713    -0.0863742     0.0012162
  O       -0.7151460    -0.6011470     0.0244450
  O        0.8729860     1.0114440     1.1973790
  O        0.8671220     0.9192840    -1.2738770
  O        1.7953140    -1.1636690     0.0390540
  C       -1.8227671     0.3311154    -0.0034181
  C       -3.0906020    -0.4663650     0.0208240
  H       -1.7354340     1.0001470     0.8651380
  H       -1.7363090     0.9469350    -0.9108340
  H       -3.9518740     0.2065980     0.0015450
  H       -3.1410370    -1.1262340    -0.8468920
  H       -3.1399160    -1.0739070     0.9260840
  H        1.4163280     0.6542800     1.9234740
  H        1.3957000     0.5030980    -1.9791460
units angstrom
no_reorient  #important for SAPT in psi4, default
symmetry c1  #important for SAPT in psi4, default
}

set PROPERTIES_ORIGIN ["COM"]
properties('MP2/aug-cc-pvtz', properties = ['dipole'])
--------------------------------------------------------------------------

    Molecular point group: c1
  Charge       = 0
  Multiplicity = 1
  Basis Set: AUG-CC-PVTZ
    Blend: AUG-CC-PVTZ
  Basis Set: (AUG-CC-PVTZ AUX)
    Blend: AUG-CC-PVTZ-JKFIT

    Orbital Energies [Eh]
    ---------------------

    Doubly Occupied:

       1A    -80.114234     2A    -20.608921     3A    -20.608900
       4A    -20.594042     5A    -20.522014     6A    -11.302689
       7A    -11.229825     8A     -7.629921     9A     -5.528221
      10A     -5.527936    11A     -5.527195    12A     -1.452060
      13A     -1.382907    14A     -1.382807    15A     -1.307549
      16A     -1.043044    17A     -0.872272    18A     -0.844105
      19A     -0.730057    20A     -0.725991    21A     -0.676007
      22A     -0.668021    23A     -0.643830    24A     -0.619442
      25A     -0.585000    26A     -0.567513    27A     -0.565423
      28A     -0.545420    29A     -0.530218    30A     -0.509133
      31A     -0.483685    32A     -0.479558    33A     -0.473487

  @DF-RHF Final Energy:  -720.30324250441356

   => Energetics <=

    Nuclear Repulsion Energy =            439.2774527313575845
    One-Electron Energy =               -1866.5985327278447130
    Two-Electron Energy =                 707.0178374920736815
    Total Energy =                       -720.3032425044135607
  Basis Set: (AUG-CC-PVTZ AUX)
    Blend: AUG-CC-PVTZ-RI
    Molecular point group: c1

    Geometry (in Angstrom), charge = 0, multiplicity = 1:

       Center              X                  Y                   Z               Mass
    ------------   -----------------  -----------------  -----------------  -----------------
         P            0.802630766046    -0.082208035450     0.001074695268    30.973761998420
         O           -0.715486533954    -0.596980835450     0.024303495268    15.994914619570
         O            0.872645466046     1.015610164550     1.197237495268    15.994914619570
         O            0.866781466046     0.923450164550    -1.274018504732    15.994914619570
         O            1.794973466046    -1.159502835450     0.038912495268    15.994914619570
         C           -1.823107633954     0.335281564550    -0.003559604732    12.000000000000
         C           -3.090942533954    -0.462198835450     0.020682495268    12.000000000000
         H           -1.735774533954     1.004313164550     0.864996495268     1.007825032230
         H           -1.736649533954     0.951101164550    -0.910975504732     1.007825032230
         H           -3.952214533954     0.210764164550     0.001403495268     1.007825032230
         H           -3.141377533954    -1.122067835450    -0.847033504732     1.007825032230
         H           -3.140256533954    -1.069740835450     0.925942495268     1.007825032230
         H            1.415987466046     0.658446164550     1.923332495268     1.007825032230
         H            1.395359466046     0.507264164550    -1.979287504732     1.007825032230

  Basis Set: AUG-CC-PVTZ
    Blend: AUG-CC-PVTZ
  Basis Set: (AUG-CC-PVTZ AUX)
    Blend: AUG-CC-PVTZ-JKFIT
	 Reference Energy          =    -720.3032425044135607 [Eh]
	 Singles Energy            =      -0.0000000000000000 [Eh]
	 Same-Spin Energy          =      -0.4070213399710181 [Eh]
	 Opposite-Spin Energy      =      -1.2301202219341776 [Eh]
	 Correlation Energy        =      -1.6371415619051957 [Eh]
	 Total Energy              =    -721.9403840663187566 [Eh]

	 ================> DF-SCS-MP2 Energies <==================
	-----------------------------------------------------------
	 SCS Same-Spin Scale       =       0.3333333333333333 [-]
	 SCS Opposite-Spin Scale   =       1.2000000000000000 [-]
	 SCS Same-Spin Energy      =      -0.1356737799903394 [Eh]
	 SCS Opposite-Spin Energy  =      -1.4761442663210131 [Eh]
	 SCS Correlation Energy    =      -1.6118180463113525 [Eh]
	 SCS Total Energy          =    -721.9150605507248883 [Eh]
	-----------------------------------------------------------

  Dipole Moment: [D]
     X:    -1.9918      Y:     1.7308      Z:    -0.0630     Total:     2.6395

*** Psi4 exiting successfully. Buy a developer a beer!
