                               Psi4 1.3.2 release

  ==> Input File <==

--------------------------------------------------------------------------
#psi4
#
memory 32 gb

molecule  {
0 1
  P        0.7984170    -0.0731530     0.0007800
  O       -0.7197004    -0.5879275     0.0239617
  O        0.8729860     1.0114440     1.1973790
  O        0.8671220     0.9192840    -1.2738770
  O        1.8047983    -1.1549350     0.0387025
  C       -1.8145860     0.3407390    -0.0037780
  C       -3.0906020    -0.4663650     0.0208240
  H       -1.7354340     1.0001470     0.8651380
  H       -1.7363090     0.9469350    -0.9108340
  H       -3.9518740     0.2065980     0.0015450
  H       -3.1410370    -1.1262340    -0.8468920
  H       -3.1399160    -1.0739070     0.9260840
  H        1.4163280     0.6542800     1.9234740
  H        1.3957000     0.5030980    -1.9791460
units angstrom
no_reorient  #important for SAPT in psi4, default
symmetry c1  #important for SAPT in psi4, default
}

set PROPERTIES_ORIGIN ["COM"]
properties('MP2/aug-cc-pvtz', properties = ['dipole'])
--------------------------------------------------------------------------

    Molecular point group: c1
  Charge       = 0
  Multiplicity = 1
  Basis Set: AUG-CC-PVTZ
    Blend: AUG-CC-PVTZ
  Basis Set: (AUG-CC-PVTZ AUX)
    Blend: AUG-CC-PVTZ-JKFIT

    Orbital Energies [Eh]
    ---------------------

    Doubly Occupied:

       1A    -80.115462     2A    -20.610246     3A    -20.610205
       4A    -20.594972     5A    -20.520579     6A    -11.301227
       7A    -11.229891     8A     -7.630901     9A     -5.529263
      10A     -5.528995    11A     -5.528057    12A     -1.455421
      13A     -1.386947    14A     -1.386388    15A     -1.300944
      16A     -1.040447    17A     -0.874666    18A     -0.847193
      19A     -0.732603    20A     -0.730428    21A     -0.677193
      22A     -0.671054    23A     -0.645119    24A     -0.621141
      25A     -0.585179    26A     -0.568820    27A     -0.563289
      28A     -0.544935    29A     -0.532259    30A     -0.506616
      31A     -0.483419    32A     -0.475799    33A     -0.471472

  @DF-RHF Final Energy:  -720.30396253836966

   => Energetics <=

    Nuclear Repulsion Energy =            439.6037101408204535
    One-Electron Energy =               -1867.2130876342807824
    Two-Electron Energy =                 707.3054149550905549
    Total Energy =                       -720.3039625383696603
  Basis Set: (AUG-CC-PVTZ AUX)
    Blend: AUG-CC-PVTZ-RI
    Molecular point group: c1

    Geometry (in Angstrom), charge = 0, multiplicity = 1:

       Center              X                  Y                   Z               Mass
    ------------   -----------------  -----------------  -----------------  -----------------
         P            0.797791066155    -0.075939858270     0.000885956233    30.973761998420
         O           -0.720326333845    -0.590714358270     0.024067656233    15.994914619570
         O            0.872360066155     1.008657141730     1.197484956233    15.994914619570
         O            0.866496066155     0.916497141730    -1.273771043767    15.994914619570
         O            1.804172366155    -1.157721858270     0.038808456233    15.994914619570
         C           -1.815211933845     0.337952141730    -0.003672043767    12.000000000000
         C           -3.091227933845    -0.469151858270     0.020929956233    12.000000000000
         H           -1.736059933845     0.997360141730     0.865243956233     1.007825032230
         H           -1.736934933845     0.944148141730    -0.910728043767     1.007825032230
         H           -3.952499933845     0.203811141730     0.001650956233     1.007825032230
         H           -3.141662933845    -1.129020858270    -0.846786043767     1.007825032230
         H           -3.140541933845    -1.076693858270     0.926189956233     1.007825032230
         H            1.415702066155     0.651493141730     1.923579956233     1.007825032230
         H            1.395074066155     0.500311141730    -1.979040043767     1.007825032230

  Basis Set: AUG-CC-PVTZ
    Blend: AUG-CC-PVTZ
  Basis Set: (AUG-CC-PVTZ AUX)
    Blend: AUG-CC-PVTZ-JKFIT
	 Reference Energy          =    -720.3039625383696603 [Eh]
	 Singles Energy            =      -0.0000000000000000 [Eh]
	 Same-Spin Energy          =      -0.4070216112052577 [Eh]
	 Opposite-Spin Energy      =      -1.2299006814921165 [Eh]
	 Correlation Energy        =      -1.6369222926973741 [Eh]
	 Total Energy              =    -721.9408848310670237 [Eh]

	 ================> DF-SCS-MP2 Energies <==================
	-----------------------------------------------------------
	 SCS Same-Spin Scale       =       0.3333333333333333 [-]
	 SCS Opposite-Spin Scale   =       1.2000000000000000 [-]
	 SCS Same-Spin Energy      =      -0.1356738704017525 [Eh]
	 SCS Opposite-Spin Energy  =      -1.4758808177905398 [Eh]
	 SCS Correlation Energy    =      -1.6115546881922924 [Eh]
	 SCS Total Energy          =    -721.9155172265619740 [Eh]
	-----------------------------------------------------------

  Dipole Moment: [D]
     X:    -1.9991      Y:     1.8040      Z:    -0.0653     Total:     2.6935

*** Psi4 exiting successfully. Buy a developer a beer!
