                               Psi4 1.3.2 release

  ==> Input File <==

--------------------------------------------------------------------------
#psi4
#
memory 32 gb

molecule  {
0 1
  P        0.8159391    -0.1262689     0.0025354
  O       -0.7151460    -0.6011470     0.0244450
  O        0.8729860     1.0114440     1.1973790
  O        0.8671220     0.9192840    -1.2738770
  O        1.7953140    -1.1636690     0.0390540
  C       -1.8468018     0.3018217    -0.0023259
  C       -3.0906020    -0.4663650     0.0208240
  H       -1.7354340     1.0001470     0.8651380
  H       -1.7363090     0.9469350    -0.9108340
  H       -3.9518740     0.2065980     0.0015450
  H       -3.1410370    -1.1262340    -0.8468920
  H       -3.1399160    -1.0739070     0.9260840
  H        1.4163280     0.6542800     1.9234740
  H        1.3957000     0.5030980    -1.9791460
units angstrom
no_reorient  #important for SAPT in psi4, default
symmetry c1  #important for SAPT in psi4, default
}

set PROPERTIES_ORIGIN ["COM"]
properties('MP2/aug-cc-pvtz', properties = ['dipole'])
--------------------------------------------------------------------------

    Molecular point group: c1
  Charge       = 0
  Multiplicity = 1
  Basis Set: AUG-CC-PVTZ
    Blend: AUG-CC-PVTZ
  Basis Set: (AUG-CC-PVTZ AUX)
    Blend: AUG-CC-PVTZ-JKFIT

    Orbital Energies [Eh]
    ---------------------

    Doubly Occupied:

       1A    -80.112650     2A    -20.603485     3A    -20.603428
       4A    -20.592198     5A    -20.530125     6A    -11.304112
       7A    -11.228575     8A     -7.629228     9A     -5.527304
      10A     -5.527131    11A     -5.526792    12A     -1.446101
      13A     -1.377629    14A     -1.371442    15A     -1.330212
      16A     -1.051207    17A     -0.870458    18A     -0.832941
      19A     -0.726108    20A     -0.714263    21A     -0.674387
      22A     -0.662027    23A     -0.640426    24A     -0.619164
      25A     -0.587096    26A     -0.574051    27A     -0.563952
      28A     -0.545887    29A     -0.524176    30A     -0.510178
      31A     -0.494981    32A     -0.492046    33A     -0.469286

  @DF-RHF Final Energy:  -720.29565585348428

   => Energetics <=

    Nuclear Repulsion Energy =            438.9457996995689086
    One-Electron Energy =               -1865.9568144691002090
    Two-Electron Energy =                 706.7153589160470801
    Total Energy =                       -720.2956558534842770
  Basis Set: (AUG-CC-PVTZ AUX)
    Blend: AUG-CC-PVTZ-RI
    Molecular point group: c1

    Geometry (in Angstrom), charge = 0, multiplicity = 1:

       Center              X                  Y                   Z               Mass
    ------------   -----------------  -----------------  -----------------  -----------------
         P            0.814699853464    -0.109506623476     0.001965613706    30.973761998420
         O           -0.716385246536    -0.584384723476     0.023875213706    15.994914619570
         O            0.871746753464     1.028206276524     1.196809213706    15.994914619570
         O            0.865882753464     0.936046276524    -1.274446786294    15.994914619570
         O            1.794074753464    -1.146906723476     0.038484213706    15.994914619570
         C           -1.848041046536     0.318583976524    -0.002895686294    12.000000000000
         C           -3.091841246536    -0.449602723476     0.020254213706    12.000000000000
         H           -1.736673246536     1.016909276524     0.864568213706     1.007825032230
         H           -1.737548246536     0.963697276524    -0.911403786294     1.007825032230
         H           -3.953113246536     0.223360276524     0.000975213706     1.007825032230
         H           -3.142276246536    -1.109471723476    -0.847461786294     1.007825032230
         H           -3.141155246536    -1.057144723476     0.925514213706     1.007825032230
         H            1.415088753464     0.671042276524     1.922904213706     1.007825032230
         H            1.394460753464     0.519860276524    -1.979715786294     1.007825032230

  Basis Set: AUG-CC-PVTZ
    Blend: AUG-CC-PVTZ
  Basis Set: (AUG-CC-PVTZ AUX)
    Blend: AUG-CC-PVTZ-JKFIT
	 Reference Energy          =    -720.2956558534842770 [Eh]
	 Singles Energy            =      -0.0000000000000000 [Eh]
	 Same-Spin Energy          =      -0.4070004491693175 [Eh]
	 Opposite-Spin Energy      =      -1.2302436248927351 [Eh]
	 Correlation Energy        =      -1.6372440740620526 [Eh]
	 Total Energy              =    -721.9328999275463730 [Eh]

	 ================> DF-SCS-MP2 Energies <==================
	-----------------------------------------------------------
	 SCS Same-Spin Scale       =       0.3333333333333333 [-]
	 SCS Opposite-Spin Scale   =       1.2000000000000000 [-]
	 SCS Same-Spin Energy      =      -0.1356668163897725 [Eh]
	 SCS Opposite-Spin Energy  =      -1.4762923498712821 [Eh]
	 SCS Correlation Energy    =      -1.6119591662610546 [Eh]
	 SCS Total Energy          =    -721.9076150197453217 [Eh]
	-----------------------------------------------------------

  Dipole Moment: [D]
     X:    -1.9270      Y:     1.3118      Z:    -0.0490     Total:     2.3316

*** Psi4 exiting successfully. Buy a developer a beer!
