                               Psi4 1.4a3.dev225

  ==> Input File <==

--------------------------------------------------------------------------
#psi4
#
memory 32 gb

molecule  {
0 1
  P        0.8768730    -0.1227020    -0.0963880
  O       -0.6424161    -0.4626563    -0.3446179
  O        1.0437430     0.0794150     1.5121170
  O        0.9276490     1.4110650    -0.6042510
  O        1.8284920    -1.0938460    -0.6752860
  C       -1.7021250     0.4138110     0.1607360
  C       -3.0206860    -0.2869630    -0.0679060
  H       -1.5201960     0.5987390     1.2233000
  H       -1.6444250     1.3614050    -0.3799660
  H       -3.8417660     0.3429090     0.2865800
  H       -3.1647720    -0.4853110    -1.1316920
  H       -3.0471290    -1.2354240     0.4720910
  H        1.4666950    -0.7151170     1.8872290
  H        1.8298220     1.7749190    -0.5472100
units angstrom
no_reorient  #important for SAPT in psi4, default
symmetry c1  #important for SAPT in psi4, default
}

set PROPERTIES_ORIGIN ["COM"]
properties('MP2/aug-cc-pvtz', properties = ['dipole'])
--------------------------------------------------------------------------

    Molecular point group: c1
  Charge       = 0
  Multiplicity = 1
  Basis Set: AUG-CC-PVTZ
    Blend: AUG-CC-PVTZ
  Basis Set: (AUG-CC-PVTZ AUX)
    Blend: AUG-CC-PVTZ-JKFIT

    Orbital Energies [Eh]
    ---------------------

    Doubly Occupied:

       1A    -80.111194     2A    -20.610867     3A    -20.608444
       4A    -20.596258     5A    -20.515278     6A    -11.306569
       7A    -11.232526     8A     -7.626926     9A     -5.525388
      10A     -5.525172    11A     -5.523877    12A     -1.455108
      13A     -1.384675    14A     -1.383123    15A     -1.295970
      16A     -1.044048    17A     -0.875251    18A     -0.841953
      19A     -0.754098    20A     -0.720520    21A     -0.673420
      22A     -0.668691    23A     -0.638817    24A     -0.606767
      25A     -0.588982    26A     -0.570329    27A     -0.560149
      28A     -0.546465    29A     -0.535708    30A     -0.513692
      31A     -0.488390    32A     -0.470587    33A     -0.466993

  @DF-RHF Final Energy:  -720.30405802304313

   => Energetics <=

    Nuclear Repulsion Energy =            439.8850435465355986
    One-Electron Energy =               -1867.8457346902080189
    Two-Electron Energy =                 707.6566331206292944
    Total Energy =                       -720.3040580230431260
  Basis Set: (AUG-CC-PVTZ AUX)
    Blend: AUG-CC-PVTZ-RI
    Molecular point group: c1

    Geometry (in Angstrom), charge = 0, multiplicity = 1:

       Center              X                  Y                   Z               Mass
    ------------   -----------------  -----------------  -----------------  -----------------
         P            0.789653721601    -0.109374152990    -0.081793094489    30.973761998420
         O           -0.729635378399    -0.449328452990    -0.330022994489    15.994914619570
         O            0.956523721601     0.092742847010     1.526711905511    15.994914619570
         O            0.840429721601     1.424392847010    -0.589656094489    15.994914619570
         O            1.741272721601    -1.080518152990    -0.660691094489    15.994914619570
         C           -1.789344278399     0.427138847010     0.175330905511    12.000000000000
         C           -3.107905278399    -0.273635152990    -0.053311094489    12.000000000000
         H           -1.607415278399     0.612066847010     1.237894905511     1.007825032230
         H           -1.731644278399     1.374732847010    -0.365371094489     1.007825032230
         H           -3.928985278399     0.356236847010     0.301174905511     1.007825032230
         H           -3.251991278399    -0.471983152990    -1.117097094489     1.007825032230
         H           -3.134348278399    -1.222096152990     0.486685905511     1.007825032230
         H            1.379475721601    -0.701789152990     1.901823905511     1.007825032230
         H            1.742602721601     1.788246847010    -0.532615094489     1.007825032230

  Basis Set: AUG-CC-PVTZ
    Blend: AUG-CC-PVTZ
  Basis Set: (AUG-CC-PVTZ AUX)
    Blend: AUG-CC-PVTZ-JKFIT
	 Reference Energy          =    -720.3040580230431260 [Eh]
	 Singles Energy            =      -0.0000000000000000 [Eh]
	 Same-Spin Energy          =      -0.4069749175475402 [Eh]
	 Opposite-Spin Energy      =      -1.2301233975511838 [Eh]
	 Correlation Energy        =      -1.6370983150987239 [Eh]
	 Total Energy              =    -721.9411563381418091 [Eh]

	 ================> DF-SCS-MP2 Energies <==================
	-----------------------------------------------------------
	 SCS Same-Spin Scale       =       0.3333333333333333 [-]
	 SCS Opposite-Spin Scale   =       1.2000000000000000 [-]
	 SCS Same-Spin Energy      =      -0.1356583058491801 [Eh]
	 SCS Opposite-Spin Energy  =      -1.4761480770614206 [Eh]
	 SCS Correlation Energy    =      -1.6118063829106006 [Eh]
	 SCS Total Energy          =    -721.9158644059536982 [Eh]
	-----------------------------------------------------------

  Dipole Moment: [D]
     X:    -1.7288      Y:     2.1628      Z:     2.2142     Total:     3.5453

*** Psi4 exiting successfully. Buy a developer a beer!
