                               Psi4 1.3.2 release

  ==> Input File <==

--------------------------------------------------------------------------
#psi4
#
memory 32 gb

molecule  {
0 1
  P        0.7984170    -0.0731530     0.0007800
  O       -0.7151460    -0.6011470     0.0244450
  O        0.8637612     0.8772709     1.0493504
  O        0.8671220     0.9192840    -1.2738770
  O        1.7953140    -1.1636690     0.0390540
  C       -1.8145860     0.3407390    -0.0037780
  C       -3.0906020    -0.4663650     0.0208240
  H       -1.7354340     1.0001470     0.8651380
  H       -1.7363090     0.9469350    -0.9108340
  H       -3.9518740     0.2065980     0.0015450
  H       -3.1410370    -1.1262340    -0.8468920
  H       -3.1399160    -1.0739070     0.9260840
  H        1.4163280     0.6542800     1.9234740
  H        1.3957000     0.5030980    -1.9791460
units angstrom
no_reorient  #important for SAPT in psi4, default
symmetry c1  #important for SAPT in psi4, default
}

set PROPERTIES_ORIGIN ["COM"]
properties('MP2/aug-cc-pvtz', properties = ['dipole'])
--------------------------------------------------------------------------

    Molecular point group: c1
  Charge       = 0
  Multiplicity = 1
  Basis Set: AUG-CC-PVTZ
    Blend: AUG-CC-PVTZ
  Basis Set: (AUG-CC-PVTZ AUX)
    Blend: AUG-CC-PVTZ-JKFIT

    Orbital Energies [Eh]
    ---------------------

    Doubly Occupied:

       1A    -80.083250     2A    -20.620923     3A    -20.595317
       4A    -20.578795     5A    -20.499664     6A    -11.296951
       7A    -11.226215     8A     -7.606001     9A     -5.505895
      10A     -5.503090    11A     -5.502219    12A     -1.496890
      13A     -1.393372    14A     -1.372837    15A     -1.283821
      16A     -1.034884    17A     -0.876801    18A     -0.855734
      19A     -0.743448    20A     -0.734665    21A     -0.693329
      22A     -0.664590    23A     -0.645253    24A     -0.622715
      25A     -0.589138    26A     -0.566803    27A     -0.555833
      28A     -0.536047    29A     -0.527140    30A     -0.500447
      31A     -0.475958    32A     -0.459583    33A     -0.456906

  @DF-RHF Final Energy:  -720.27067798925202

   => Energetics <=

    Nuclear Repulsion Energy =            447.7944297624616752
    One-Electron Energy =               -1883.9211818937772023
    Two-Electron Energy =                 715.8560741420634486
    Total Energy =                       -720.2706779892520217
  Basis Set: (AUG-CC-PVTZ AUX)
    Blend: AUG-CC-PVTZ-RI
    Molecular point group: c1

    Geometry (in Angstrom), charge = 0, multiplicity = 1:

       Center              X                  Y                   Z               Mass
    ------------   -----------------  -----------------  -----------------  -----------------
         P            0.799587800222    -0.056121848633     0.019570076344    30.973761998420
         O           -0.713975199778    -0.584115848633     0.043235076344    15.994914619570
         O            0.864932000222     0.894302051367     1.068140476344    15.994914619570
         O            0.868292800222     0.936315151367    -1.255086923656    15.994914619570
         O            1.796484800222    -1.146637848633     0.057844076344    15.994914619570
         C           -1.813415199778     0.357770151367     0.015012076344    12.000000000000
         C           -3.089431199778    -0.449333848633     0.039614076344    12.000000000000
         H           -1.734263199778     1.017178151367     0.883928076344     1.007825032230
         H           -1.735138199778     0.963966151367    -0.892043923656     1.007825032230
         H           -3.950703199778     0.223629151367     0.020335076344     1.007825032230
         H           -3.139866199778    -1.109202848633    -0.828101923656     1.007825032230
         H           -3.138745199778    -1.056875848633     0.944874076344     1.007825032230
         H            1.417498800222     0.671311151367     1.942264076344     1.007825032230
         H            1.396870800222     0.520129151367    -1.960355923656     1.007825032230

  Basis Set: AUG-CC-PVTZ
    Blend: AUG-CC-PVTZ
  Basis Set: (AUG-CC-PVTZ AUX)
    Blend: AUG-CC-PVTZ-JKFIT
	 Reference Energy          =    -720.2706779892520217 [Eh]
	 Singles Energy            =      -0.0000000000000000 [Eh]
	 Same-Spin Energy          =      -0.4064587720484135 [Eh]
	 Opposite-Spin Energy      =      -1.2261428276099282 [Eh]
	 Correlation Energy        =      -1.6326015996583418 [Eh]
	 Total Energy              =    -721.9032795889103227 [Eh]

	 ================> DF-SCS-MP2 Energies <==================
	-----------------------------------------------------------
	 SCS Same-Spin Scale       =       0.3333333333333333 [-]
	 SCS Opposite-Spin Scale   =       1.2000000000000000 [-]
	 SCS Same-Spin Energy      =      -0.1354862573494712 [Eh]
	 SCS Opposite-Spin Energy  =      -1.4713713931319139 [Eh]
	 SCS Correlation Energy    =      -1.6068576504813850 [Eh]
	 SCS Total Energy          =    -721.8775356397334235 [Eh]
	-----------------------------------------------------------

  Dipole Moment: [D]
     X:    -1.7382      Y:     2.6258      Z:     0.9989     Total:     3.3037

*** Psi4 exiting successfully. Buy a developer a beer!
