                               Psi4 1.4a3.dev225

  ==> Input File <==

--------------------------------------------------------------------------
#psi4
#
memory 32 gb

molecule  {
0 1
  P        0.8768730    -0.1227020    -0.0963880
  O       -0.6616900    -0.4669690    -0.3477670
  O        1.0416952     0.0769346     1.4923773
  O        0.9276490     1.4110650    -0.6042510
  O        1.8284920    -1.0938460    -0.6752860
  C       -1.7021250     0.4138110     0.1607360
  C       -3.0206860    -0.2869630    -0.0679060
  H       -1.5201960     0.5987390     1.2233000
  H       -1.6444250     1.3614050    -0.3799660
  H       -3.8417660     0.3429090     0.2865800
  H       -3.1647720    -0.4853110    -1.1316920
  H       -3.0471290    -1.2354240     0.4720910
  H        1.4666950    -0.7151170     1.8872290
  H        1.8298220     1.7749190    -0.5472100
units angstrom
no_reorient  #important for SAPT in psi4, default
symmetry c1  #important for SAPT in psi4, default
}

set PROPERTIES_ORIGIN ["COM"]
properties('MP2/aug-cc-pvtz', properties = ['dipole'])
--------------------------------------------------------------------------

    Molecular point group: c1
  Charge       = 0
  Multiplicity = 1
  Basis Set: AUG-CC-PVTZ
    Blend: AUG-CC-PVTZ
  Basis Set: (AUG-CC-PVTZ AUX)
    Blend: AUG-CC-PVTZ-JKFIT

    Orbital Energies [Eh]
    ---------------------

    Doubly Occupied:

       1A    -80.112098     2A    -20.611678     3A    -20.611236
       4A    -20.595021     5A    -20.515647     6A    -11.303105
       7A    -11.230258     8A     -7.627763     9A     -5.526187
      10A     -5.526040    11A     -5.524724    12A     -1.455956
      13A     -1.387078    14A     -1.382885    15A     -1.296476
      16A     -1.040744    17A     -0.872991    18A     -0.844136
      19A     -0.756731    20A     -0.719831    21A     -0.675000
      22A     -0.668122    23A     -0.640850    24A     -0.604985
      25A     -0.591007    26A     -0.570098    27A     -0.559688
      28A     -0.545330    29A     -0.536021    30A     -0.510605
      31A     -0.485371    32A     -0.470970    33A     -0.467256

  @DF-RHF Final Energy:  -720.30385449923870

   => Energetics <=

    Nuclear Repulsion Energy =            440.1184971418327336
    One-Electron Energy =               -1868.3129246578153015
    Two-Electron Energy =                 707.8905730167439287
    Total Energy =                       -720.3038544992386960
  Basis Set: (AUG-CC-PVTZ AUX)
    Blend: AUG-CC-PVTZ-RI
    Molecular point group: c1

    Geometry (in Angstrom), charge = 0, multiplicity = 1:

       Center              X                  Y                   Z               Mass
    ------------   -----------------  -----------------  -----------------  -----------------
         P            0.792360202470    -0.108511867375    -0.078887692981    30.973761998420
         O           -0.746202797530    -0.452778867375    -0.330266692981    15.994914619570
         O            0.957182402470     0.091124732625     1.509877607019    15.994914619570
         O            0.843136202470     1.425255132625    -0.586750692981    15.994914619570
         O            1.743979202470    -1.079655867375    -0.657785692981    15.994914619570
         C           -1.786637797530     0.428001132625     0.178236307019    12.000000000000
         C           -3.105198797530    -0.272772867375    -0.050405692981    12.000000000000
         H           -1.604708797530     0.612929132625     1.240800307019     1.007825032230
         H           -1.728937797530     1.375595132625    -0.362465692981     1.007825032230
         H           -3.926278797530     0.357099132625     0.304080307019     1.007825032230
         H           -3.249284797530    -0.471120867375    -1.114191692981     1.007825032230
         H           -3.131641797530    -1.221233867375     0.489591307019     1.007825032230
         H            1.382182202470    -0.700926867375     1.904729307019     1.007825032230
         H            1.745309202470     1.789109132625    -0.529709692981     1.007825032230

  Basis Set: AUG-CC-PVTZ
    Blend: AUG-CC-PVTZ
  Basis Set: (AUG-CC-PVTZ AUX)
    Blend: AUG-CC-PVTZ-JKFIT
	 Reference Energy          =    -720.3038544992386960 [Eh]
	 Singles Energy            =      -0.0000000000000000 [Eh]
	 Same-Spin Energy          =      -0.4071042818627881 [Eh]
	 Opposite-Spin Energy      =      -1.2301976784908133 [Eh]
	 Correlation Energy        =      -1.6373019603536014 [Eh]
	 Total Energy              =    -721.9411564595923210 [Eh]

	 ================> DF-SCS-MP2 Energies <==================
	-----------------------------------------------------------
	 SCS Same-Spin Scale       =       0.3333333333333333 [-]
	 SCS Opposite-Spin Scale   =       1.2000000000000000 [-]
	 SCS Same-Spin Energy      =      -0.1357014272875960 [Eh]
	 SCS Opposite-Spin Energy  =      -1.4762372141889759 [Eh]
	 SCS Correlation Energy    =      -1.6119386414765720 [Eh]
	 SCS Total Energy          =    -721.9157931407153228 [Eh]
	-----------------------------------------------------------

  Dipole Moment: [D]
     X:    -1.5321      Y:     2.1623      Z:     2.3422     Total:     3.5367

*** Psi4 exiting successfully. Buy a developer a beer!
