                               Psi4 1.3.2 release

  ==> Input File <==

--------------------------------------------------------------------------
#psi4
#
memory 32 gb

molecule  {
0 1
  P        0.7984170    -0.0731530     0.0007800
  O       -0.7151460    -0.6011470     0.0244450
  O        0.8729860     1.0114440     1.1973790
  O        0.8671220     0.9192840    -1.2738770
  O        1.7953140    -1.1636690     0.0390540
  C       -1.6627300     0.2106446     0.0001202
  C       -3.0906020    -0.4663650     0.0208240
  H       -1.7354340     1.0001470     0.8651380
  H       -1.7363090     0.9469350    -0.9108340
  H       -3.9518740     0.2065980     0.0015450
  H       -3.1410370    -1.1262340    -0.8468920
  H       -3.1399160    -1.0739070     0.9260840
  H        1.4163280     0.6542800     1.9234740
  H        1.3957000     0.5030980    -1.9791460
units angstrom
no_reorient  #important for SAPT in psi4, default
symmetry c1  #important for SAPT in psi4, default
}

set PROPERTIES_ORIGIN ["COM"]
properties('MP2/aug-cc-pvtz', properties = ['dipole'])
--------------------------------------------------------------------------

    Molecular point group: c1
  Charge       = 0
  Multiplicity = 1
  Basis Set: AUG-CC-PVTZ
    Blend: AUG-CC-PVTZ
  Basis Set: (AUG-CC-PVTZ AUX)
    Blend: AUG-CC-PVTZ-JKFIT

    Orbital Energies [Eh]
    ---------------------

    Doubly Occupied:

       1A    -80.130676     2A    -20.619906     3A    -20.619882
       4A    -20.617808     5A    -20.530833     6A    -11.303531
       7A    -11.223785     8A     -7.646206     9A     -5.544361
      10A     -5.544354    11A     -5.543391    12A     -1.507484
      13A     -1.431460    14A     -1.395267    15A     -1.312556
      16A     -1.020130    17A     -0.898857    18A     -0.849386
      19A     -0.758243    20A     -0.745832    21A     -0.687134
      22A     -0.685061    23A     -0.661512    24A     -0.649688
      25A     -0.596055    26A     -0.572007    27A     -0.567022
      28A     -0.548680    29A     -0.543418    30A     -0.489891
      31A     -0.484457    32A     -0.457164    33A     -0.436530

  @DF-RHF Final Energy:  -720.26208912351933

   => Energetics <=

    Nuclear Repulsion Energy =            443.3426706604698211
    One-Electron Energy =               -1873.9643814575540546
    Two-Electron Energy =                 710.3596216735649023
    Total Energy =                       -720.2620891235193312
  Basis Set: (AUG-CC-PVTZ AUX)
    Blend: AUG-CC-PVTZ-RI
    Molecular point group: c1

    Geometry (in Angstrom), charge = 0, multiplicity = 1:

       Center              X                  Y                   Z               Mass
    ------------   -----------------  -----------------  -----------------  -----------------
         P            0.783955309991    -0.060764042543     0.000408757473    30.973761998420
         O           -0.729607690009    -0.588758042543     0.024073757473    15.994914619570
         O            0.858524309991     1.023832957457     1.197007757473    15.994914619570
         O            0.852660309991     0.931672957457    -1.274248242527    15.994914619570
         O            1.780852309991    -1.151280042543     0.038682757473    15.994914619570
         C           -1.677191690009     0.223033557457    -0.000251042527    12.000000000000
         C           -3.105063690009    -0.453976042543     0.020452757473    12.000000000000
         H           -1.749895690009     1.012535957457     0.864766757473     1.007825032230
         H           -1.750770690009     0.959323957457    -0.911205242527     1.007825032230
         H           -3.966335690009     0.218986957457     0.001173757473     1.007825032230
         H           -3.155498690009    -1.113845042543    -0.847263242527     1.007825032230
         H           -3.154377690009    -1.061518042543     0.925712757473     1.007825032230
         H            1.401866309991     0.666668957457     1.923102757473     1.007825032230
         H            1.381238309991     0.515486957457    -1.979517242527     1.007825032230

  Basis Set: AUG-CC-PVTZ
    Blend: AUG-CC-PVTZ
  Basis Set: (AUG-CC-PVTZ AUX)
    Blend: AUG-CC-PVTZ-JKFIT
	 Reference Energy          =    -720.2620891235193312 [Eh]
	 Singles Energy            =      -0.0000000000000000 [Eh]
	 Same-Spin Energy          =      -0.4079813974158232 [Eh]
	 Opposite-Spin Energy      =      -1.2302536153714576 [Eh]
	 Correlation Energy        =      -1.6382350127872809 [Eh]
	 Total Energy              =    -721.9003241363066081 [Eh]

	 ================> DF-SCS-MP2 Energies <==================
	-----------------------------------------------------------
	 SCS Same-Spin Scale       =       0.3333333333333333 [-]
	 SCS Opposite-Spin Scale   =       1.2000000000000000 [-]
	 SCS Same-Spin Energy      =      -0.1359937991386077 [Eh]
	 SCS Opposite-Spin Energy  =      -1.4763043384457490 [Eh]
	 SCS Correlation Energy    =      -1.6122981375843568 [Eh]
	 SCS Total Energy          =    -721.8743872611037204 [Eh]
	-----------------------------------------------------------

  Dipole Moment: [D]
     X:    -0.9986      Y:     1.4867      Z:    -0.0584     Total:     1.7919

*** Psi4 exiting successfully. Buy a developer a beer!
