                               Psi4 1.3.2 release

  ==> Input File <==

--------------------------------------------------------------------------
#psi4
#
memory 32 gb

molecule  {
0 1
  P        0.7984170    -0.0731530     0.0007800
  O       -0.7069648    -0.5915212     0.0241529
  O        0.8729860     1.0114440     1.1973790
  O        0.8671220     0.9192840    -1.2738770
  O        1.7953140    -1.1636690     0.0390540
  C       -1.8145860     0.3407390    -0.0037780
  C       -3.0975999    -0.4552041     0.0204884
  H       -1.7354340     1.0001470     0.8651380
  H       -1.7363090     0.9469350    -0.9108340
  H       -3.9518740     0.2065980     0.0015450
  H       -3.1410370    -1.1262340    -0.8468920
  H       -3.1399160    -1.0739070     0.9260840
  H        1.4163280     0.6542800     1.9234740
  H        1.3957000     0.5030980    -1.9791460
units angstrom
no_reorient  #important for SAPT in psi4, default
symmetry c1  #important for SAPT in psi4, default
}

set PROPERTIES_ORIGIN ["COM"]
properties('MP2/aug-cc-pvtz', properties = ['dipole'])
--------------------------------------------------------------------------

    Molecular point group: c1
  Charge       = 0
  Multiplicity = 1
  Basis Set: AUG-CC-PVTZ
    Blend: AUG-CC-PVTZ
  Basis Set: (AUG-CC-PVTZ AUX)
    Blend: AUG-CC-PVTZ-JKFIT

    Orbital Energies [Eh]
    ---------------------

    Doubly Occupied:

       1A    -80.113436     2A    -20.609666     3A    -20.609631
       4A    -20.594863     5A    -20.518691     6A    -11.303244
       7A    -11.231076     8A     -7.629123     9A     -5.527468
      10A     -5.527221    11A     -5.526297    12A     -1.455360
      13A     -1.385873    14A     -1.385732    15A     -1.299267
      16A     -1.042029    17A     -0.874793    18A     -0.846909
      19A     -0.732089    20A     -0.730140    21A     -0.676410
      22A     -0.669985    23A     -0.644501    24A     -0.620930
      25A     -0.586362    26A     -0.567990    27A     -0.562712
      28A     -0.547587    29A     -0.530701    30A     -0.508230
      31A     -0.484262    32A     -0.474177    33A     -0.470474

  @DF-RHF Final Energy:  -720.30427874890063

   => Energetics <=

    Nuclear Repulsion Energy =            439.7212155350469516
    One-Electron Energy =               -1867.4765232284303238
    Two-Electron Energy =                 707.4510289444828004
    Total Energy =                       -720.3042787489006287
  Basis Set: (AUG-CC-PVTZ AUX)
    Blend: AUG-CC-PVTZ-RI
    Molecular point group: c1

    Geometry (in Angstrom), charge = 0, multiplicity = 1:

       Center              X                  Y                   Z               Mass
    ------------   -----------------  -----------------  -----------------  -----------------
         P            0.798044784049    -0.075437909103     0.000849028158    30.973761998420
         O           -0.707337015951    -0.593806109103     0.024221928158    15.994914619570
         O            0.872613784049     1.009159090897     1.197448028158    15.994914619570
         O            0.866749784049     0.916999090897    -1.273807971842    15.994914619570
         O            1.794941784049    -1.165953909103     0.039123028158    15.994914619570
         C           -1.814958215951     0.338454090897    -0.003708971842    12.000000000000
         C           -3.097972115951    -0.457489009103     0.020557428158    12.000000000000
         H           -1.735806215951     0.997862090897     0.865207028158     1.007825032230
         H           -1.736681215951     0.944650090897    -0.910764971842     1.007825032230
         H           -3.952246215951     0.204313090897     0.001614028158     1.007825032230
         H           -3.141409215951    -1.128518909103    -0.846822971842     1.007825032230
         H           -3.140288215951    -1.076191909103     0.926153028158     1.007825032230
         H            1.415955784049     0.651995090897     1.923543028158     1.007825032230
         H            1.395327784049     0.500813090897    -1.979076971842     1.007825032230

  Basis Set: AUG-CC-PVTZ
    Blend: AUG-CC-PVTZ
  Basis Set: (AUG-CC-PVTZ AUX)
    Blend: AUG-CC-PVTZ-JKFIT
	 Reference Energy          =    -720.3042787489006287 [Eh]
	 Singles Energy            =      -0.0000000000000000 [Eh]
	 Same-Spin Energy          =      -0.4068996029618316 [Eh]
	 Opposite-Spin Energy      =      -1.2297095567863781 [Eh]
	 Correlation Energy        =      -1.6366091597482098 [Eh]
	 Total Energy              =    -721.9408879086488469 [Eh]

	 ================> DF-SCS-MP2 Energies <==================
	-----------------------------------------------------------
	 SCS Same-Spin Scale       =       0.3333333333333333 [-]
	 SCS Opposite-Spin Scale   =       1.2000000000000000 [-]
	 SCS Same-Spin Energy      =      -0.1356332009872772 [Eh]
	 SCS Opposite-Spin Energy  =      -1.4756514681436537 [Eh]
	 SCS Correlation Energy    =      -1.6112846691309308 [Eh]
	 SCS Total Energy          =    -721.9155634180315246 [Eh]
	-----------------------------------------------------------

  Dipole Moment: [D]
     X:    -2.0855      Y:     1.8481      Z:    -0.0668     Total:     2.7874

*** Psi4 exiting successfully. Buy a developer a beer!
