                               Psi4 1.3.2 release

  ==> Input File <==

--------------------------------------------------------------------------
#psi4
#
memory 32 gb

molecule  {
0 1
  P        0.7984170    -0.0731530     0.0007800
  O       -0.7151460    -0.6011470     0.0244450
  O        0.8683736     0.9443574     1.1233647
  O        0.8671220     0.9192840    -1.2738770
  O        1.7953140    -1.1636690     0.0390540
  C       -1.8145860     0.3407390    -0.0037780
  C       -3.0906020    -0.4663650     0.0208240
  H       -1.7354340     1.0001470     0.8651380
  H       -1.7363090     0.9469350    -0.9108340
  H       -3.9518740     0.2065980     0.0015450
  H       -3.1410370    -1.1262340    -0.8468920
  H       -3.1399160    -1.0739070     0.9260840
  H        1.4163280     0.6542800     1.9234740
  H        1.3957000     0.5030980    -1.9791460
units angstrom
no_reorient  #important for SAPT in psi4, default
symmetry c1  #important for SAPT in psi4, default
}

set PROPERTIES_ORIGIN ["COM"]
properties('MP2/aug-cc-pvtz', properties = ['dipole'])
--------------------------------------------------------------------------

    Molecular point group: c1
  Charge       = 0
  Multiplicity = 1
  Basis Set: AUG-CC-PVTZ
    Blend: AUG-CC-PVTZ
  Basis Set: (AUG-CC-PVTZ AUX)
    Blend: AUG-CC-PVTZ-JKFIT

    Orbital Energies [Eh]
    ---------------------

    Doubly Occupied:

       1A    -80.100799     2A    -20.616463     3A    -20.603463
       4A    -20.587150     5A    -20.509729     6A    -11.299730
       7A    -11.228310     8A     -7.618949     9A     -5.517744
      10A     -5.516787    11A     -5.515903    12A     -1.469535
      13A     -1.393034    14A     -1.379167    15A     -1.292030
      16A     -1.037818    17A     -0.873281    18A     -0.853276
      19A     -0.737990    20A     -0.731690    21A     -0.682226
      22A     -0.667862    23A     -0.645791    24A     -0.620362
      25A     -0.587347    26A     -0.569393    27A     -0.559850
      28A     -0.540736    29A     -0.530440    30A     -0.504667
      31A     -0.480551    32A     -0.467236    33A     -0.464251

  @DF-RHF Final Energy:  -720.29943573210880

   => Energetics <=

    Nuclear Repulsion Energy =            443.3994677986111697
    One-Electron Energy =               -1874.9906943655123541
    Two-Electron Energy =                 711.2917908347924367
    Total Energy =                       -720.2994357321088046
  Basis Set: (AUG-CC-PVTZ AUX)
    Blend: AUG-CC-PVTZ-RI
    Molecular point group: c1

    Geometry (in Angstrom), charge = 0, multiplicity = 1:

       Center              X                  Y                   Z               Mass
    ------------   -----------------  -----------------  -----------------  -----------------
         P            0.799002322874    -0.064637507742     0.010175033407    30.973761998420
         O           -0.714560677126    -0.592631507742     0.033840033407    15.994914619570
         O            0.868958922874     0.952872892258     1.132759733407    15.994914619570
         O            0.867707322874     0.927799492258    -1.264481966593    15.994914619570
         O            1.795899322874    -1.155153507742     0.048449033407    15.994914619570
         C           -1.814000677126     0.349254492258     0.005617033407    12.000000000000
         C           -3.090016677126    -0.457849507742     0.030219033407    12.000000000000
         H           -1.734848677126     1.008662492258     0.874533033407     1.007825032230
         H           -1.735723677126     0.955450492258    -0.901438966593     1.007825032230
         H           -3.951288677126     0.215113492258     0.010940033407     1.007825032230
         H           -3.140451677126    -1.117718507742    -0.837496966593     1.007825032230
         H           -3.139330677126    -1.065391507742     0.935479033407     1.007825032230
         H            1.416913322874     0.662795492258     1.932869033407     1.007825032230
         H            1.396285322874     0.511613492258    -1.969750966593     1.007825032230

  Basis Set: AUG-CC-PVTZ
    Blend: AUG-CC-PVTZ
  Basis Set: (AUG-CC-PVTZ AUX)
    Blend: AUG-CC-PVTZ-JKFIT
	 Reference Energy          =    -720.2994357321088046 [Eh]
	 Singles Energy            =      -0.0000000000000000 [Eh]
	 Same-Spin Energy          =      -0.4066386921756308 [Eh]
	 Opposite-Spin Energy      =      -1.2278827011726174 [Eh]
	 Correlation Energy        =      -1.6345213933482481 [Eh]
	 Total Energy              =    -721.9339571254570274 [Eh]

	 ================> DF-SCS-MP2 Energies <==================
	-----------------------------------------------------------
	 SCS Same-Spin Scale       =       0.3333333333333333 [-]
	 SCS Opposite-Spin Scale   =       1.2000000000000000 [-]
	 SCS Same-Spin Energy      =      -0.1355462307252102 [Eh]
	 SCS Opposite-Spin Energy  =      -1.4734592414071408 [Eh]
	 SCS Correlation Energy    =      -1.6090054721323510 [Eh]
	 SCS Total Energy          =    -721.9084412042411714 [Eh]
	-----------------------------------------------------------

  Dipole Moment: [D]
     X:    -1.8851      Y:     2.2413      Z:     0.4469     Total:     2.9626

*** Psi4 exiting successfully. Buy a developer a beer!
