                               Psi4 1.3.2 release

  ==> Input File <==

--------------------------------------------------------------------------
#psi4
#
memory 32 gb

molecule  {
0 1
  P        0.7984170    -0.0731530     0.0007800
  O       -0.7151460    -0.6011470     0.0244450
  O        0.8729860     1.0114440     1.1973790
  O        0.8671220     0.9192840    -1.2738770
  O        1.7953140    -1.1636690     0.0390540
  C       -1.7386580     0.2756918    -0.0018289
  C       -3.0906020    -0.4663650     0.0208240
  H       -1.7354340     1.0001470     0.8651380
  H       -1.7363090     0.9469350    -0.9108340
  H       -3.9518740     0.2065980     0.0015450
  H       -3.1410370    -1.1262340    -0.8468920
  H       -3.1399160    -1.0739070     0.9260840
  H        1.4163280     0.6542800     1.9234740
  H        1.3957000     0.5030980    -1.9791460
units angstrom
no_reorient  #important for SAPT in psi4, default
symmetry c1  #important for SAPT in psi4, default
}

set PROPERTIES_ORIGIN ["COM"]
properties('MP2/aug-cc-pvtz', properties = ['dipole'])
--------------------------------------------------------------------------

    Molecular point group: c1
  Charge       = 0
  Multiplicity = 1
  Basis Set: AUG-CC-PVTZ
    Blend: AUG-CC-PVTZ
  Basis Set: (AUG-CC-PVTZ AUX)
    Blend: AUG-CC-PVTZ-JKFIT

    Orbital Energies [Eh]
    ---------------------

    Doubly Occupied:

       1A    -80.122410     2A    -20.615111     3A    -20.615078
       4A    -20.606349     5A    -20.524901     6A    -11.300895
       7A    -11.226796     8A     -7.637907     9A     -5.536176
      10A     -5.535997    11A     -5.535105    12A     -1.471877
      13A     -1.411130    14A     -1.390841    15A     -1.306133
      16A     -1.029120    17A     -0.882331    18A     -0.848044
      19A     -0.746371    20A     -0.736596    21A     -0.682017
      22A     -0.673758    23A     -0.646721    24A     -0.638689
      25A     -0.590354    26A     -0.568885    27A     -0.566352
      28A     -0.547454    29A     -0.537280    30A     -0.489391
      31A     -0.480041    32A     -0.478878    33A     -0.461602

  @DF-RHF Final Energy:  -720.29529519840071

   => Energetics <=

    Nuclear Repulsion Energy =            441.2807866048814844
    One-Electron Energy =               -1870.2709790047442766
    Two-Electron Energy =                 708.6948972014620267
    Total Energy =                       -720.2952951984007086
  Basis Set: (AUG-CC-PVTZ AUX)
    Blend: AUG-CC-PVTZ-RI
    Molecular point group: c1

    Geometry (in Angstrom), charge = 0, multiplicity = 1:

       Center              X                  Y                   Z               Mass
    ------------   -----------------  -----------------  -----------------  -----------------
         P            0.791186077759    -0.066958611044     0.000594373971    30.973761998420
         O           -0.722376922241    -0.594952611044     0.024259373971    15.994914619570
         O            0.865755077759     1.017638388956     1.197193373971    15.994914619570
         O            0.859891077759     0.925478388956    -1.274062626029    15.994914619570
         O            1.788083077759    -1.157474611044     0.038868373971    15.994914619570
         C           -1.745888922241     0.281886188956    -0.002014526029    12.000000000000
         C           -3.097832922241    -0.460170611044     0.020638373971    12.000000000000
         H           -1.742664922241     1.006341388956     0.864952373971     1.007825032230
         H           -1.743539922241     0.953129388956    -0.911019626029     1.007825032230
         H           -3.959104922241     0.212792388956     0.001359373971     1.007825032230
         H           -3.148267922241    -1.120039611044    -0.847077626029     1.007825032230
         H           -3.147146922241    -1.067712611044     0.925898373971     1.007825032230
         H            1.409097077759     0.660474388956     1.923288373971     1.007825032230
         H            1.388469077759     0.509292388956    -1.979331626029     1.007825032230

  Basis Set: AUG-CC-PVTZ
    Blend: AUG-CC-PVTZ
  Basis Set: (AUG-CC-PVTZ AUX)
    Blend: AUG-CC-PVTZ-JKFIT
	 Reference Energy          =    -720.2952951984007086 [Eh]
	 Singles Energy            =      -0.0000000000000000 [Eh]
	 Same-Spin Energy          =      -0.4072095732256984 [Eh]
	 Opposite-Spin Energy      =      -1.2296589791131964 [Eh]
	 Correlation Energy        =      -1.6368685523388948 [Eh]
	 Total Energy              =    -721.9321637507396190 [Eh]

	 ================> DF-SCS-MP2 Energies <==================
	-----------------------------------------------------------
	 SCS Same-Spin Scale       =       0.3333333333333333 [-]
	 SCS Opposite-Spin Scale   =       1.2000000000000000 [-]
	 SCS Same-Spin Energy      =      -0.1357365244085661 [Eh]
	 SCS Opposite-Spin Energy  =      -1.4755907749358357 [Eh]
	 SCS Correlation Energy    =      -1.6113272993444019 [Eh]
	 SCS Total Energy          =    -721.9066224977451611 [Eh]
	-----------------------------------------------------------

  Dipole Moment: [D]
     X:    -1.5331      Y:     1.6986      Z:    -0.0635     Total:     2.2890

*** Psi4 exiting successfully. Buy a developer a beer!
