                               Psi4 1.3.2 release

  ==> Input File <==

--------------------------------------------------------------------------
#psi4
#
memory 32 gb

molecule  {
0 1
  P        0.7984170    -0.0731530     0.0007800
  O       -0.7317590    -0.6201826     0.0250227
  O        0.8729860     1.0114440     1.1973790
  O        0.8671220     0.9192840    -1.2738770
  O        1.7953140    -1.1636690     0.0390540
  C       -1.8145860     0.3407390    -0.0037780
  C       -3.0763152    -0.4885016     0.0214895
  H       -1.7354340     1.0001470     0.8651380
  H       -1.7363090     0.9469350    -0.9108340
  H       -3.9518740     0.2065980     0.0015450
  H       -3.1410370    -1.1262340    -0.8468920
  H       -3.1399160    -1.0739070     0.9260840
  H        1.4163280     0.6542800     1.9234740
  H        1.3957000     0.5030980    -1.9791460
units angstrom
no_reorient  #important for SAPT in psi4, default
symmetry c1  #important for SAPT in psi4, default
}

set PROPERTIES_ORIGIN ["COM"]
properties('MP2/aug-cc-pvtz', properties = ['dipole'])
--------------------------------------------------------------------------

    Molecular point group: c1
  Charge       = 0
  Multiplicity = 1
  Basis Set: AUG-CC-PVTZ
    Blend: AUG-CC-PVTZ
  Basis Set: (AUG-CC-PVTZ AUX)
    Blend: AUG-CC-PVTZ-JKFIT

    Orbital Energies [Eh]
    ---------------------

    Doubly Occupied:

       1A    -80.117084     2A    -20.612764     3A    -20.612711
       4A    -20.594514     5A    -20.520280     6A    -11.300617
       7A    -11.228865     8A     -7.632252     9A     -5.530631
      10A     -5.530194    11A     -5.529439    12A     -1.453188
      13A     -1.388400    14A     -1.381794    15A     -1.300681
      16A     -1.037632    17A     -0.869723    18A     -0.849623
      19A     -0.730260    20A     -0.729675    21A     -0.677802
      22A     -0.670442    23A     -0.646649    24A     -0.618542
      25A     -0.582052    26A     -0.570701    27A     -0.563201
      28A     -0.537280    29A     -0.534830    30A     -0.507813
      31A     -0.485021    32A     -0.474079    33A     -0.471449

  @DF-RHF Final Energy:  -720.30058203026863

   => Energetics <=

    Nuclear Repulsion Energy =            438.7807477952890167
    One-Electron Energy =               -1865.5822777369987762
    Two-Electron Energy =                 706.5009479114411306
    Total Energy =                       -720.3005820302686288
  Basis Set: (AUG-CC-PVTZ AUX)
    Blend: AUG-CC-PVTZ-RI
    Molecular point group: c1

    Geometry (in Angstrom), charge = 0, multiplicity = 1:

       Center              X                  Y                   Z               Mass
    ------------   -----------------  -----------------  -----------------  -----------------
         P            0.799165066038    -0.068628775450     0.000643282995    30.973761998420
         O           -0.731010933962    -0.615658375450     0.024885982995    15.994914619570
         O            0.873734066038     1.015968224550     1.197242282995    15.994914619570
         O            0.867870066038     0.923808224550    -1.274013717005    15.994914619570
         O            1.796062066038    -1.159144775450     0.038917282995    15.994914619570
         C           -1.813837933962     0.345263224550    -0.003914717005    12.000000000000
         C           -3.075567133962    -0.483977375450     0.021352782995    12.000000000000
         H           -1.734685933962     1.004671224550     0.865001282995     1.007825032230
         H           -1.735560933962     0.951459224550    -0.910970717005     1.007825032230
         H           -3.951125933962     0.211122224550     0.001408282995     1.007825032230
         H           -3.140288933962    -1.121709775450    -0.847028717005     1.007825032230
         H           -3.139167933962    -1.069382775450     0.925947282995     1.007825032230
         H            1.417076066038     0.658804224550     1.923337282995     1.007825032230
         H            1.396448066038     0.507622224550    -1.979282717005     1.007825032230

  Basis Set: AUG-CC-PVTZ
    Blend: AUG-CC-PVTZ
  Basis Set: (AUG-CC-PVTZ AUX)
    Blend: AUG-CC-PVTZ-JKFIT
	 Reference Energy          =    -720.3005820302686288 [Eh]
	 Singles Energy            =      -0.0000000000000000 [Eh]
	 Same-Spin Energy          =      -0.4074249884919039 [Eh]
	 Opposite-Spin Energy      =      -1.2311194607208065 [Eh]
	 Correlation Energy        =      -1.6385444492127104 [Eh]
	 Total Energy              =    -721.9391264794813878 [Eh]

	 ================> DF-SCS-MP2 Energies <==================
	-----------------------------------------------------------
	 SCS Same-Spin Scale       =       0.3333333333333333 [-]
	 SCS Opposite-Spin Scale   =       1.2000000000000000 [-]
	 SCS Same-Spin Energy      =      -0.1358083294973013 [Eh]
	 SCS Opposite-Spin Energy  =      -1.4773433528649678 [Eh]
	 SCS Correlation Energy    =      -1.6131516823622691 [Eh]
	 SCS Total Energy          =    -721.9137337126309149 [Eh]
	-----------------------------------------------------------

  Dipole Moment: [D]
     X:    -1.8831      Y:     1.9109      Z:    -0.0693     Total:     2.6838

*** Psi4 exiting successfully. Buy a developer a beer!
