                               Psi4 1.3.2 release

  ==> Input File <==

--------------------------------------------------------------------------
#psi4
#
memory 32 gb

molecule  {
0 1
  P        0.7984170    -0.0731530     0.0007800
  O       -0.7151460    -0.6011470     0.0244450
  O        0.8729860     1.0114440     1.1973790
  O        0.8671220     0.9192840    -1.2738770
  O        1.7953140    -1.1636690     0.0390540
  C       -1.8145860     0.3407390    -0.0037780
  C       -3.0906020    -0.4663650     0.0208240
  H       -1.7354340     1.0001470     0.8651380
  H       -1.7363090     0.9469350    -0.9108340
  H       -3.9518740     0.2065980     0.0015450
  H       -3.1410370    -1.1262340    -0.8468920
  H       -3.1399160    -1.0739070     0.9260840
  H        1.5278194     0.5809915     2.0724655
  H        1.3957000     0.5030980    -1.9791460
units angstrom
no_reorient  #important for SAPT in psi4, default
symmetry c1  #important for SAPT in psi4, default
}

set PROPERTIES_ORIGIN ["COM"]
properties('MP2/aug-cc-pvtz', properties = ['dipole'])
--------------------------------------------------------------------------

    Molecular point group: c1
  Charge       = 0
  Multiplicity = 1
  Basis Set: AUG-CC-PVTZ
    Blend: AUG-CC-PVTZ
  Basis Set: (AUG-CC-PVTZ AUX)
    Blend: AUG-CC-PVTZ-JKFIT

    Orbital Energies [Eh]
    ---------------------

    Doubly Occupied:

       1A    -80.110636     2A    -20.618828     3A    -20.608353
       4A    -20.592240     5A    -20.515733     6A    -11.300535
       7A    -11.229015     8A     -7.626152     9A     -5.524463
      10A     -5.524210    11A     -5.523359    12A     -1.445394
      13A     -1.382605    14A     -1.356679    15A     -1.295065
      16A     -1.038762    17A     -0.869158    18A     -0.830301
      19A     -0.728454    20A     -0.704840    21A     -0.671241
      22A     -0.657364    23A     -0.633904    24A     -0.614858
      25A     -0.580441    26A     -0.564789    27A     -0.559218
      28A     -0.541709    29A     -0.527666    30A     -0.505874
      31A     -0.481782    32A     -0.471126    33A     -0.467321

  @DF-RHF Final Energy:  -720.26876901373271

   => Energetics <=

    Nuclear Repulsion Energy =            438.1999426933767268
    One-Electron Energy =               -1864.7332758979812297
    Two-Electron Energy =                 706.2645641908718517
    Total Energy =                       -720.2687690137327081
  Basis Set: (AUG-CC-PVTZ AUX)
    Blend: AUG-CC-PVTZ-RI
    Molecular point group: c1

    Geometry (in Angstrom), charge = 0, multiplicity = 1:

       Center              X                  Y                   Z               Mass
    ------------   -----------------  -----------------  -----------------  -----------------
         P            0.797525127149    -0.072567011444    -0.000411657125    30.973761998420
         O           -0.716037872851    -0.600561011444     0.023253342875    15.994914619570
         O            0.872094127149     1.012029988556     1.196187342875    15.994914619570
         O            0.866230127149     0.919869988556    -1.275068657125    15.994914619570
         O            1.794422127149    -1.163083011444     0.037862342875    15.994914619570
         C           -1.815477872851     0.341324988556    -0.004969657125    12.000000000000
         C           -3.091493872851    -0.465779011444     0.019632342875    12.000000000000
         H           -1.736325872851     1.000732988556     0.863946342875     1.007825032230
         H           -1.737200872851     0.947520988556    -0.912025657125     1.007825032230
         H           -3.952765872851     0.207183988556     0.000353342875     1.007825032230
         H           -3.141928872851    -1.125648011444    -0.848083657125     1.007825032230
         H           -3.140807872851    -1.073321011444     0.924892342875     1.007825032230
         H            1.526927527149     0.581577488556     2.071273842875     1.007825032230
         H            1.394808127149     0.503683988556    -1.980337657125     1.007825032230

  Basis Set: AUG-CC-PVTZ
    Blend: AUG-CC-PVTZ
  Basis Set: (AUG-CC-PVTZ AUX)
    Blend: AUG-CC-PVTZ-JKFIT
	 Reference Energy          =    -720.2687690137327081 [Eh]
	 Singles Energy            =      -0.0000000000000000 [Eh]
	 Same-Spin Energy          =      -0.4091292552949991 [Eh]
	 Opposite-Spin Energy      =      -1.2357821726350739 [Eh]
	 Correlation Energy        =      -1.6449114279300729 [Eh]
	 Total Energy              =    -721.9136804416627911 [Eh]

	 ================> DF-SCS-MP2 Energies <==================
	-----------------------------------------------------------
	 SCS Same-Spin Scale       =       0.3333333333333333 [-]
	 SCS Opposite-Spin Scale   =       1.2000000000000000 [-]
	 SCS Same-Spin Energy      =      -0.1363764184316663 [Eh]
	 SCS Opposite-Spin Energy  =      -1.4829386071620887 [Eh]
	 SCS Correlation Energy    =      -1.6193150255937550 [Eh]
	 SCS Total Energy          =    -721.8880840393264862 [Eh]
	-----------------------------------------------------------

  Dipole Moment: [D]
     X:    -1.8310      Y:     1.8354      Z:     0.2324     Total:     2.6029

*** Psi4 exiting successfully. Buy a developer a beer!
