                               Psi4 1.3.2 release

  ==> Input File <==

--------------------------------------------------------------------------
#psi4
#
memory 32 gb

molecule  {
0 1
  P        0.7984170    -0.0731530     0.0007800
  O       -0.7419991    -0.6313629    -0.0396866
  O        0.8729860     1.0114440     1.1973790
  O        0.8671220     0.9192840    -1.2738770
  O        1.7953140    -1.1636690     0.0390540
  C       -1.8145860     0.3407390    -0.0037780
  C       -3.0906020    -0.4663650     0.0208240
  H       -1.7828507     1.0268384     0.8473151
  H       -1.7363090     0.9469350    -0.9108340
  H       -3.9518740     0.2065980     0.0015450
  H       -3.1410370    -1.1262340    -0.8468920
  H       -3.1399160    -1.0739070     0.9260840
  H        1.4163280     0.6542800     1.9234740
  H        1.3957000     0.5030980    -1.9791460
units angstrom
no_reorient  #important for SAPT in psi4, default
symmetry c1  #important for SAPT in psi4, default
}

set PROPERTIES_ORIGIN ["COM"]
properties('MP2/aug-cc-pvtz', properties = ['dipole'])
--------------------------------------------------------------------------

    Molecular point group: c1
  Charge       = 0
  Multiplicity = 1
  Basis Set: AUG-CC-PVTZ
    Blend: AUG-CC-PVTZ
  Basis Set: (AUG-CC-PVTZ AUX)
    Blend: AUG-CC-PVTZ-JKFIT

    Orbital Energies [Eh]
    ---------------------

    Doubly Occupied:

       1A    -80.119326     2A    -20.616892     3A    -20.611053
       4A    -20.596717     5A    -20.521584     6A    -11.299390
       7A    -11.227329     8A     -7.634264     9A     -5.532648
      10A     -5.532164    11A     -5.531449    12A     -1.452900
      13A     -1.389858    14A     -1.379946    15A     -1.301801
      16A     -1.036595    17A     -0.867687    18A     -0.850244
      19A     -0.731107    20A     -0.729588    21A     -0.678748
      22A     -0.667517    23A     -0.646979    24A     -0.618563
      25A     -0.583755    26A     -0.567879    27A     -0.563861
      28A     -0.542335    29A     -0.531888    30A     -0.507013
      31A     -0.483081    32A     -0.475316    33A     -0.470995

  @DF-RHF Final Energy:  -720.29824573121437

   => Energetics <=

    Nuclear Repulsion Energy =            438.0811976921777386
    One-Electron Energy =               -1864.1579396586635085
    Two-Electron Energy =                 705.7784962352714047
    Total Energy =                       -720.2982457312143652
  Basis Set: (AUG-CC-PVTZ AUX)
    Blend: AUG-CC-PVTZ-RI
    Molecular point group: c1

    Geometry (in Angstrom), charge = 0, multiplicity = 1:

       Center              X                  Y                   Z               Mass
    ------------   -----------------  -----------------  -----------------  -----------------
         P            0.802204700565    -0.069531189110     0.009063117018    30.973761998420
         O           -0.738211399435    -0.627741089110    -0.031403482982    15.994914619570
         O            0.876773700565     1.015065810890     1.205662117018    15.994914619570
         O            0.870909700565     0.922905810890    -1.265593882982    15.994914619570
         O            1.799101700565    -1.160047189110     0.047337117018    15.994914619570
         C           -1.810798299435     0.344360810890     0.004505117018    12.000000000000
         C           -3.086814299435    -0.462743189110     0.029107117018    12.000000000000
         H           -1.779062999435     1.030460210890     0.855598217018     1.007825032230
         H           -1.732521299435     0.950556810890    -0.902550882982     1.007825032230
         H           -3.948086299435     0.210219810890     0.009828117018     1.007825032230
         H           -3.137249299435    -1.122612189110    -0.838608882982     1.007825032230
         H           -3.136128299435    -1.070285189110     0.934367117018     1.007825032230
         H            1.420115700565     0.657901810890     1.931757117018     1.007825032230
         H            1.399487700565     0.506719810890    -1.970862882982     1.007825032230

  Basis Set: AUG-CC-PVTZ
    Blend: AUG-CC-PVTZ
  Basis Set: (AUG-CC-PVTZ AUX)
    Blend: AUG-CC-PVTZ-JKFIT
	 Reference Energy          =    -720.2982457312143652 [Eh]
	 Singles Energy            =      -0.0000000000000000 [Eh]
	 Same-Spin Energy          =      -0.4076366903883697 [Eh]
	 Opposite-Spin Energy      =      -1.2317005339531517 [Eh]
	 Correlation Energy        =      -1.6393372243415214 [Eh]
	 Total Energy              =    -721.9375829555558539 [Eh]

	 ================> DF-SCS-MP2 Energies <==================
	-----------------------------------------------------------
	 SCS Same-Spin Scale       =       0.3333333333333333 [-]
	 SCS Opposite-Spin Scale   =       1.2000000000000000 [-]
	 SCS Same-Spin Energy      =      -0.1358788967961232 [Eh]
	 SCS Opposite-Spin Energy  =      -1.4780406407437821 [Eh]
	 SCS Correlation Energy    =      -1.6139195375399054 [Eh]
	 SCS Total Energy          =    -721.9121652687542792 [Eh]
	-----------------------------------------------------------

  Dipole Moment: [D]
     X:    -1.7902      Y:     1.9551      Z:     0.0838     Total:     2.6522

*** Psi4 exiting successfully. Buy a developer a beer!
