                               Psi4 1.3.2 release

  ==> Input File <==

--------------------------------------------------------------------------
#psi4
#
memory 32 gb

molecule  {
0 1
  P        0.8471391    -0.1244556     0.0472379
  O       -0.7151460    -0.6011470     0.0244450
  O        0.8729860     1.0114440     1.1973790
  O        0.8671220     0.9192840    -1.2738770
  O        1.7953140    -1.1636690     0.0390540
  C       -1.8145860     0.3407390    -0.0037780
  C       -3.0906020    -0.4663650     0.0208240
  H       -1.7354340     1.0001470     0.8651380
  H       -1.7363090     0.9469350    -0.9108340
  H       -3.9518740     0.2065980     0.0015450
  H       -3.1410370    -1.1262340    -0.8468920
  H       -3.1399160    -1.0739070     0.9260840
  H        1.4230730     0.6119379     1.8958056
  H        1.3957000     0.5030980    -1.9791460
units angstrom
no_reorient  #important for SAPT in psi4, default
symmetry c1  #important for SAPT in psi4, default
}

set PROPERTIES_ORIGIN ["COM"]
properties('MP2/aug-cc-pvtz', properties = ['dipole'])
--------------------------------------------------------------------------

    Molecular point group: c1
  Charge       = 0
  Multiplicity = 1
  Basis Set: AUG-CC-PVTZ
    Blend: AUG-CC-PVTZ
  Basis Set: (AUG-CC-PVTZ AUX)
    Blend: AUG-CC-PVTZ-JKFIT

    Orbital Energies [Eh]
    ---------------------

    Doubly Occupied:

       1A    -80.112118     2A    -20.618287     3A    -20.594715
       4A    -20.586650     5A    -20.536730     6A    -11.296758
       7A    -11.226538     8A     -7.629905     9A     -5.527956
      10A     -5.527771    11A     -5.527295    12A     -1.450630
      13A     -1.382116    14A     -1.361750    15A     -1.342817
      16A     -1.034566    17A     -0.866411    18A     -0.833755
      19A     -0.722735    20A     -0.710195    21A     -0.684319
      22A     -0.659830    23A     -0.645110    24A     -0.612082
      25A     -0.590621    26A     -0.573264    27A     -0.559335
      28A     -0.543747    29A     -0.523616    30A     -0.506185
      31A     -0.502292    32A     -0.495337    33A     -0.472891

  @DF-RHF Final Energy:  -720.29152396083157

   => Energetics <=

    Nuclear Repulsion Energy =            438.7202722420992131
    One-Electron Energy =               -1865.5069320665406849
    Two-Electron Energy =                 706.4951358636097893
    Total Energy =                       -720.2915239608315687
  Basis Set: (AUG-CC-PVTZ AUX)
    Blend: AUG-CC-PVTZ-RI
    Molecular point group: c1

    Geometry (in Angstrom), charge = 0, multiplicity = 1:

       Center              X                  Y                   Z               Mass
    ------------   -----------------  -----------------  -----------------  -----------------
         P            0.835108739865    -0.111506558731     0.036039483702    30.973761998420
         O           -0.727176360135    -0.588197958731     0.013246583702    15.994914619570
         O            0.860955639865     1.024393041269     1.186180583702    15.994914619570
         O            0.855091639865     0.932233041269    -1.285075416298    15.994914619570
         O            1.783283639865    -1.150719958731     0.027855583702    15.994914619570
         C           -1.826616360135     0.353688041269    -0.014976416298    12.000000000000
         C           -3.102632360135    -0.453415958731     0.009625583702    12.000000000000
         H           -1.747464360135     1.013096041269     0.853939583702     1.007825032230
         H           -1.748339360135     0.959884041269    -0.922032416298     1.007825032230
         H           -3.963904360135     0.219547041269    -0.009653416298     1.007825032230
         H           -3.153067360135    -1.113284958731    -0.858090416298     1.007825032230
         H           -3.151946360135    -1.060957958731     0.914885583702     1.007825032230
         H            1.411042639865     0.624886941269     1.884607183702     1.007825032230
         H            1.383669639865     0.516047041269    -1.990344416298     1.007825032230

  Basis Set: AUG-CC-PVTZ
    Blend: AUG-CC-PVTZ
  Basis Set: (AUG-CC-PVTZ AUX)
    Blend: AUG-CC-PVTZ-JKFIT
	 Reference Energy          =    -720.2915239608315687 [Eh]
	 Singles Energy            =      -0.0000000000000000 [Eh]
	 Same-Spin Energy          =      -0.4067364733372528 [Eh]
	 Opposite-Spin Energy      =      -1.2303204211080583 [Eh]
	 Correlation Energy        =      -1.6370568944453110 [Eh]
	 Total Energy              =    -721.9285808552768913 [Eh]

	 ================> DF-SCS-MP2 Energies <==================
	-----------------------------------------------------------
	 SCS Same-Spin Scale       =       0.3333333333333333 [-]
	 SCS Opposite-Spin Scale   =       1.2000000000000000 [-]
	 SCS Same-Spin Energy      =      -0.1355788244457509 [Eh]
	 SCS Opposite-Spin Energy  =      -1.4763845053296698 [Eh]
	 SCS Correlation Energy    =      -1.6119633297754208 [Eh]
	 SCS Total Energy          =    -721.9034872906070177 [Eh]
	-----------------------------------------------------------

  Dipole Moment: [D]
     X:    -1.4462      Y:     1.3014      Z:     0.3725     Total:     1.9809

*** Psi4 exiting successfully. Buy a developer a beer!
