                               Psi4 1.3.2 release

  ==> Input File <==

--------------------------------------------------------------------------
#psi4
#
memory 32 gb

molecule  {
0 1
  P        0.7984170    -0.0731530     0.0007800
  O       -0.7151460    -0.6011470     0.0244450
  O        0.8729860     1.0114440     1.1973790
  O        0.8671220     0.9192840    -1.2738770
  O        1.7953140    -1.1636690     0.0390540
  C       -1.9664420     0.4708334    -0.0076762
  C       -3.0906020    -0.4663650     0.0208240
  H       -1.7354340     1.0001470     0.8651380
  H       -1.7363090     0.9469350    -0.9108340
  H       -3.9518740     0.2065980     0.0015450
  H       -3.1410370    -1.1262340    -0.8468920
  H       -3.1399160    -1.0739070     0.9260840
  H        1.4163280     0.6542800     1.9234740
  H        1.3957000     0.5030980    -1.9791460
units angstrom
no_reorient  #important for SAPT in psi4, default
symmetry c1  #important for SAPT in psi4, default
}

set PROPERTIES_ORIGIN ["COM"]
properties('MP2/aug-cc-pvtz', properties = ['dipole'])
--------------------------------------------------------------------------

    Molecular point group: c1
  Charge       = 0
  Multiplicity = 1
  Basis Set: AUG-CC-PVTZ
    Blend: AUG-CC-PVTZ
  Basis Set: (AUG-CC-PVTZ AUX)
    Blend: AUG-CC-PVTZ-JKFIT

    Orbital Energies [Eh]
    ---------------------

    Doubly Occupied:

       1A    -80.098625     2A    -20.601662     3A    -20.601608
       4A    -20.566969     5A    -20.506834     6A    -11.316609
       7A    -11.240576     8A     -7.614207     9A     -5.512719
      10A     -5.512160    11A     -5.511312    12A     -1.437224
      13A     -1.378107    14A     -1.335909    15A     -1.284852
      16A     -1.065622    17A     -0.877424    18A     -0.839001
      19A     -0.720352    20A     -0.701419    21A     -0.683347
      22A     -0.664570    23A     -0.638573    24A     -0.607392
      25A     -0.583596    26A     -0.565338    27A     -0.563372
      28A     -0.535385    29A     -0.525729    30A     -0.512681
      31A     -0.489536    32A     -0.460526    33A     -0.455811

  @DF-RHF Final Energy:  -720.27719924987753

   => Energetics <=

    Nuclear Repulsion Energy =            435.9722375583525036
    One-Electron Energy =               -1860.4807805422396996
    Two-Electron Energy =                 704.2313437340097835
    Total Energy =                       -720.2771992498775262
  Basis Set: (AUG-CC-PVTZ AUX)
    Blend: AUG-CC-PVTZ-RI
    Molecular point group: c1

    Geometry (in Angstrom), charge = 0, multiplicity = 1:

       Center              X                  Y                   Z               Mass
    ------------   -----------------  -----------------  -----------------  -----------------
         P            0.812878381063    -0.085542316548     0.001151223465    30.973761998420
         O           -0.700684618937    -0.613536316548     0.024816223465    15.994914619570
         O            0.887447381063     0.999054683452     1.197750223465    15.994914619570
         O            0.881583381063     0.906894683452    -1.273505776535    15.994914619570
         O            1.809775381063    -1.176058316548     0.039425223465    15.994914619570
         C           -1.951980618937     0.458444083452    -0.007304976535    12.000000000000
         C           -3.076140618937    -0.478754316548     0.021195223465    12.000000000000
         H           -1.720972618937     0.987757683452     0.865509223465     1.007825032230
         H           -1.721847618937     0.934545683452    -0.910462776535     1.007825032230
         H           -3.937412618937     0.194208683452     0.001916223465     1.007825032230
         H           -3.126575618937    -1.138623316548    -0.846520776535     1.007825032230
         H           -3.125454618937    -1.086296316548     0.926455223465     1.007825032230
         H            1.430789381063     0.641890683452     1.923845223465     1.007825032230
         H            1.410161381063     0.490708683452    -1.978774776535     1.007825032230

  Basis Set: AUG-CC-PVTZ
    Blend: AUG-CC-PVTZ
  Basis Set: (AUG-CC-PVTZ AUX)
    Blend: AUG-CC-PVTZ-JKFIT
	 Reference Energy          =    -720.2771992498775262 [Eh]
	 Singles Energy            =      -0.0000000000000000 [Eh]
	 Same-Spin Energy          =      -0.4080074236508662 [Eh]
	 Opposite-Spin Energy      =      -1.2328831177565256 [Eh]
	 Correlation Energy        =      -1.6408905414073918 [Eh]
	 Total Energy              =    -721.9180897912849559 [Eh]

	 ================> DF-SCS-MP2 Energies <==================
	-----------------------------------------------------------
	 SCS Same-Spin Scale       =       0.3333333333333333 [-]
	 SCS Opposite-Spin Scale   =       1.2000000000000000 [-]
	 SCS Same-Spin Energy      =      -0.1360024745502887 [Eh]
	 SCS Opposite-Spin Energy  =      -1.4794597413078308 [Eh]
	 SCS Correlation Energy    =      -1.6154622158581196 [Eh]
	 SCS Total Energy          =    -721.8926614657356140 [Eh]
	-----------------------------------------------------------

  Dipole Moment: [D]
     X:    -2.9601      Y:     2.1488      Z:    -0.0743     Total:     3.6586

*** Psi4 exiting successfully. Buy a developer a beer!
