                               Psi4 1.3.2 release

  ==> Input File <==

--------------------------------------------------------------------------
#psi4
#
memory 32 gb

molecule  {
0 1
  P        0.7984170    -0.0731530     0.0007800
  O       -0.7178835    -0.5926320     0.0352029
  O        0.8593841     1.0090803     1.2002859
  O        0.8671220     0.9192840    -1.2738770
  O        1.7953140    -1.1636690     0.0390540
  C       -1.8145860     0.3407390    -0.0037780
  C       -3.0906020    -0.4663650     0.0208240
  H       -1.7354340     1.0001470     0.8651380
  H       -1.7363090     0.9469350    -0.9108340
  H       -3.9518740     0.2065980     0.0015450
  H       -3.1410370    -1.1262340    -0.8468920
  H       -3.1399160    -1.0739070     0.9260840
  H        1.4163280     0.6542800     1.9234740
  H        1.3957000     0.5030980    -1.9791460
units angstrom
no_reorient  #important for SAPT in psi4, default
symmetry c1  #important for SAPT in psi4, default
}

set PROPERTIES_ORIGIN ["COM"]
properties('MP2/aug-cc-pvtz', properties = ['dipole'])
--------------------------------------------------------------------------

    Molecular point group: c1
  Charge       = 0
  Multiplicity = 1
  Basis Set: AUG-CC-PVTZ
    Blend: AUG-CC-PVTZ
  Basis Set: (AUG-CC-PVTZ AUX)
    Blend: AUG-CC-PVTZ-JKFIT

    Orbital Energies [Eh]
    ---------------------

    Doubly Occupied:

       1A    -80.115116     2A    -20.611432     3A    -20.610638
       4A    -20.593756     5A    -20.520550     6A    -11.301027
       7A    -11.229607     8A     -7.630598     9A     -5.528956
      10A     -5.528672    11A     -5.527765    12A     -1.454906
      13A     -1.386882    14A     -1.384721    15A     -1.300852
      16A     -1.039930    17A     -0.873455    18A     -0.846831
      19A     -0.731763    20A     -0.729626    21A     -0.677520
      22A     -0.669987    23A     -0.645492    24A     -0.620121
      25A     -0.584827    26A     -0.568670    27A     -0.563280
      28A     -0.544519    29A     -0.531929    30A     -0.506632
      31A     -0.483483    32A     -0.475529    33A     -0.471417

  @DF-RHF Final Energy:  -720.30345217732440

   => Energetics <=

    Nuclear Repulsion Energy =            439.5903650639436364
    One-Electron Energy =               -1867.2066543996779728
    Two-Electron Energy =                 707.3128371584099341
    Total Energy =                       -720.3034521773244023
  Basis Set: (AUG-CC-PVTZ AUX)
    Blend: AUG-CC-PVTZ-RI
    Molecular point group: c1

    Geometry (in Angstrom), charge = 0, multiplicity = 1:

       Center              X                  Y                   Z               Mass
    ------------   -----------------  -----------------  -----------------  -----------------
         P            0.800490895603    -0.073933997950    -0.000954557892    30.973761998420
         O           -0.715809604397    -0.593412997950     0.033468342108    15.994914619570
         O            0.861457995603     1.008299302050     1.198551342108    15.994914619570
         O            0.869195895603     0.918503002050    -1.275611557892    15.994914619570
         O            1.797387895603    -1.164449997950     0.037319442108    15.994914619570
         C           -1.812512104397     0.339958002050    -0.005512557892    12.000000000000
         C           -3.088528104397    -0.467145997950     0.019089442108    12.000000000000
         H           -1.733360104397     0.999366002050     0.863403442108     1.007825032230
         H           -1.734235104397     0.946154002050    -0.912568557892     1.007825032230
         H           -3.949800104397     0.205817002050    -0.000189557892     1.007825032230
         H           -3.138963104397    -1.127014997950    -0.848626557892     1.007825032230
         H           -3.137842104397    -1.074687997950     0.924349442108     1.007825032230
         H            1.418401895603     0.653499002050     1.921739442108     1.007825032230
         H            1.397773895603     0.502317002050    -1.980880557892     1.007825032230

  Basis Set: AUG-CC-PVTZ
    Blend: AUG-CC-PVTZ
  Basis Set: (AUG-CC-PVTZ AUX)
    Blend: AUG-CC-PVTZ-JKFIT
	 Reference Energy          =    -720.3034521773244023 [Eh]
	 Singles Energy            =      -0.0000000000000000 [Eh]
	 Same-Spin Energy          =      -0.4071287558610477 [Eh]
	 Opposite-Spin Energy      =      -1.2301884174926188 [Eh]
	 Correlation Energy        =      -1.6373171733536664 [Eh]
	 Total Energy              =    -721.9407693506781243 [Eh]

	 ================> DF-SCS-MP2 Energies <==================
	-----------------------------------------------------------
	 SCS Same-Spin Scale       =       0.3333333333333333 [-]
	 SCS Opposite-Spin Scale   =       1.2000000000000000 [-]
	 SCS Same-Spin Energy      =      -0.1357095852870159 [Eh]
	 SCS Opposite-Spin Energy  =      -1.4762261009911424 [Eh]
	 SCS Correlation Energy    =      -1.6119356862781582 [Eh]
	 SCS Total Energy          =    -721.9153878636025183 [Eh]
	-----------------------------------------------------------

  Dipole Moment: [D]
     X:    -1.9428      Y:     1.8501      Z:    -0.0990     Total:     2.6846

*** Psi4 exiting successfully. Buy a developer a beer!
