                               Psi4 1.3.2 release

  ==> Input File <==

--------------------------------------------------------------------------
#psi4
#
memory 32 gb

molecule  {
0 1
  P        0.7984170    -0.0731530     0.0007800
  O       -0.7151460    -0.6011470     0.0244450
  O        0.8729860     1.0114440     1.1973790
  O        0.8671220     0.9192840    -1.2738770
  O        1.7953140    -1.1636690     0.0390540
  C       -1.8145860     0.3407390    -0.0037780
  C       -3.0906020    -0.4663650     0.0208240
  H       -1.7354340     1.0001470     0.8651380
  H       -1.7363090     0.9469350    -0.9108340
  H       -3.9518740     0.2065980     0.0015450
  H       -3.1410370    -1.1262340    -0.8468920
  H       -3.1399160    -1.0739070     0.9260840
  H        1.4163280     0.6542800     1.9234740
  H        1.3957000     0.5030980    -1.9791460
units angstrom
no_reorient  #important for SAPT in psi4, default
symmetry c1  #important for SAPT in psi4, default
}

set PROPERTIES_ORIGIN ["COM"]
properties('MP2/aug-cc-pvtz', properties = ['dipole'])
--------------------------------------------------------------------------

    Molecular point group: c1
  Charge       = 0
  Multiplicity = 1
  Basis Set: AUG-CC-PVTZ
    Blend: AUG-CC-PVTZ
  Basis Set: (AUG-CC-PVTZ AUX)
    Blend: AUG-CC-PVTZ-JKFIT

    Orbital Energies [Eh]
    ---------------------

    Doubly Occupied:

       1A    -80.114675     2A    -20.610706     3A    -20.610665
       4A    -20.594729     5A    -20.519222     6A    -11.302317
       7A    -11.230261     8A     -7.630178     9A     -5.528537
      10A     -5.528221    11A     -5.527358    12A     -1.454498
      13A     -1.386718    14A     -1.384482    15A     -1.299738
      16A     -1.040531    17A     -0.872973    18A     -0.847809
      19A     -0.731329    20A     -0.730114    21A     -0.676857
      22A     -0.670100    23A     -0.645214    24A     -0.620090
      25A     -0.584533    26A     -0.568849    27A     -0.562856
      28A     -0.544384    29A     -0.532079    30A     -0.508260
      31A     -0.484566    32A     -0.474278    33A     -0.470811

  @DF-RHF Final Energy:  -720.30367720165168

   => Energetics <=

    Nuclear Repulsion Energy =            439.4032250209286872
    One-Electron Energy =               -1866.8379328969708695
    Two-Electron Energy =                 707.1310306743905585
    Total Energy =                       -720.3036772016516807
  Basis Set: (AUG-CC-PVTZ AUX)
    Blend: AUG-CC-PVTZ-RI
    Molecular point group: c1

    Geometry (in Angstrom), charge = 0, multiplicity = 1:

       Center              X                  Y                   Z               Mass
    ------------   -----------------  -----------------  -----------------  -----------------
         P            0.798416845527    -0.073153179546     0.000779990469    30.973761998420
         O           -0.715146154473    -0.601147179546     0.024444990469    15.994914619570
         O            0.872985845527     1.011443820454     1.197378990469    15.994914619570
         O            0.867121845527     0.919283820454    -1.273877009531    15.994914619570
         O            1.795313845527    -1.163669179546     0.039053990469    15.994914619570
         C           -1.814586154473     0.340738820454    -0.003778009531    12.000000000000
         C           -3.090602154473    -0.466365179546     0.020823990469    12.000000000000
         H           -1.735434154473     1.000146820454     0.865137990469     1.007825032230
         H           -1.736309154473     0.946934820454    -0.910834009531     1.007825032230
         H           -3.951874154473     0.206597820454     0.001544990469     1.007825032230
         H           -3.141037154473    -1.126234179546    -0.846892009531     1.007825032230
         H           -3.139916154473    -1.073907179546     0.926083990469     1.007825032230
         H            1.416327845527     0.654279820454     1.923473990469     1.007825032230
         H            1.395699845527     0.503097820454    -1.979146009531     1.007825032230

  Basis Set: AUG-CC-PVTZ
    Blend: AUG-CC-PVTZ
  Basis Set: (AUG-CC-PVTZ AUX)
    Blend: AUG-CC-PVTZ-JKFIT
	 Reference Energy          =    -720.3036772016516807 [Eh]
	 Singles Energy            =      -0.0000000000000000 [Eh]
	 Same-Spin Energy          =      -0.4070612620119556 [Eh]
	 Opposite-Spin Energy      =      -1.2301455358471314 [Eh]
	 Correlation Energy        =      -1.6372067978590870 [Eh]
	 Total Energy              =    -721.9408839995107883 [Eh]

	 ================> DF-SCS-MP2 Energies <==================
	-----------------------------------------------------------
	 SCS Same-Spin Scale       =       0.3333333333333333 [-]
	 SCS Opposite-Spin Scale   =       1.2000000000000000 [-]
	 SCS Same-Spin Energy      =      -0.1356870873373185 [Eh]
	 SCS Opposite-Spin Energy  =      -1.4761746430165577 [Eh]
	 SCS Correlation Energy    =      -1.6118617303538763 [Eh]
	 SCS Total Energy          =    -721.9155389320055747 [Eh]
	-----------------------------------------------------------

  Dipole Moment: [D]
     X:    -2.0185      Y:     1.8697      Z:    -0.0676     Total:     2.7522

*** Psi4 exiting successfully. Buy a developer a beer!
