                               Psi4 1.4a3.dev225

  ==> Input File <==

--------------------------------------------------------------------------
#psi4
#
memory 32 gb

molecule  {
0 1
  P        0.8768730    -0.1227020    -0.0963880
  O       -0.6616900    -0.4669690    -0.3477670
  O        1.0437430     0.0794150     1.5121170
  O        0.9276490     1.4110650    -0.6042510
  O        1.8284920    -1.0938460    -0.6752860
  C       -1.7021250     0.4138110     0.1607360
  C       -3.0206860    -0.2869630    -0.0679060
  H       -1.5201960     0.5987390     1.2233000
  H       -1.6444250     1.3614050    -0.3799660
  H       -3.8417660     0.3429090     0.2865800
  H       -3.1647720    -0.4853110    -1.1316920
  H       -3.0471290    -1.2354240     0.4720910
  H        1.4753698    -0.7314129     1.8949226
  H        1.8298220     1.7749190    -0.5472100
units angstrom
no_reorient  #important for SAPT in psi4, default
symmetry c1  #important for SAPT in psi4, default
}

set PROPERTIES_ORIGIN ["COM"]
properties('MP2/aug-cc-pvtz', properties = ['dipole'])
--------------------------------------------------------------------------

    Molecular point group: c1
  Charge       = 0
  Multiplicity = 1
  Basis Set: AUG-CC-PVTZ
    Blend: AUG-CC-PVTZ
  Basis Set: (AUG-CC-PVTZ AUX)
    Blend: AUG-CC-PVTZ-JKFIT

    Orbital Energies [Eh]
    ---------------------

    Doubly Occupied:

       1A    -80.114135     2A    -20.612464     3A    -20.611619
       4A    -20.596184     5A    -20.517214     6A    -11.303436
       7A    -11.230504     8A     -7.629419     9A     -5.527862
      10A     -5.527640    11A     -5.526388    12A     -1.453000
      13A     -1.383758    14A     -1.381333    15A     -1.297516
      16A     -1.041087    17A     -0.872827    18A     -0.841331
      19A     -0.751810    20A     -0.719266    21A     -0.673594
      22A     -0.667988    23A     -0.639041    24A     -0.605496
      25A     -0.589603    26A     -0.569763    27A     -0.559598
      28A     -0.545558    29A     -0.535553    30A     -0.511059
      31A     -0.485790    32A     -0.472080    33A     -0.468214

  @DF-RHF Final Energy:  -720.30160924976110

   => Energetics <=

    Nuclear Repulsion Energy =            439.2209309052701656
    One-Electron Energy =               -1866.5208208627616386
    Two-Electron Energy =                 706.9982807077302596
    Total Energy =                       -720.3016092497610998
  Basis Set: (AUG-CC-PVTZ AUX)
    Blend: AUG-CC-PVTZ-RI
    Molecular point group: c1

    Geometry (in Angstrom), charge = 0, multiplicity = 1:

       Center              X                  Y                   Z               Mass
    ------------   -----------------  -----------------  -----------------  -----------------
         P            0.792030882091    -0.108696382122    -0.081454895987    30.973761998420
         O           -0.746532117909    -0.452963382122    -0.332833895987    15.994914619570
         O            0.958900882091     0.093420617878     1.527050104013    15.994914619570
         O            0.842806882091     1.425070617878    -0.589317895987    15.994914619570
         O            1.743649882091    -1.079840382122    -0.660352895987    15.994914619570
         C           -1.786967117909     0.427816617878     0.175669104013    12.000000000000
         C           -3.105528117909    -0.272957382122    -0.052972895987    12.000000000000
         H           -1.605038117909     0.612744617878     1.238233104013     1.007825032230
         H           -1.729267117909     1.375410617878    -0.365032895987     1.007825032230
         H           -3.926608117909     0.356914617878     0.301513104013     1.007825032230
         H           -3.249614117909    -0.471305382122    -1.116758895987     1.007825032230
         H           -3.131971117909    -1.221418382122     0.487024104013     1.007825032230
         H            1.390527682091    -0.717407282122     1.909855704013     1.007825032230
         H            1.744979882091     1.788924617878    -0.532276895987     1.007825032230

  Basis Set: AUG-CC-PVTZ
    Blend: AUG-CC-PVTZ
  Basis Set: (AUG-CC-PVTZ AUX)
    Blend: AUG-CC-PVTZ-JKFIT
	 Reference Energy          =    -720.3016092497610998 [Eh]
	 Singles Energy            =      -0.0000000000000000 [Eh]
	 Same-Spin Energy          =      -0.4074513417361789 [Eh]
	 Opposite-Spin Energy      =      -1.2312698875657313 [Eh]
	 Correlation Energy        =      -1.6387212293019102 [Eh]
	 Total Energy              =    -721.9403304790630500 [Eh]

	 ================> DF-SCS-MP2 Energies <==================
	-----------------------------------------------------------
	 SCS Same-Spin Scale       =       0.3333333333333333 [-]
	 SCS Opposite-Spin Scale   =       1.2000000000000000 [-]
	 SCS Same-Spin Energy      =      -0.1358171139120596 [Eh]
	 SCS Opposite-Spin Energy  =      -1.4775238650788776 [Eh]
	 SCS Correlation Energy    =      -1.6133409789909372 [Eh]
	 SCS Total Energy          =    -721.9149502287519908 [Eh]
	-----------------------------------------------------------

  Dipole Moment: [D]
     X:    -1.5449      Y:     2.1417      Z:     2.2395     Total:     3.4625

*** Psi4 exiting successfully. Buy a developer a beer!
