                               Psi4 1.3.2 release

  ==> Input File <==

--------------------------------------------------------------------------
#psi4
#
memory 32 gb

molecule  {
0 1
  P        0.7984170    -0.0731530     0.0007800
  O       -0.7151460    -0.6011470     0.0244450
  O        0.8729860     1.0114440     1.1973790
  O        0.8671220     0.9192840    -1.2738770
  O        1.7953140    -1.1636690     0.0390540
  C       -1.8145860     0.3407390    -0.0037780
  C       -3.0906020    -0.4663650     0.0208240
  H       -1.7354340     1.0001470     0.8651380
  H       -1.7363090     0.9469350    -0.9108340
  H       -3.9518740     0.2065980     0.0015450
  H       -3.1410370    -1.1262340    -0.8468920
  H       -3.1399160    -1.0739070     0.9260840
  H        1.3605823     0.6909242     1.8489782
  H        1.3957000     0.5030980    -1.9791460
units angstrom
no_reorient  #important for SAPT in psi4, default
symmetry c1  #important for SAPT in psi4, default
}

set PROPERTIES_ORIGIN ["COM"]
properties('MP2/aug-cc-pvtz', properties = ['dipole'])
--------------------------------------------------------------------------

    Molecular point group: c1
  Charge       = 0
  Multiplicity = 1
  Basis Set: AUG-CC-PVTZ
    Blend: AUG-CC-PVTZ
  Basis Set: (AUG-CC-PVTZ AUX)
    Blend: AUG-CC-PVTZ-JKFIT

    Orbital Energies [Eh]
    ---------------------

    Doubly Occupied:

       1A    -80.116716     2A    -20.611829     3A    -20.603363
       4A    -20.595970     5A    -20.520988     6A    -11.303180
       7A    -11.230862     8A     -7.632212     9A     -5.530601
      10A     -5.530245    11A     -5.529377    12A     -1.465246
      13A     -1.404721    14A     -1.386130    15A     -1.301943
      16A     -1.041437    17A     -0.878431    18A     -0.859011
      19A     -0.745145    20A     -0.732568    21A     -0.681065
      22A     -0.673025    23A     -0.648599    24A     -0.622014
      25A     -0.586760    26A     -0.571010    27A     -0.564659
      28A     -0.545623    29A     -0.534254    30A     -0.509416
      31A     -0.485956    32A     -0.475881    33A     -0.472373

  @DF-RHF Final Energy:  -720.29821692098585

   => Energetics <=

    Nuclear Repulsion Energy =            440.1393804443253543
    One-Electron Energy =               -1868.0939718344570792
    Two-Electron Energy =                 707.6563744691459306
    Total Energy =                       -720.2982169209858512
  Basis Set: (AUG-CC-PVTZ AUX)
    Blend: AUG-CC-PVTZ-RI
    Molecular point group: c1

    Geometry (in Angstrom), charge = 0, multiplicity = 1:

       Center              X                  Y                   Z               Mass
    ------------   -----------------  -----------------  -----------------  -----------------
         P            0.798862704715    -0.073446263197     0.001375814666    30.973761998420
         O           -0.714700295285    -0.601440263197     0.025040814666    15.994914619570
         O            0.873431704715     1.011150736803     1.197974814666    15.994914619570
         O            0.867567704715     0.918990736803    -1.273281185334    15.994914619570
         O            1.795759704715    -1.163962263197     0.039649814666    15.994914619570
         C           -1.814140295285     0.340445736803    -0.003182185334    12.000000000000
         C           -3.090156295285    -0.466658263197     0.021419814666    12.000000000000
         H           -1.734988295285     0.999853736803     0.865733814666     1.007825032230
         H           -1.735863295285     0.946641736803    -0.910238185334     1.007825032230
         H           -3.951428295285     0.206304736803     0.002140814666     1.007825032230
         H           -3.140591295285    -1.126527263197    -0.846296185334     1.007825032230
         H           -3.139470295285    -1.074200263197     0.926679814666     1.007825032230
         H            1.361028004715     0.690630936803     1.849574014666     1.007825032230
         H            1.396145704715     0.502804736803    -1.978550185334     1.007825032230

  Basis Set: AUG-CC-PVTZ
    Blend: AUG-CC-PVTZ
  Basis Set: (AUG-CC-PVTZ AUX)
    Blend: AUG-CC-PVTZ-JKFIT
	 Reference Energy          =    -720.2982169209858512 [Eh]
	 Singles Energy            =      -0.0000000000000000 [Eh]
	 Same-Spin Energy          =      -0.4059683680065141 [Eh]
	 Opposite-Spin Energy      =      -1.2276885540483644 [Eh]
	 Correlation Energy        =      -1.6336569220548784 [Eh]
	 Total Energy              =    -721.9318738430407620 [Eh]

	 ================> DF-SCS-MP2 Energies <==================
	-----------------------------------------------------------
	 SCS Same-Spin Scale       =       0.3333333333333333 [-]
	 SCS Opposite-Spin Scale   =       1.2000000000000000 [-]
	 SCS Same-Spin Energy      =      -0.1353227893355047 [Eh]
	 SCS Opposite-Spin Energy  =      -1.4732262648580372 [Eh]
	 SCS Correlation Energy    =      -1.6085490541935419 [Eh]
	 SCS Total Energy          =    -721.9067659751793826 [Eh]
	-----------------------------------------------------------

  Dipole Moment: [D]
     X:    -2.1059      Y:     1.8757      Z:    -0.2156     Total:     2.8283

*** Psi4 exiting successfully. Buy a developer a beer!
