                               Psi4 1.3.2 release

  ==> Input File <==

--------------------------------------------------------------------------
#psi4
#
memory 32 gb

molecule  {
0 1
  P        0.7984170    -0.0731530     0.0007800
  O       -0.7068612    -0.5904970     0.0458137
  O        0.8729860     1.0114440     1.1973790
  O        0.8671220     0.9192840    -1.2738770
  O        1.7953140    -1.1636690     0.0390540
  C       -1.8145860     0.3407390    -0.0037780
  C       -3.0906020    -0.4663650     0.0208240
  H       -1.7196703     0.9908445     0.8705519
  H       -1.7363090     0.9469350    -0.9108340
  H       -3.9518740     0.2065980     0.0015450
  H       -3.1410370    -1.1262340    -0.8468920
  H       -3.1399160    -1.0739070     0.9260840
  H        1.4163280     0.6542800     1.9234740
  H        1.3957000     0.5030980    -1.9791460
units angstrom
no_reorient  #important for SAPT in psi4, default
symmetry c1  #important for SAPT in psi4, default
}

set PROPERTIES_ORIGIN ["COM"]
properties('MP2/aug-cc-pvtz', properties = ['dipole'])
--------------------------------------------------------------------------

    Molecular point group: c1
  Charge       = 0
  Multiplicity = 1
  Basis Set: AUG-CC-PVTZ
    Blend: AUG-CC-PVTZ
  Basis Set: (AUG-CC-PVTZ AUX)
    Blend: AUG-CC-PVTZ-JKFIT

    Orbital Energies [Eh]
    ---------------------

    Doubly Occupied:

       1A    -80.113186     2A    -20.610617     3A    -20.608605
       4A    -20.594023     5A    -20.518524     6A    -11.303229
       7A    -11.231199     8A     -7.628886     9A     -5.527234
      10A     -5.526978    11A     -5.526059    12A     -1.455251
      13A     -1.386506    14A     -1.384893    15A     -1.299125
      16A     -1.041769    17A     -0.874851    18A     -0.846936
      19A     -0.731507    20A     -0.730156    21A     -0.676328
      22A     -0.670782    23A     -0.644657    24A     -0.620582
      25A     -0.584737    26A     -0.569262    27A     -0.562600
      28A     -0.545044    29A     -0.532021    30A     -0.508648
      31A     -0.484934    32A     -0.473879    33A     -0.470369

  @DF-RHF Final Energy:  -720.30427956967560

   => Energetics <=

    Nuclear Repulsion Energy =            439.8254715782591120
    One-Electron Energy =               -1867.6927521993147820
    Two-Electron Energy =                 707.5630010513800698
    Total Energy =                       -720.3042795696756002
  Basis Set: (AUG-CC-PVTZ AUX)
    Blend: AUG-CC-PVTZ-RI
    Molecular point group: c1

    Geometry (in Angstrom), charge = 0, multiplicity = 1:

       Center              X                  Y                   Z               Mass
    ------------   -----------------  -----------------  -----------------  -----------------
         P            0.797239130702    -0.074430640487    -0.001975757235    30.973761998420
         O           -0.708039069298    -0.591774640487     0.043057942765    15.994914619570
         O            0.871808130702     1.010166359513     1.194623242765    15.994914619570
         O            0.865944130702     0.918006359513    -1.276632757235    15.994914619570
         O            1.794136130702    -1.164946640487     0.036298242765    15.994914619570
         C           -1.815763869298     0.339461359513    -0.006533757235    12.000000000000
         C           -3.091779869298    -0.467642640487     0.018068242765    12.000000000000
         H           -1.720848169298     0.989566859513     0.867796142765     1.007825032230
         H           -1.737486869298     0.945657359513    -0.913589757235     1.007825032230
         H           -3.953051869298     0.205320359513    -0.001210757235     1.007825032230
         H           -3.142214869298    -1.127511640487    -0.849647757235     1.007825032230
         H           -3.141093869298    -1.075184640487     0.923328242765     1.007825032230
         H            1.415150130702     0.653002359513     1.920718242765     1.007825032230
         H            1.394522130702     0.501820359513    -1.981901757235     1.007825032230

  Basis Set: AUG-CC-PVTZ
    Blend: AUG-CC-PVTZ
  Basis Set: (AUG-CC-PVTZ AUX)
    Blend: AUG-CC-PVTZ-JKFIT
	 Reference Energy          =    -720.3042795696756002 [Eh]
	 Singles Energy            =      -0.0000000000000000 [Eh]
	 Same-Spin Energy          =      -0.4069236003242981 [Eh]
	 Opposite-Spin Energy      =      -1.2297409022979773 [Eh]
	 Correlation Energy        =      -1.6366645026222755 [Eh]
	 Total Energy              =    -721.9409440722978388 [Eh]

	 ================> DF-SCS-MP2 Energies <==================
	-----------------------------------------------------------
	 SCS Same-Spin Scale       =       0.3333333333333333 [-]
	 SCS Opposite-Spin Scale   =       1.2000000000000000 [-]
	 SCS Same-Spin Energy      =      -0.1356412001080994 [Eh]
	 SCS Opposite-Spin Energy  =      -1.4756890827575726 [Eh]
	 SCS Correlation Energy    =      -1.6113302828656719 [Eh]
	 SCS Total Energy          =    -721.9156098525412517 [Eh]
	-----------------------------------------------------------

  Dipole Moment: [D]
     X:    -2.0898      Y:     1.8386      Z:    -0.1196     Total:     2.7860

*** Psi4 exiting successfully. Buy a developer a beer!
