                               Psi4 1.3.2 release

  ==> Input File <==

--------------------------------------------------------------------------
#psi4
#
memory 32 gb

molecule  {
0 1
  P        0.7984170    -0.0731530     0.0007800
  O       -0.7151460    -0.6011470     0.0244450
  O        0.8729860     1.0114440     1.1973790
  O        0.8671220     0.9192840    -1.2738770
  O        1.7953140    -1.1636690     0.0390540
  C       -1.8145860     0.3407390    -0.0037780
  C       -3.0906020    -0.4663650     0.0208240
  H       -1.7354340     1.0001470     0.8651380
  H       -1.7363090     0.9469350    -0.9108340
  H       -3.9518740     0.2065980     0.0015450
  H       -3.1410370    -1.1262340    -0.8468920
  H       -3.1399160    -1.0739070     0.9260840
  H        1.4720737     0.6176358     1.9979698
  H        1.3957000     0.5030980    -1.9791460
units angstrom
no_reorient  #important for SAPT in psi4, default
symmetry c1  #important for SAPT in psi4, default
}

set PROPERTIES_ORIGIN ["COM"]
properties('MP2/aug-cc-pvtz', properties = ['dipole'])
--------------------------------------------------------------------------

    Molecular point group: c1
  Charge       = 0
  Multiplicity = 1
  Basis Set: AUG-CC-PVTZ
    Blend: AUG-CC-PVTZ
  Basis Set: (AUG-CC-PVTZ AUX)
    Blend: AUG-CC-PVTZ-JKFIT

    Orbital Energies [Eh]
    ---------------------

    Doubly Occupied:

       1A    -80.112647     2A    -20.615748     3A    -20.609508
       4A    -20.593484     5A    -20.517467     6A    -11.301433
       7A    -11.229644     8A     -7.628156     9A     -5.526488
      10A     -5.526207    11A     -5.525350    12A     -1.448921
      13A     -1.383840    14A     -1.369760    15A     -1.297432
      16A     -1.039640    17A     -0.870654    18A     -0.837795
      19A     -0.729821    20A     -0.715945    21A     -0.673488
      22A     -0.664651    23A     -0.640656    24A     -0.617907
      25A     -0.582467    26A     -0.566766    27A     -0.561050
      28A     -0.543091    29A     -0.529868    30A     -0.507076
      31A     -0.483174    32A     -0.472688    33A     -0.469133

  @DF-RHF Final Energy:  -720.29072121138188

   => Energetics <=

    Nuclear Repulsion Energy =            438.7644585593064335
    One-Electron Energy =               -1865.7264466656315562
    Two-Electron Energy =                 706.6712668949433009
    Total Energy =                       -720.2907212113818787
  Basis Set: (AUG-CC-PVTZ AUX)
    Blend: AUG-CC-PVTZ-RI
    Molecular point group: c1

    Geometry (in Angstrom), charge = 0, multiplicity = 1:

       Center              X                  Y                   Z               Mass
    ------------   -----------------  -----------------  -----------------  -----------------
         P            0.797970986338    -0.072860095895     0.000184166272    30.973761998420
         O           -0.715592013662    -0.600854095895     0.023849166272    15.994914619570
         O            0.872539986338     1.011736904105     1.196783166272    15.994914619570
         O            0.866675986338     0.919576904105    -1.274472833728    15.994914619570
         O            1.794867986338    -1.163376095895     0.038458166272    15.994914619570
         C           -1.815032013662     0.341031904105    -0.004373833728    12.000000000000
         C           -3.091048013662    -0.466072095895     0.020228166272    12.000000000000
         H           -1.735880013662     1.000439904105     0.864542166272     1.007825032230
         H           -1.736755013662     0.947227904105    -0.911429833728     1.007825032230
         H           -3.952320013662     0.206890904105     0.000949166272     1.007825032230
         H           -3.141483013662    -1.125941095895    -0.847487833728     1.007825032230
         H           -3.140362013662    -1.073614095895     0.925488166272     1.007825032230
         H            1.471627686338     0.617928704105     1.997373966272     1.007825032230
         H            1.395253986338     0.503390904105    -1.979741833728     1.007825032230

  Basis Set: AUG-CC-PVTZ
    Blend: AUG-CC-PVTZ
  Basis Set: (AUG-CC-PVTZ AUX)
    Blend: AUG-CC-PVTZ-JKFIT
	 Reference Energy          =    -720.2907212113818787 [Eh]
	 Singles Energy            =      -0.0000000000000000 [Eh]
	 Same-Spin Energy          =      -0.4081259481157674 [Eh]
	 Opposite-Spin Energy      =      -1.2328571370987553 [Eh]
	 Correlation Energy        =      -1.6409830852145229 [Eh]
	 Total Energy              =    -721.9317042965964220 [Eh]

	 ================> DF-SCS-MP2 Energies <==================
	-----------------------------------------------------------
	 SCS Same-Spin Scale       =       0.3333333333333333 [-]
	 SCS Opposite-Spin Scale   =       1.2000000000000000 [-]
	 SCS Same-Spin Energy      =      -0.1360419827052558 [Eh]
	 SCS Opposite-Spin Energy  =      -1.4794285645185064 [Eh]
	 SCS Correlation Energy    =      -1.6154705472237620 [Eh]
	 SCS Total Energy          =    -721.9061917586055870 [Eh]
	-----------------------------------------------------------

  Dipole Moment: [D]
     X:    -1.9262      Y:     1.8559      Z:     0.0826     Total:     2.6760

*** Psi4 exiting successfully. Buy a developer a beer!
