                               Psi4 1.4a3.dev225

  ==> Input File <==

--------------------------------------------------------------------------
#psi4
#
memory 32 gb

molecule  {
0 1
  P        0.8768730    -0.1227020    -0.0963880
  O       -0.6616900    -0.4669690    -0.3477670
  O        1.0488626     0.0856160     1.5614661
  O        0.9276490     1.4110650    -0.6042510
  O        1.8284920    -1.0938460    -0.6752860
  C       -1.7021250     0.4138110     0.1607360
  C       -3.0206860    -0.2869630    -0.0679060
  H       -1.5201960     0.5987390     1.2233000
  H       -1.6444250     1.3614050    -0.3799660
  H       -3.8417660     0.3429090     0.2865800
  H       -3.1647720    -0.4853110    -1.1316920
  H       -3.0471290    -1.2354240     0.4720910
  H        1.4666950    -0.7151170     1.8872290
  H        1.8298220     1.7749190    -0.5472100
units angstrom
no_reorient  #important for SAPT in psi4, default
symmetry c1  #important for SAPT in psi4, default
}

set PROPERTIES_ORIGIN ["COM"]
properties('MP2/aug-cc-pvtz', properties = ['dipole'])
--------------------------------------------------------------------------

    Molecular point group: c1
  Charge       = 0
  Multiplicity = 1
  Basis Set: AUG-CC-PVTZ
    Blend: AUG-CC-PVTZ
  Basis Set: (AUG-CC-PVTZ AUX)
    Blend: AUG-CC-PVTZ-JKFIT

    Orbital Energies [Eh]
    ---------------------

    Doubly Occupied:

       1A    -80.120126     2A    -20.616039     3A    -20.607100
       4A    -20.599837     5A    -20.522254     6A    -11.304820
       7A    -11.231492     8A     -7.634641     9A     -5.533109
      10A     -5.532763    11A     -5.531583    12A     -1.451418
      13A     -1.386616    14A     -1.379026    15A     -1.301740
      16A     -1.042498    17A     -0.874104    18A     -0.841130
      19A     -0.749347    20A     -0.719789    21A     -0.674034
      22A     -0.669889    23A     -0.637284    24A     -0.607931
      25A     -0.589193    26A     -0.569807    27A     -0.559971
      28A     -0.546761    29A     -0.535462    30A     -0.512878
      31A     -0.487609    32A     -0.475810    33A     -0.471727

  @DF-RHF Final Energy:  -720.29897418721418

   => Energetics <=

    Nuclear Repulsion Energy =            437.4988424514996836
    One-Electron Energy =               -1862.9600568357966495
    Two-Electron Energy =                 705.1622401970827241
    Total Energy =                       -720.2989741872141849
  Basis Set: (AUG-CC-PVTZ AUX)
    Blend: AUG-CC-PVTZ-RI
    Molecular point group: c1

    Geometry (in Angstrom), charge = 0, multiplicity = 1:

       Center              X                  Y                   Z               Mass
    ------------   -----------------  -----------------  -----------------  -----------------
         P            0.791450404894    -0.109613845314    -0.087657515063    30.973761998420
         O           -0.747112595106    -0.453880845314    -0.339036515063    15.994914619570
         O            0.963440004894     0.098704154686     1.570196584937    15.994914619570
         O            0.842226404894     1.424153154686    -0.595520515063    15.994914619570
         O            1.743069404894    -1.080757845314    -0.666555515063    15.994914619570
         C           -1.787547595106     0.426899154686     0.169466484937    12.000000000000
         C           -3.106108595106    -0.273874845314    -0.059175515063    12.000000000000
         H           -1.605618595106     0.611827154686     1.232030484937     1.007825032230
         H           -1.729847595106     1.374493154686    -0.371235515063     1.007825032230
         H           -3.927188595106     0.355997154686     0.295310484937     1.007825032230
         H           -3.250194595106    -0.472222845314    -1.122961515063     1.007825032230
         H           -3.132551595106    -1.222335845314     0.480821484937     1.007825032230
         H            1.381272404894    -0.702028845314     1.895959484937     1.007825032230
         H            1.744399404894     1.788007154686    -0.538479515063     1.007825032230

  Basis Set: AUG-CC-PVTZ
    Blend: AUG-CC-PVTZ
  Basis Set: (AUG-CC-PVTZ AUX)
    Blend: AUG-CC-PVTZ-JKFIT
	 Reference Energy          =    -720.2989741872141849 [Eh]
	 Singles Energy            =      -0.0000000000000000 [Eh]
	 Same-Spin Energy          =      -0.4075904786134251 [Eh]
	 Opposite-Spin Energy      =      -1.2321480639858873 [Eh]
	 Correlation Energy        =      -1.6397385425993125 [Eh]
	 Total Energy              =    -721.9387127298134601 [Eh]

	 ================> DF-SCS-MP2 Energies <==================
	-----------------------------------------------------------
	 SCS Same-Spin Scale       =       0.3333333333333333 [-]
	 SCS Opposite-Spin Scale   =       1.2000000000000000 [-]
	 SCS Same-Spin Energy      =      -0.1358634928711417 [Eh]
	 SCS Opposite-Spin Energy  =      -1.4785776767830647 [Eh]
	 SCS Correlation Energy    =      -1.6144411696542065 [Eh]
	 SCS Total Energy          =    -721.9134153568684269 [Eh]
	-----------------------------------------------------------

  Dipole Moment: [D]
     X:    -1.6257      Y:     2.1581      Z:     1.9169     Total:     3.3129

*** Psi4 exiting successfully. Buy a developer a beer!
