                               Psi4 1.3.2 release

  ==> Input File <==

--------------------------------------------------------------------------
#psi4
#
memory 32 gb

molecule  {
0 1
  P        0.7984170    -0.0731530     0.0007800
  O       -0.7151460    -0.6011470     0.0244450
  O        0.8729860     1.0114440     1.1973790
  O        0.8671220     0.9192840    -1.2738770
  O        1.9302118    -1.3112351     0.0442331
  C       -1.8145860     0.3407390    -0.0037780
  C       -3.0906020    -0.4663650     0.0208240
  H       -1.7354340     1.0001470     0.8651380
  H       -1.7363090     0.9469350    -0.9108340
  H       -3.9518740     0.2065980     0.0015450
  H       -3.1410370    -1.1262340    -0.8468920
  H       -3.1399160    -1.0739070     0.9260840
  H        1.4163280     0.6542800     1.9234740
  H        1.3957000     0.5030980    -1.9791460
units angstrom
no_reorient  #important for SAPT in psi4, default
symmetry c1  #important for SAPT in psi4, default
}

set PROPERTIES_ORIGIN ["COM"]
properties('MP2/aug-cc-pvtz', properties = ['dipole'])
--------------------------------------------------------------------------

    Molecular point group: c1
  Charge       = 0
  Multiplicity = 1
  Basis Set: AUG-CC-PVTZ
    Blend: AUG-CC-PVTZ
  Basis Set: (AUG-CC-PVTZ AUX)
    Blend: AUG-CC-PVTZ-JKFIT

    Orbital Energies [Eh]
    ---------------------

    Doubly Occupied:

       1A    -80.141452     2A    -20.623223     3A    -20.623180
       4A    -20.605602     5A    -20.524925     6A    -11.309143
       7A    -11.234714     8A     -7.652689     9A     -5.551216
      10A     -5.550878    11A     -5.548746    12A     -1.459932
      13A     -1.397406    14A     -1.394285    15A     -1.224131
      16A     -1.046769    17A     -0.882594    18A     -0.857496
      19A     -0.739600    20A     -0.739140    21A     -0.684044
      22A     -0.677498    23A     -0.646391    24A     -0.627880
      25A     -0.589346    26A     -0.576546    27A     -0.557158
      28A     -0.539995    29A     -0.515437    30A     -0.513745
      31A     -0.489780    32A     -0.440666    33A     -0.439784

  @DF-RHF Final Energy:  -720.25490147292703

   => Energetics <=

    Nuclear Repulsion Energy =            431.1906347167936246
    One-Electron Energy =               -1850.0802865206917431
    Two-Electron Energy =                 698.6347503309712010
    Total Energy =                       -720.2549014729270311
  Basis Set: (AUG-CC-PVTZ AUX)
    Blend: AUG-CC-PVTZ-RI
    Molecular point group: c1

    Geometry (in Angstrom), charge = 0, multiplicity = 1:

       Center              X                  Y                   Z               Mass
    ------------   -----------------  -----------------  -----------------  -----------------
         P            0.781293524450    -0.054421801344     0.000122578768    30.973761998420
         O           -0.732269475550    -0.582415801344     0.023787578768    15.994914619570
         O            0.855862524450     1.030175198656     1.196721578768    15.994914619570
         O            0.849998524450     0.938015198656    -1.274534421232    15.994914619570
         O            1.913088324450    -1.292503901344     0.043575678768    15.994914619570
         C           -1.831709475550     0.359470198656    -0.004435421232    12.000000000000
         C           -3.107725475550    -0.447633801344     0.020166578768    12.000000000000
         H           -1.752557475550     1.018878198656     0.864480578768     1.007825032230
         H           -1.753432475550     0.965666198656    -0.911491421232     1.007825032230
         H           -3.968997475550     0.225329198656     0.000887578768     1.007825032230
         H           -3.158160475550    -1.107502801344    -0.847549421232     1.007825032230
         H           -3.157039475550    -1.055175801344     0.925426578768     1.007825032230
         H            1.399204524450     0.673011198656     1.922816578768     1.007825032230
         H            1.378576524450     0.521829198656    -1.979803421232     1.007825032230

  Basis Set: AUG-CC-PVTZ
    Blend: AUG-CC-PVTZ
  Basis Set: (AUG-CC-PVTZ AUX)
    Blend: AUG-CC-PVTZ-JKFIT
	 Reference Energy          =    -720.2549014729270311 [Eh]
	 Singles Energy            =      -0.0000000000000000 [Eh]
	 Same-Spin Energy          =      -0.4108226512892067 [Eh]
	 Opposite-Spin Energy      =      -1.2400356912635786 [Eh]
	 Correlation Energy        =      -1.6508583425527852 [Eh]
	 Total Energy              =    -721.9057598154797688 [Eh]

	 ================> DF-SCS-MP2 Energies <==================
	-----------------------------------------------------------
	 SCS Same-Spin Scale       =       0.3333333333333333 [-]
	 SCS Opposite-Spin Scale   =       1.2000000000000000 [-]
	 SCS Same-Spin Energy      =      -0.1369408837630689 [Eh]
	 SCS Opposite-Spin Energy  =      -1.4880428295162942 [Eh]
	 SCS Correlation Energy    =      -1.6249837132793630 [Eh]
	 SCS Total Energy          =    -721.8798851862063657 [Eh]
	-----------------------------------------------------------

  Dipole Moment: [D]
     X:    -2.7548      Y:     2.5877      Z:    -0.0927     Total:     3.7807

*** Psi4 exiting successfully. Buy a developer a beer!
