                               Psi4 1.4a3.dev225

  ==> Input File <==

--------------------------------------------------------------------------
#psi4
#
memory 32 gb

molecule  {
0 1
  P        0.8768730    -0.1227020    -0.0963880
  O       -0.6616900    -0.4669690    -0.3477670
  O        1.0386234     0.0732140     1.4627679
  O        0.9276490     1.4110650    -0.6042510
  O        1.8284920    -1.0938460    -0.6752860
  C       -1.7021250     0.4138110     0.1607360
  C       -3.0206860    -0.2869630    -0.0679060
  H       -1.5201960     0.5987390     1.2233000
  H       -1.6444250     1.3614050    -0.3799660
  H       -3.8417660     0.3429090     0.2865800
  H       -3.1647720    -0.4853110    -1.1316920
  H       -3.0471290    -1.2354240     0.4720910
  H        1.4666950    -0.7151170     1.8872290
  H        1.8298220     1.7749190    -0.5472100
units angstrom
no_reorient  #important for SAPT in psi4, default
symmetry c1  #important for SAPT in psi4, default
}

set PROPERTIES_ORIGIN ["COM"]
properties('MP2/aug-cc-pvtz', properties = ['dipole'])
--------------------------------------------------------------------------

    Molecular point group: c1
  Charge       = 0
  Multiplicity = 1
  Basis Set: AUG-CC-PVTZ
    Blend: AUG-CC-PVTZ
  Basis Set: (AUG-CC-PVTZ AUX)
    Blend: AUG-CC-PVTZ-JKFIT

    Orbital Energies [Eh]
    ---------------------

    Doubly Occupied:

       1A    -80.108248     2A    -20.613567     3A    -20.609039
       4A    -20.592856     5A    -20.512732     6A    -11.302343
       7A    -11.229710     8A     -7.624577     9A     -5.523021
      10A     -5.522888    11A     -5.521509    12A     -1.459363
      13A     -1.389809    14A     -1.381204    15A     -1.294137
      16A     -1.039963    17A     -0.872668    18A     -0.845756
      19A     -0.759324    20A     -0.719890    21A     -0.676081
      22A     -0.667222    23A     -0.642660    24A     -0.603613
      25A     -0.592555    26A     -0.569523    27A     -0.559300
      28A     -0.544514    29A     -0.535827    30A     -0.509551
      31A     -0.484325    32A     -0.468817    33A     -0.465174

  @DF-RHF Final Energy:  -720.30377613368375

   => Energetics <=

    Nuclear Repulsion Energy =            441.2892110264392613
    One-Electron Energy =               -1870.7024375946091368
    Two-Electron Energy =                 709.1094504344861207
    Total Energy =                       -720.3037761336837548
  Basis Set: (AUG-CC-PVTZ AUX)
    Blend: AUG-CC-PVTZ-RI
    Molecular point group: c1

    Geometry (in Angstrom), charge = 0, multiplicity = 1:

       Center              X                  Y                   Z               Mass
    ------------   -----------------  -----------------  -----------------  -----------------
         P            0.792750122971    -0.108039591116    -0.075129208684    30.973761998420
         O           -0.745812877029    -0.452306591116    -0.326508208684    15.994914619570
         O            0.954500522971     0.087876408884     1.484026691316    15.994914619570
         O            0.843526122971     1.425727408884    -0.582992208684    15.994914619570
         O            1.744369122971    -1.079183591116    -0.654027208684    15.994914619570
         C           -1.786247877029     0.428473408884     0.181994791316    12.000000000000
         C           -3.104808877029    -0.272300591116    -0.046647208684    12.000000000000
         H           -1.604318877029     0.613401408884     1.244558791316     1.007825032230
         H           -1.728547877029     1.376067408884    -0.358707208684     1.007825032230
         H           -3.925888877029     0.357571408884     0.307838791316     1.007825032230
         H           -3.248894877029    -0.470648591116    -1.110433208684     1.007825032230
         H           -3.131251877029    -1.220761591116     0.493349791316     1.007825032230
         H            1.382572122971    -0.700454591116     1.908487791316     1.007825032230
         H            1.745699122971     1.789581408884    -0.525951208684     1.007825032230

  Basis Set: AUG-CC-PVTZ
    Blend: AUG-CC-PVTZ
  Basis Set: (AUG-CC-PVTZ AUX)
    Blend: AUG-CC-PVTZ-JKFIT
	 Reference Energy          =    -720.3037761336837548 [Eh]
	 Singles Energy            =      -0.0000000000000000 [Eh]
	 Same-Spin Energy          =      -0.4069354850133728 [Eh]
	 Opposite-Spin Energy      =      -1.2294423445258396 [Eh]
	 Correlation Energy        =      -1.6363778295392124 [Eh]
	 Total Energy              =    -721.9401539632229969 [Eh]

	 ================> DF-SCS-MP2 Energies <==================
	-----------------------------------------------------------
	 SCS Same-Spin Scale       =       0.3333333333333333 [-]
	 SCS Opposite-Spin Scale   =       1.2000000000000000 [-]
	 SCS Same-Spin Energy      =      -0.1356451616711243 [Eh]
	 SCS Opposite-Spin Energy  =      -1.4753308134310075 [Eh]
	 SCS Correlation Energy    =      -1.6109759751021318 [Eh]
	 SCS Total Energy          =    -721.9147521087859332 [Eh]
	-----------------------------------------------------------

  Dipole Moment: [D]
     X:    -1.4900      Y:     2.1627      Z:     2.5298     Total:     3.6465

*** Psi4 exiting successfully. Buy a developer a beer!
