                               Psi4 1.3.2 release

  ==> Input File <==

--------------------------------------------------------------------------
#psi4
#
memory 32 gb

molecule  {
0 1
  P        0.8240018    -0.1530479     0.0034232
  O       -0.7151460    -0.6011470     0.0244450
  O        0.8729860     1.0114440     1.1973790
  O        0.8671220     0.9192840    -1.2738770
  O        1.7953140    -1.1636690     0.0390540
  C       -1.8623951     0.2819475    -0.0015875
  C       -3.0906020    -0.4663650     0.0208240
  H       -1.7354340     1.0001470     0.8651380
  H       -1.7363090     0.9469350    -0.9108340
  H       -3.9518740     0.2065980     0.0015450
  H       -3.1410370    -1.1262340    -0.8468920
  H       -3.1399160    -1.0739070     0.9260840
  H        1.4163280     0.6542800     1.9234740
  H        1.3957000     0.5030980    -1.9791460
units angstrom
no_reorient  #important for SAPT in psi4, default
symmetry c1  #important for SAPT in psi4, default
}

set PROPERTIES_ORIGIN ["COM"]
properties('MP2/aug-cc-pvtz', properties = ['dipole'])
--------------------------------------------------------------------------

    Molecular point group: c1
  Charge       = 0
  Multiplicity = 1
  Basis Set: AUG-CC-PVTZ
    Blend: AUG-CC-PVTZ
  Basis Set: (AUG-CC-PVTZ AUX)
    Blend: AUG-CC-PVTZ-JKFIT

    Orbital Energies [Eh]
    ---------------------

    Doubly Occupied:

       1A    -80.111383     2A    -20.599773     3A    -20.599669
       4A    -20.591159     5A    -20.535293     6A    -11.305305
       7A    -11.227791     8A     -7.628851     9A     -5.526852
      10A     -5.526729    11A     -5.526429    12A     -1.443711
      13A     -1.374374    14A     -1.363805    15A     -1.343852
      16A     -1.057172    17A     -0.869480    18A     -0.825526
      19A     -0.723378    20A     -0.707182    21A     -0.674222
      22A     -0.658145    23A     -0.639016    24A     -0.620505
      25A     -0.589173    26A     -0.579339    27A     -0.561972
      28A     -0.544608    29A     -0.519969    30A     -0.510816
      31A     -0.503747    32A     -0.499333    33A     -0.463332

  @DF-RHF Final Energy:  -720.28504010711072

   => Energetics <=

    Nuclear Repulsion Energy =            438.7642257823075624
    One-Electron Energy =               -1865.5947503898851210
    Two-Electron Energy =                 706.5454845004667277
    Total Energy =                       -720.2850401071107171
  Basis Set: (AUG-CC-PVTZ AUX)
    Blend: AUG-CC-PVTZ-RI
    Molecular point group: c1

    Geometry (in Angstrom), charge = 0, multiplicity = 1:

       Center              X                  Y                   Z               Mass
    ------------   -----------------  -----------------  -----------------  -----------------
         P            0.822265660778    -0.127810486072     0.002564866555    30.973761998420
         O           -0.716882139222    -0.575909586072     0.023586666555    15.994914619570
         O            0.871249860778     1.036681413928     1.196520666555    15.994914619570
         O            0.865385860778     0.944521413928    -1.274735333445    15.994914619570
         O            1.793577860778    -1.138431586072     0.038195666555    15.994914619570
         C           -1.864131239222     0.307184913928    -0.002445833445    12.000000000000
         C           -3.092338139222    -0.441127586072     0.019965666555    12.000000000000
         H           -1.737170139222     1.025384413928     0.864279666555     1.007825032230
         H           -1.738045139222     0.972172413928    -0.911692333445     1.007825032230
         H           -3.953610139222     0.231835413928     0.000686666555     1.007825032230
         H           -3.142773139222    -1.100996586072    -0.847750333445     1.007825032230
         H           -3.141652139222    -1.048669586072     0.925225666555     1.007825032230
         H            1.414591860778     0.679517413928     1.922615666555     1.007825032230
         H            1.393963860778     0.528335413928    -1.980004333445     1.007825032230

  Basis Set: AUG-CC-PVTZ
    Blend: AUG-CC-PVTZ
  Basis Set: (AUG-CC-PVTZ AUX)
    Blend: AUG-CC-PVTZ-JKFIT
	 Reference Energy          =    -720.2850401071107171 [Eh]
	 Singles Energy            =      -0.0000000000000000 [Eh]
	 Same-Spin Energy          =      -0.4070726859609486 [Eh]
	 Opposite-Spin Energy      =      -1.2304960084761574 [Eh]
	 Correlation Energy        =      -1.6375686944371060 [Eh]
	 Total Energy              =    -721.9226088015477671 [Eh]

	 ================> DF-SCS-MP2 Energies <==================
	-----------------------------------------------------------
	 SCS Same-Spin Scale       =       0.3333333333333333 [-]
	 SCS Opposite-Spin Scale   =       1.2000000000000000 [-]
	 SCS Same-Spin Energy      =      -0.1356908953203162 [Eh]
	 SCS Opposite-Spin Energy  =      -1.4765952101713888 [Eh]
	 SCS Correlation Energy    =      -1.6122861054917050 [Eh]
	 SCS Total Energy          =    -721.8973262126023656 [Eh]
	-----------------------------------------------------------

  Dipole Moment: [D]
     X:    -1.8963      Y:     1.0305      Z:    -0.0395     Total:     2.1585

*** Psi4 exiting successfully. Buy a developer a beer!
