                               Psi4 1.3.2 release

  ==> Input File <==

--------------------------------------------------------------------------
#psi4
#
memory 32 gb

molecule  {
0 1
  P        0.7984170    -0.0731530     0.0007800
  O       -0.5263268    -0.5352790     0.0214928
  O        0.8729860     1.0114440     1.1973790
  O        0.8671220     0.9192840    -1.2738770
  O        1.7953140    -1.1636690     0.0390540
  C       -1.8145860     0.3407390    -0.0037780
  C       -3.0906020    -0.4663650     0.0208240
  H       -1.7354340     1.0001470     0.8651380
  H       -1.7363090     0.9469350    -0.9108340
  H       -3.9518740     0.2065980     0.0015450
  H       -3.1410370    -1.1262340    -0.8468920
  H       -3.1399160    -1.0739070     0.9260840
  H        1.4163280     0.6542800     1.9234740
  H        1.3957000     0.5030980    -1.9791460
units angstrom
no_reorient  #important for SAPT in psi4, default
symmetry c1  #important for SAPT in psi4, default
}

set PROPERTIES_ORIGIN ["COM"]
properties('MP2/aug-cc-pvtz', properties = ['dipole'])
--------------------------------------------------------------------------

    Molecular point group: c1
  Charge       = 0
  Multiplicity = 1
  Basis Set: AUG-CC-PVTZ
    Blend: AUG-CC-PVTZ
  Basis Set: (AUG-CC-PVTZ AUX)
    Blend: AUG-CC-PVTZ-JKFIT

    Orbital Energies [Eh]
    ---------------------

    Doubly Occupied:

       1A    -80.073336     2A    -20.589214     3A    -20.589110
       4A    -20.589036     5A    -20.493059     6A    -11.335419
       7A    -11.251318     8A     -7.596563     9A     -5.496145
      10A     -5.493834    11A     -5.492874    12A     -1.479248
      13A     -1.384491    14A     -1.368571    15A     -1.276671
      16A     -1.068099    17A     -0.894106    18A     -0.833316
      19A     -0.734449    20A     -0.731217    21A     -0.669917
      22A     -0.663205    23A     -0.635922    24A     -0.630605
      25A     -0.587960    26A     -0.579474    27A     -0.561424
      28A     -0.549158    29A     -0.526521    30A     -0.523639
      31A     -0.504149    32A     -0.451497    33A     -0.450183

  @DF-RHF Final Energy:  -720.27357612294782

   => Energetics <=

    Nuclear Repulsion Energy =            445.4335618464089066
    One-Electron Energy =               -1879.2068161533031798
    Two-Electron Energy =                 713.4996781839463438
    Total Energy =                       -720.2735761229478157
  Basis Set: (AUG-CC-PVTZ AUX)
    Blend: AUG-CC-PVTZ-RI
    Molecular point group: c1

    Geometry (in Angstrom), charge = 0, multiplicity = 1:

       Center              X                  Y                   Z               Mass
    ------------   -----------------  -----------------  -----------------  -----------------
         P            0.774448984026    -0.081514167736     0.001154729482    30.973761998420
         O           -0.550294815974    -0.543640167736     0.021867529482    15.994914619570
         O            0.849017984026     1.003082832264     1.197753729482    15.994914619570
         O            0.843153984026     0.910922832264    -1.273502270518    15.994914619570
         O            1.771345984026    -1.172030167736     0.039428729482    15.994914619570
         C           -1.838554015974     0.332377832264    -0.003403270518    12.000000000000
         C           -3.114570015974    -0.474726167736     0.021198729482    12.000000000000
         H           -1.759402015974     0.991785832264     0.865512729482     1.007825032230
         H           -1.760277015974     0.938573832264    -0.910459270518     1.007825032230
         H           -3.975842015974     0.198236832264     0.001919729482     1.007825032230
         H           -3.165005015974    -1.134595167736    -0.846517270518     1.007825032230
         H           -3.163884015974    -1.082268167736     0.926458729482     1.007825032230
         H            1.392359984026     0.645918832264     1.923848729482     1.007825032230
         H            1.371731984026     0.494736832264    -1.978771270518     1.007825032230

  Basis Set: AUG-CC-PVTZ
    Blend: AUG-CC-PVTZ
  Basis Set: (AUG-CC-PVTZ AUX)
    Blend: AUG-CC-PVTZ-JKFIT
	 Reference Energy          =    -720.2735761229478157 [Eh]
	 Singles Energy            =      -0.0000000000000000 [Eh]
	 Same-Spin Energy          =      -0.4046259320723716 [Eh]
	 Opposite-Spin Energy      =      -1.2243411190811881 [Eh]
	 Correlation Energy        =      -1.6289670511535599 [Eh]
	 Total Energy              =    -721.9025431741014245 [Eh]

	 ================> DF-SCS-MP2 Energies <==================
	-----------------------------------------------------------
	 SCS Same-Spin Scale       =       0.3333333333333333 [-]
	 SCS Opposite-Spin Scale   =       1.2000000000000000 [-]
	 SCS Same-Spin Energy      =      -0.1348753106907905 [Eh]
	 SCS Opposite-Spin Energy  =      -1.4692093428974258 [Eh]
	 SCS Correlation Energy    =      -1.6040846535882163 [Eh]
	 SCS Total Energy          =    -721.8776607765360041 [Eh]
	-----------------------------------------------------------

  Dipole Moment: [D]
     X:    -3.8803      Y:     1.7241      Z:    -0.0560     Total:     4.2464

*** Psi4 exiting successfully. Buy a developer a beer!
