                               Psi4 1.3.2 release

  ==> Input File <==

--------------------------------------------------------------------------
#psi4
#
memory 32 gb

molecule  {
0 1
  P        0.7984170    -0.0731530     0.0007800
  O       -0.7254025    -0.5668522     0.0674575
  O        0.8185548     1.0014954     1.2084578
  O        0.8671220     0.9192840    -1.2738770
  O        1.7953140    -1.1636690     0.0390540
  C       -1.8145860     0.3407390    -0.0037780
  C       -3.0906020    -0.4663650     0.0208240
  H       -1.7354340     1.0001470     0.8651380
  H       -1.7363090     0.9469350    -0.9108340
  H       -3.9518740     0.2065980     0.0015450
  H       -3.1410370    -1.1262340    -0.8468920
  H       -3.1399160    -1.0739070     0.9260840
  H        1.4163280     0.6542800     1.9234740
  H        1.3957000     0.5030980    -1.9791460
units angstrom
no_reorient  #important for SAPT in psi4, default
symmetry c1  #important for SAPT in psi4, default
}

set PROPERTIES_ORIGIN ["COM"]
properties('MP2/aug-cc-pvtz', properties = ['dipole'])
--------------------------------------------------------------------------

    Molecular point group: c1
  Charge       = 0
  Multiplicity = 1
  Basis Set: AUG-CC-PVTZ
    Blend: AUG-CC-PVTZ
  Basis Set: (AUG-CC-PVTZ AUX)
    Blend: AUG-CC-PVTZ-JKFIT

    Orbital Energies [Eh]
    ---------------------

    Doubly Occupied:

       1A    -80.116432     2A    -20.613711     3A    -20.610460
       4A    -20.590645     5A    -20.524468     6A    -11.297244
       7A    -11.227680     8A     -7.631857     9A     -5.530226
      10A     -5.530014    11A     -5.528972    12A     -1.456255
      13A     -1.389889    14A     -1.382469    15A     -1.304107
      16A     -1.038164    17A     -0.874997    18A     -0.843821
      19A     -0.733809    20A     -0.727040    21A     -0.679441
      22A     -0.669297    23A     -0.646446    24A     -0.619986
      25A     -0.585644    26A     -0.568117    27A     -0.564892
      28A     -0.544555    29A     -0.531319    30A     -0.501878
      31A     -0.481688    32A     -0.479014    33A     -0.471441

  @DF-RHF Final Energy:  -720.30118967537430

   => Energetics <=

    Nuclear Repulsion Energy =            440.1569811501552181
    One-Electron Energy =               -1868.3243835730743285
    Two-Electron Energy =                 707.8662127475448642
    Total Energy =                       -720.3011896753743031
  Basis Set: (AUG-CC-PVTZ AUX)
    Blend: AUG-CC-PVTZ-RI
    Molecular point group: c1

    Geometry (in Angstrom), charge = 0, multiplicity = 1:

       Center              X                  Y                   Z               Mass
    ------------   -----------------  -----------------  -----------------  -----------------
         P            0.806628011734    -0.076243576866    -0.006086116298    30.973761998420
         O           -0.717191488266    -0.569942776866     0.060591383702    15.994914619570
         O            0.826765811734     0.998404823134     1.201591683702    15.994914619570
         O            0.875333011734     0.916193423134    -1.280743116298    15.994914619570
         O            1.803525011734    -1.166759576866     0.032187883702    15.994914619570
         C           -1.806374988266     0.337648423134    -0.010644116298    12.000000000000
         C           -3.082390988266    -0.469455576866     0.013957883702    12.000000000000
         H           -1.727222988266     0.997056423134     0.858271883702     1.007825032230
         H           -1.728097988266     0.943844423134    -0.917700116298     1.007825032230
         H           -3.943662988266     0.203507423134    -0.005321116298     1.007825032230
         H           -3.132825988266    -1.129324576866    -0.853758116298     1.007825032230
         H           -3.131704988266    -1.076997576866     0.919217883702     1.007825032230
         H            1.424539011734     0.651189423134     1.916607883702     1.007825032230
         H            1.403911011734     0.500007423134    -1.986012116298     1.007825032230

  Basis Set: AUG-CC-PVTZ
    Blend: AUG-CC-PVTZ
  Basis Set: (AUG-CC-PVTZ AUX)
    Blend: AUG-CC-PVTZ-JKFIT
	 Reference Energy          =    -720.3011896753743031 [Eh]
	 Singles Energy            =      -0.0000000000000000 [Eh]
	 Same-Spin Energy          =      -0.4074038067489696 [Eh]
	 Opposite-Spin Energy      =      -1.2304772429899846 [Eh]
	 Correlation Energy        =      -1.6378810497389542 [Eh]
	 Total Energy              =    -721.9390707251133108 [Eh]

	 ================> DF-SCS-MP2 Energies <==================
	-----------------------------------------------------------
	 SCS Same-Spin Scale       =       0.3333333333333333 [-]
	 SCS Opposite-Spin Scale   =       1.2000000000000000 [-]
	 SCS Same-Spin Energy      =      -0.1358012689163232 [Eh]
	 SCS Opposite-Spin Energy  =      -1.4765726915879815 [Eh]
	 SCS Correlation Energy    =      -1.6123739605043048 [Eh]
	 SCS Total Energy          =    -721.9135636358786314 [Eh]
	-----------------------------------------------------------

  Dipole Moment: [D]
     X:    -1.7180      Y:     1.7916      Z:    -0.1926     Total:     2.4897

*** Psi4 exiting successfully. Buy a developer a beer!
