                               Psi4 1.3.2 release

  ==> Input File <==

--------------------------------------------------------------------------
#psi4
#
memory 32 gb

molecule  {
0 1
  P        0.7984170    -0.0731530     0.0007800
  O       -0.7326686    -0.5480378     0.0225012
  O        0.8729860     1.0114440     1.1973790
  O        0.8671220     0.9192840    -1.2738770
  O        1.8327884    -1.1282414     0.0376309
  C       -1.8145860     0.3407390    -0.0037780
  C       -3.0906020    -0.4663650     0.0208240
  H       -1.7354340     1.0001470     0.8651380
  H       -1.7363090     0.9469350    -0.9108340
  H       -3.9518740     0.2065980     0.0015450
  H       -3.1410370    -1.1262340    -0.8468920
  H       -3.1399160    -1.0739070     0.9260840
  H        1.4163280     0.6542800     1.9234740
  H        1.3957000     0.5030980    -1.9791460
units angstrom
no_reorient  #important for SAPT in psi4, default
symmetry c1  #important for SAPT in psi4, default
}

set PROPERTIES_ORIGIN ["COM"]
properties('MP2/aug-cc-pvtz', properties = ['dipole'])
--------------------------------------------------------------------------

    Molecular point group: c1
  Charge       = 0
  Multiplicity = 1
  Basis Set: AUG-CC-PVTZ
    Blend: AUG-CC-PVTZ
  Basis Set: (AUG-CC-PVTZ AUX)
    Blend: AUG-CC-PVTZ-JKFIT

    Orbital Energies [Eh]
    ---------------------

    Doubly Occupied:

       1A    -80.117971     2A    -20.608888     3A    -20.608844
       4A    -20.595475     5A    -20.524643     6A    -11.297922
       7A    -11.228736     8A     -7.633203     9A     -5.531571
      10A     -5.531452    11A     -5.530284    12A     -1.458866
      13A     -1.394181    14A     -1.385428    15A     -1.304370
      16A     -1.040295    17A     -0.880256    18A     -0.845284
      19A     -0.736118    20A     -0.731620    21A     -0.678290
      22A     -0.674035    23A     -0.644892    24A     -0.624673
      25A     -0.586725    26A     -0.568698    27A     -0.564821
      28A     -0.546115    29A     -0.532741    30A     -0.501369
      31A     -0.480755    32A     -0.480081    33A     -0.472259

  @DF-RHF Final Energy:  -720.30294630134199

   => Energetics <=

    Nuclear Repulsion Energy =            440.2265970891778579
    One-Electron Energy =               -1868.3773644497498481
    Two-Electron Energy =                 707.8478210592300002
    Total Energy =                       -720.3029463013419900
  Basis Set: (AUG-CC-PVTZ AUX)
    Blend: AUG-CC-PVTZ-RI
    Molecular point group: c1

    Geometry (in Angstrom), charge = 0, multiplicity = 1:

       Center              X                  Y                   Z               Mass
    ------------   -----------------  -----------------  -----------------  -----------------
         P            0.795884253613    -0.084391643431     0.001207369639    30.973761998420
         O           -0.735201346387    -0.559276443431     0.022928569639    15.994914619570
         O            0.870453253613     1.000205356569     1.197806369639    15.994914619570
         O            0.864589253613     0.908045356569    -1.273449630361    15.994914619570
         O            1.830255653613    -1.139480043431     0.038058269639    15.994914619570
         C           -1.817118746387     0.329500356569    -0.003350630361    12.000000000000
         C           -3.093134746387    -0.477603643431     0.021251369639    12.000000000000
         H           -1.737966746387     0.988908356569     0.865565369639     1.007825032230
         H           -1.738841746387     0.935696356569    -0.910406630361     1.007825032230
         H           -3.954406746387     0.195359356569     0.001972369639     1.007825032230
         H           -3.143569746387    -1.137472643431    -0.846464630361     1.007825032230
         H           -3.142448746387    -1.085145643431     0.926511369639     1.007825032230
         H            1.413795253613     0.643041356569     1.923901369639     1.007825032230
         H            1.393167253613     0.491859356569    -1.978718630361     1.007825032230

  Basis Set: AUG-CC-PVTZ
    Blend: AUG-CC-PVTZ
  Basis Set: (AUG-CC-PVTZ AUX)
    Blend: AUG-CC-PVTZ-JKFIT
	 Reference Energy          =    -720.3029463013419900 [Eh]
	 Singles Energy            =      -0.0000000000000000 [Eh]
	 Same-Spin Energy          =      -0.4069763657497781 [Eh]
	 Opposite-Spin Energy      =      -1.2293194472700304 [Eh]
	 Correlation Energy        =      -1.6362958130198084 [Eh]
	 Total Energy              =    -721.9392421143618321 [Eh]

	 ================> DF-SCS-MP2 Energies <==================
	-----------------------------------------------------------
	 SCS Same-Spin Scale       =       0.3333333333333333 [-]
	 SCS Opposite-Spin Scale   =       1.2000000000000000 [-]
	 SCS Same-Spin Energy      =      -0.1356587885832594 [Eh]
	 SCS Opposite-Spin Energy  =      -1.4751833367240363 [Eh]
	 SCS Correlation Energy    =      -1.6108421253072958 [Eh]
	 SCS Total Energy          =    -721.9137884266492620 [Eh]
	-----------------------------------------------------------

  Dipole Moment: [D]
     X:    -1.9326      Y:     1.6021      Z:    -0.0580     Total:     2.5110

*** Psi4 exiting successfully. Buy a developer a beer!
