                               Psi4 1.3.2 release

  ==> Input File <==

--------------------------------------------------------------------------
#psi4
#
memory 32 gb

molecule  {
0 1
  P        0.7984170    -0.0731530     0.0007800
  O       -0.7407317    -0.5212622     0.0215193
  O        0.8729860     1.0114440     1.1973790
  O        0.8671220     0.9192840    -1.2738770
  O        1.8510558    -1.1100428     0.0369024
  C       -1.8145860     0.3407390    -0.0037780
  C       -3.0906020    -0.4663650     0.0208240
  H       -1.7354340     1.0001470     0.8651380
  H       -1.7363090     0.9469350    -0.9108340
  H       -3.9518740     0.2065980     0.0015450
  H       -3.1410370    -1.1262340    -0.8468920
  H       -3.1399160    -1.0739070     0.9260840
  H        1.4163280     0.6542800     1.9234740
  H        1.3957000     0.5030980    -1.9791460
units angstrom
no_reorient  #important for SAPT in psi4, default
symmetry c1  #important for SAPT in psi4, default
}

set PROPERTIES_ORIGIN ["COM"]
properties('MP2/aug-cc-pvtz', properties = ['dipole'])
--------------------------------------------------------------------------

    Molecular point group: c1
  Charge       = 0
  Multiplicity = 1
  Basis Set: AUG-CC-PVTZ
    Blend: AUG-CC-PVTZ
  Basis Set: (AUG-CC-PVTZ AUX)
    Blend: AUG-CC-PVTZ-JKFIT

    Orbital Energies [Eh]
    ---------------------

    Doubly Occupied:

       1A    -80.119766     2A    -20.608002     3A    -20.607957
       4A    -20.595628     5A    -20.527341     6A    -11.295712
       7A    -11.227929     8A     -7.634844     9A     -5.533216
      10A     -5.533195    11A     -5.531876    12A     -1.461815
      13A     -1.398760    14A     -1.384809    15A     -1.306507
      16A     -1.040288    17A     -0.884376    18A     -0.843978
      19A     -0.738172    20A     -0.732663    21A     -0.679111
      22A     -0.676093    23A     -0.644791    24A     -0.627294
      25A     -0.587455    26A     -0.568585    27A     -0.565975
      28A     -0.546567    29A     -0.533016    30A     -0.497624
      31A     -0.482720    32A     -0.480400    33A     -0.471017

  @DF-RHF Final Energy:  -720.30064213970468

   => Energetics <=

    Nuclear Repulsion Energy =            440.6586491730438411
    One-Electron Energy =               -1869.1836232168900551
    Two-Electron Energy =                 708.2243319041415361
    Total Energy =                       -720.3006421397046779
  Basis Set: (AUG-CC-PVTZ AUX)
    Blend: AUG-CC-PVTZ-RI
    Molecular point group: c1

    Geometry (in Angstrom), charge = 0, multiplicity = 1:

       Center              X                  Y                   Z               Mass
    ------------   -----------------  -----------------  -----------------  -----------------
         P            0.794588965586    -0.090100466457     0.001424480135    30.973761998420
         O           -0.744559734414    -0.538209666457     0.022163780135    15.994914619570
         O            0.869157965586     0.994496533543     1.198023480135    15.994914619570
         O            0.863293965586     0.902336533543    -1.273232519865    15.994914619570
         O            1.847227765585    -1.126990266457     0.037546880135    15.994914619570
         C           -1.818414034415     0.323791533543    -0.003133519865    12.000000000000
         C           -3.094430034415    -0.483312466457     0.021468480135    12.000000000000
         H           -1.739262034415     0.983199533543     0.865782480135     1.007825032230
         H           -1.740137034415     0.929987533543    -0.910189519865     1.007825032230
         H           -3.955702034415     0.189650533543     0.002189480135     1.007825032230
         H           -3.144865034414    -1.143181466457    -0.846247519865     1.007825032230
         H           -3.143744034415    -1.090854466457     0.926728480135     1.007825032230
         H            1.412499965585     0.637332533543     1.924118480135     1.007825032230
         H            1.391871965585     0.486150533543    -1.978501519865     1.007825032230

  Basis Set: AUG-CC-PVTZ
    Blend: AUG-CC-PVTZ
  Basis Set: (AUG-CC-PVTZ AUX)
    Blend: AUG-CC-PVTZ-JKFIT
	 Reference Energy          =    -720.3006421397046779 [Eh]
	 Singles Energy            =      -0.0000000000000000 [Eh]
	 Same-Spin Energy          =      -0.4070066927227221 [Eh]
	 Opposite-Spin Energy      =      -1.2290588515511236 [Eh]
	 Correlation Energy        =      -1.6360655442738457 [Eh]
	 Total Energy              =    -721.9367076839785113 [Eh]

	 ================> DF-SCS-MP2 Energies <==================
	-----------------------------------------------------------
	 SCS Same-Spin Scale       =       0.3333333333333333 [-]
	 SCS Opposite-Spin Scale   =       1.2000000000000000 [-]
	 SCS Same-Spin Energy      =      -0.1356688975742407 [Eh]
	 SCS Opposite-Spin Energy  =      -1.4748706218613483 [Eh]
	 SCS Correlation Energy    =      -1.6105395194355889 [Eh]
	 SCS Total Energy          =    -721.9111816591403112 [Eh]
	-----------------------------------------------------------

  Dipole Moment: [D]
     X:    -1.8818      Y:     1.4640      Z:    -0.0531     Total:     2.3849

*** Psi4 exiting successfully. Buy a developer a beer!
