                               Psi4 1.3.2 release

  ==> Input File <==

--------------------------------------------------------------------------
#psi4
#
memory 32 gb

molecule  {
0 1
  P        0.7984170    -0.0731530     0.0007800
  O       -0.8095556    -0.6340810     0.0259211
  O        0.8729860     1.0114440     1.1973790
  O        0.8671220     0.9192840    -1.2738770
  O        1.7953140    -1.1636690     0.0390540
  C       -1.8145860     0.3407390    -0.0037780
  C       -3.0906020    -0.4663650     0.0208240
  H       -1.7354340     1.0001470     0.8651380
  H       -1.7363090     0.9469350    -0.9108340
  H       -3.9518740     0.2065980     0.0015450
  H       -3.1410370    -1.1262340    -0.8468920
  H       -3.1399160    -1.0739070     0.9260840
  H        1.4163280     0.6542800     1.9234740
  H        1.3957000     0.5030980    -1.9791460
units angstrom
no_reorient  #important for SAPT in psi4, default
symmetry c1  #important for SAPT in psi4, default
}

set PROPERTIES_ORIGIN ["COM"]
properties('MP2/aug-cc-pvtz', properties = ['dipole'])
--------------------------------------------------------------------------

    Molecular point group: c1
  Charge       = 0
  Multiplicity = 1
  Basis Set: AUG-CC-PVTZ
    Blend: AUG-CC-PVTZ
  Basis Set: (AUG-CC-PVTZ AUX)
    Blend: AUG-CC-PVTZ-JKFIT

    Orbital Energies [Eh]
    ---------------------

    Doubly Occupied:

       1A    -80.128310     2A    -20.619676     3A    -20.619651
       4A    -20.593980     5A    -20.529395     6A    -11.288985
       7A    -11.221432     8A     -7.642389     9A     -5.540769
      10A     -5.540206    11A     -5.539496    12A     -1.454157
      13A     -1.394255    14A     -1.383130    15A     -1.308852
      16A     -1.026503    17A     -0.866532    18A     -0.850254
      19A     -0.732832    20A     -0.729033    21A     -0.683615
      22A     -0.670646    23A     -0.651248    24A     -0.617668
      25A     -0.585673    26A     -0.568780    27A     -0.566695
      28A     -0.538883    29A     -0.532328    30A     -0.499385
      31A     -0.483741    32A     -0.476347    33A     -0.468142

  @DF-RHF Final Energy:  -720.29003323238135

   => Energetics <=

    Nuclear Repulsion Energy =            436.9970981135089687
    One-Electron Energy =               -1861.8682848851685776
    Two-Electron Energy =                 704.5811535392783753
    Total Energy =                       -720.2900332323813473
  Basis Set: (AUG-CC-PVTZ AUX)
    Blend: AUG-CC-PVTZ-RI
    Molecular point group: c1

    Geometry (in Angstrom), charge = 0, multiplicity = 1:

       Center              X                  Y                   Z               Mass
    ------------   -----------------  -----------------  -----------------  -----------------
         P            0.810400776277    -0.068972685450     0.000592620962    30.973761998420
         O           -0.797571823723    -0.629900685450     0.025733720962    15.994914619570
         O            0.884969776277     1.015624314550     1.197191620962    15.994914619570
         O            0.879105776277     0.923464314550    -1.274064379038    15.994914619570
         O            1.807297776277    -1.159488685450     0.038866620962    15.994914619570
         C           -1.802602223723     0.344919314550    -0.003965379038    12.000000000000
         C           -3.078618223723    -0.462184685450     0.020636620962    12.000000000000
         H           -1.723450223723     1.004327314550     0.864950620962     1.007825032230
         H           -1.724325223723     0.951115314550    -0.911021379038     1.007825032230
         H           -3.939890223723     0.210778314550     0.001357620962     1.007825032230
         H           -3.129053223723    -1.122053685450    -0.847079379038     1.007825032230
         H           -3.127932223723    -1.069726685450     0.925896620962     1.007825032230
         H            1.428311776277     0.658460314550     1.923286620962     1.007825032230
         H            1.407683776277     0.507278314550    -1.979333379038     1.007825032230

  Basis Set: AUG-CC-PVTZ
    Blend: AUG-CC-PVTZ
  Basis Set: (AUG-CC-PVTZ AUX)
    Blend: AUG-CC-PVTZ-JKFIT
	 Reference Energy          =    -720.2900332323813473 [Eh]
	 Singles Energy            =      -0.0000000000000000 [Eh]
	 Same-Spin Energy          =      -0.4084589579682300 [Eh]
	 Opposite-Spin Energy      =      -1.2334159973914978 [Eh]
	 Correlation Energy        =      -1.6418749553597278 [Eh]
	 Total Energy              =    -721.9319081877411008 [Eh]

	 ================> DF-SCS-MP2 Energies <==================
	-----------------------------------------------------------
	 SCS Same-Spin Scale       =       0.3333333333333333 [-]
	 SCS Opposite-Spin Scale   =       1.2000000000000000 [-]
	 SCS Same-Spin Energy      =      -0.1361529859894100 [Eh]
	 SCS Opposite-Spin Energy  =      -1.4800991968697972 [Eh]
	 SCS Correlation Energy    =      -1.6162521828592071 [Eh]
	 SCS Total Energy          =    -721.9062854152405180 [Eh]
	-----------------------------------------------------------

  Dipole Moment: [D]
     X:    -1.2329      Y:     1.9271      Z:    -0.0726     Total:     2.2889

*** Psi4 exiting successfully. Buy a developer a beer!
