                               Psi4 1.3.2 release

  ==> Input File <==

--------------------------------------------------------------------------
#psi4
#
memory 32 gb

molecule  {
0 1
  P        0.7903129    -0.0643096    -0.0066474
  O       -0.7151460    -0.6011470     0.0244450
  O        0.8729860     1.0114440     1.1973790
  O        0.8671220     0.9192840    -1.2738770
  O        1.7953140    -1.1636690     0.0390540
  C       -1.8145860     0.3407390    -0.0037780
  C       -3.0906020    -0.4663650     0.0208240
  H       -1.7354340     1.0001470     0.8651380
  H       -1.7363090     0.9469350    -0.9108340
  H       -3.9518740     0.2065980     0.0015450
  H       -3.1410370    -1.1262340    -0.8468920
  H       -3.1399160    -1.0739070     0.9260840
  H        1.4150585     0.6614354     1.9278939
  H        1.3957000     0.5030980    -1.9791460
units angstrom
no_reorient  #important for SAPT in psi4, default
symmetry c1  #important for SAPT in psi4, default
}

set PROPERTIES_ORIGIN ["COM"]
properties('MP2/aug-cc-pvtz', properties = ['dipole'])
--------------------------------------------------------------------------

    Molecular point group: c1
  Charge       = 0
  Multiplicity = 1
  Basis Set: AUG-CC-PVTZ
    Blend: AUG-CC-PVTZ
  Basis Set: (AUG-CC-PVTZ AUX)
    Blend: AUG-CC-PVTZ-JKFIT

    Orbital Energies [Eh]
    ---------------------

    Doubly Occupied:

       1A    -80.115022     2A    -20.613252     3A    -20.609556
       4A    -20.596042     5A    -20.516218     6A    -11.303233
       7A    -11.230875     8A     -7.630324     9A     -5.528723
      10A     -5.528415    11A     -5.527427    12A     -1.456409
      13A     -1.389722    14A     -1.385687    15A     -1.291959
      16A     -1.041478    17A     -0.874096    18A     -0.850290
      19A     -0.733903    20A     -0.732568    21A     -0.676895
      22A     -0.671622    23A     -0.645078    24A     -0.621482
      25A     -0.585379    26A     -0.570167    27A     -0.560716
      28A     -0.543167    29A     -0.533196    30A     -0.509761
      31A     -0.485100    32A     -0.469155    33A     -0.466568

  @DF-RHF Final Energy:  -720.30331768929500

   => Energetics <=

    Nuclear Repulsion Energy =            439.5278302757575375
    One-Electron Energy =               -1867.0753335591259656
    Two-Electron Energy =                 707.2441855940733149
    Total Energy =                       -720.3033176892949996
  Basis Set: (AUG-CC-PVTZ AUX)
    Blend: AUG-CC-PVTZ-RI
    Molecular point group: c1

    Geometry (in Angstrom), charge = 0, multiplicity = 1:

       Center              X                  Y                   Z               Mass
    ------------   -----------------  -----------------  -----------------  -----------------
         P            0.792314947821    -0.066540783303    -0.004857049525    30.973761998420
         O           -0.713143952179    -0.603378183303     0.026235350475    15.994914619570
         O            0.874988047821     1.009212816697     1.199169350475    15.994914619570
         O            0.869124047821     0.917052816697    -1.272086649525    15.994914619570
         O            1.797316047821    -1.165900183303     0.040844350475    15.994914619570
         C           -1.812583952179     0.338507816697    -0.001987649525    12.000000000000
         C           -3.088599952179    -0.468596183303     0.022614350475    12.000000000000
         H           -1.733431952179     0.997915816697     0.866928350475     1.007825032230
         H           -1.734306952179     0.944703816697    -0.909043649525     1.007825032230
         H           -3.949871952179     0.204366816697     0.003335350475     1.007825032230
         H           -3.139034952179    -1.128465183303    -0.845101649525     1.007825032230
         H           -3.137913952179    -1.076138183303     0.927874350475     1.007825032230
         H            1.417060547821     0.659204216697     1.929684250475     1.007825032230
         H            1.397702047821     0.500866816697    -1.977355649525     1.007825032230

  Basis Set: AUG-CC-PVTZ
    Blend: AUG-CC-PVTZ
  Basis Set: (AUG-CC-PVTZ AUX)
    Blend: AUG-CC-PVTZ-JKFIT
	 Reference Energy          =    -720.3033176892949996 [Eh]
	 Singles Energy            =      -0.0000000000000000 [Eh]
	 Same-Spin Energy          =      -0.4071380790341117 [Eh]
	 Opposite-Spin Energy      =      -1.2301694185233982 [Eh]
	 Correlation Energy        =      -1.6373074975575099 [Eh]
	 Total Energy              =    -721.9406251868524578 [Eh]

	 ================> DF-SCS-MP2 Energies <==================
	-----------------------------------------------------------
	 SCS Same-Spin Scale       =       0.3333333333333333 [-]
	 SCS Opposite-Spin Scale   =       1.2000000000000000 [-]
	 SCS Same-Spin Energy      =      -0.1357126930113706 [Eh]
	 SCS Opposite-Spin Energy  =      -1.4762033022280778 [Eh]
	 SCS Correlation Energy    =      -1.6119159952394484 [Eh]
	 SCS Total Energy          =    -721.9152336845344280 [Eh]
	-----------------------------------------------------------

  Dipole Moment: [D]
     X:    -2.1152      Y:     1.9686      Z:    -0.1371     Total:     2.8928

*** Psi4 exiting successfully. Buy a developer a beer!
