                               Psi4 1.3.2 release

  ==> Input File <==

--------------------------------------------------------------------------
#psi4
#
memory 32 gb

molecule  {
0 1
  P        0.7984170    -0.0731530     0.0007800
  O       -0.7109616    -0.5958577     0.0351308
  O        0.8729860     1.0114440     1.1973790
  O        0.8671220     0.9192840    -1.2738770
  O        1.7953140    -1.1636690     0.0390540
  C       -1.8145860     0.3407390    -0.0037780
  C       -3.0906020    -0.4663650     0.0208240
  H       -1.7275488     0.9955207     0.8678782
  H       -1.7363090     0.9469350    -0.9108340
  H       -3.9518740     0.2065980     0.0015450
  H       -3.1410370    -1.1262340    -0.8468920
  H       -3.1399160    -1.0739070     0.9260840
  H        1.4163280     0.6542800     1.9234740
  H        1.3957000     0.5030980    -1.9791460
units angstrom
no_reorient  #important for SAPT in psi4, default
symmetry c1  #important for SAPT in psi4, default
}

set PROPERTIES_ORIGIN ["COM"]
properties('MP2/aug-cc-pvtz', properties = ['dipole'])
--------------------------------------------------------------------------

    Molecular point group: c1
  Charge       = 0
  Multiplicity = 1
  Basis Set: AUG-CC-PVTZ
    Blend: AUG-CC-PVTZ
  Basis Set: (AUG-CC-PVTZ AUX)
    Blend: AUG-CC-PVTZ-JKFIT

    Orbital Energies [Eh]
    ---------------------

    Doubly Occupied:

       1A    -80.113926     2A    -20.610637     3A    -20.609657
       4A    -20.594378     5A    -20.518867     6A    -11.302778
       7A    -11.230733     8A     -7.629527     9A     -5.527880
      10A     -5.527594    11A     -5.526704    12A     -1.454861
      13A     -1.386387    14A     -1.384929    15A     -1.299426
      16A     -1.041155    17A     -0.873908    18A     -0.847374
      19A     -0.731419    20A     -0.730134    21A     -0.676585
      22A     -0.670455    23A     -0.644931    24A     -0.620341
      25A     -0.584637    26A     -0.569051    27A     -0.562722
      28A     -0.544714    29A     -0.532060    30A     -0.508453
      31A     -0.484763    32A     -0.474084    33A     -0.470607

  @DF-RHF Final Energy:  -720.30405461685405

   => Energetics <=

    Nuclear Repulsion Energy =            439.6156306116937458
    One-Electron Energy =               -1867.2680191890087826
    Two-Electron Energy =                 707.3483339604608773
    Total Energy =                       -720.3040546168540459
  Basis Set: (AUG-CC-PVTZ AUX)
    Blend: AUG-CC-PVTZ-RI
    Molecular point group: c1

    Geometry (in Angstrom), charge = 0, multiplicity = 1:

       Center              X                  Y                   Z               Mass
    ------------   -----------------  -----------------  -----------------  -----------------
         P            0.797822630029    -0.073787577971    -0.000598333376    30.973761998420
         O           -0.711555969971    -0.596492277971     0.033752466624    15.994914619570
         O            0.872391630029     1.010809422029     1.196000666624    15.994914619570
         O            0.866527630029     0.918649422029    -1.275255333376    15.994914619570
         O            1.794719630029    -1.164303577971     0.037675666624    15.994914619570
         C           -1.815180369971     0.340104422029    -0.005156333376    12.000000000000
         C           -3.091196369971    -0.466999577971     0.019445666624    12.000000000000
         H           -1.728143169971     0.994886122029     0.866499866624     1.007825032230
         H           -1.736903369971     0.946300422029    -0.912212333376     1.007825032230
         H           -3.952468369971     0.205963422029     0.000166666624     1.007825032230
         H           -3.141631369971    -1.126868577971    -0.848270333376     1.007825032230
         H           -3.140510369971    -1.074541577971     0.924705666624     1.007825032230
         H            1.415733630029     0.653645422029     1.922095666624     1.007825032230
         H            1.395105630029     0.502463422029    -1.980524333376     1.007825032230

  Basis Set: AUG-CC-PVTZ
    Blend: AUG-CC-PVTZ
  Basis Set: (AUG-CC-PVTZ AUX)
    Blend: AUG-CC-PVTZ-JKFIT
	 Reference Energy          =    -720.3040546168540459 [Eh]
	 Singles Energy            =      -0.0000000000000000 [Eh]
	 Same-Spin Energy          =      -0.4069889431269479 [Eh]
	 Opposite-Spin Energy      =      -1.2299359472585414 [Eh]
	 Correlation Energy        =      -1.6369248903854894 [Eh]
	 Total Energy              =    -721.9409795072394900 [Eh]

	 ================> DF-SCS-MP2 Energies <==================
	-----------------------------------------------------------
	 SCS Same-Spin Scale       =       0.3333333333333333 [-]
	 SCS Opposite-Spin Scale   =       1.2000000000000000 [-]
	 SCS Same-Spin Energy      =      -0.1356629810423159 [Eh]
	 SCS Opposite-Spin Energy  =      -1.4759231367102497 [Eh]
	 SCS Correlation Energy    =      -1.6115861177525657 [Eh]
	 SCS Total Energy          =    -721.9156407346066544 [Eh]
	-----------------------------------------------------------

  Dipole Moment: [D]
     X:    -2.0545      Y:     1.8543      Z:    -0.0935     Total:     2.7691

*** Psi4 exiting successfully. Buy a developer a beer!
