                               Psi4 1.4a3.dev225

  ==> Input File <==

--------------------------------------------------------------------------
#psi4
#
memory 32 gb

molecule  {
0 1
  P        0.8768730    -0.1227020    -0.0963880
  O       -0.6616900    -0.4669690    -0.3477670
  O        1.0437430     0.0794150     1.5121170
  O        0.9276490     1.4110650    -0.6042510
  O        1.8284920    -1.0938460    -0.6752860
  C       -1.6878229     0.4017036     0.1537460
  C       -3.0206860    -0.2869630    -0.0679060
  H       -1.5201960     0.5987390     1.2233000
  H       -1.6444250     1.3614050    -0.3799660
  H       -3.8417660     0.3429090     0.2865800
  H       -3.1647720    -0.4853110    -1.1316920
  H       -3.0471290    -1.2354240     0.4720910
  H        1.4666950    -0.7151170     1.8872290
  H        1.8298220     1.7749190    -0.5472100
units angstrom
no_reorient  #important for SAPT in psi4, default
symmetry c1  #important for SAPT in psi4, default
}

set PROPERTIES_ORIGIN ["COM"]
properties('MP2/aug-cc-pvtz', properties = ['dipole'])
--------------------------------------------------------------------------

    Molecular point group: c1
  Charge       = 0
  Multiplicity = 1
  Basis Set: AUG-CC-PVTZ
    Blend: AUG-CC-PVTZ
  Basis Set: (AUG-CC-PVTZ AUX)
    Blend: AUG-CC-PVTZ-JKFIT

    Orbital Energies [Eh]
    ---------------------

    Doubly Occupied:

       1A    -80.116084     2A    -20.613461     3A    -20.611258
       4A    -20.598907     5A    -20.518715     6A    -11.302938
       7A    -11.229833     8A     -7.631362     9A     -5.529801
      10A     -5.529591    11A     -5.528327    12A     -1.456889
      13A     -1.389449    14A     -1.385568    15A     -1.299310
      16A     -1.038886    17A     -0.874385    18A     -0.843480
      19A     -0.755960    20A     -0.722951    21A     -0.675318
      22A     -0.668805    23A     -0.640445    24A     -0.609251
      25A     -0.590846    26A     -0.570814    27A     -0.559836
      28A     -0.547046    29A     -0.536857    30A     -0.507649
      31A     -0.483180    32A     -0.473731    33A     -0.469293

  @DF-RHF Final Energy:  -720.30306855150923

   => Energetics <=

    Nuclear Repulsion Energy =            439.7174158520739411
    One-Electron Energy =               -1867.4205192475853892
    Two-Electron Energy =                 707.4000348440021071
    Total Energy =                       -720.3030685515092273
  Basis Set: (AUG-CC-PVTZ AUX)
    Blend: AUG-CC-PVTZ-RI
    Molecular point group: c1

    Geometry (in Angstrom), charge = 0, multiplicity = 1:

       Center              X                  Y                   Z               Mass
    ------------   -----------------  -----------------  -----------------  -----------------
         P            0.790738247763    -0.107673707499    -0.080727690886    30.973761998420
         O           -0.747824752237    -0.451940707499    -0.332106690886    15.994914619570
         O            0.957608247763     0.094443292501     1.527777309114    15.994914619570
         O            0.841514247763     1.426093292501    -0.588590690886    15.994914619570
         O            1.742357247763    -1.078817707499    -0.659625690886    15.994914619570
         C           -1.773957652237     0.416731892501     0.169406309114    12.000000000000
         C           -3.106820752237    -0.271934707499    -0.052245690886    12.000000000000
         H           -1.606330752237     0.613767292501     1.238960309114     1.007825032230
         H           -1.730559752237     1.376433292501    -0.364305690886     1.007825032230
         H           -3.927900752237     0.357937292501     0.302240309114     1.007825032230
         H           -3.250906752237    -0.470282707499    -1.116031690886     1.007825032230
         H           -3.133263752237    -1.220395707499     0.487751309114     1.007825032230
         H            1.380560247763    -0.700088707499     1.902889309114     1.007825032230
         H            1.743687247763     1.789947292501    -0.531549690886     1.007825032230

  Basis Set: AUG-CC-PVTZ
    Blend: AUG-CC-PVTZ
  Basis Set: (AUG-CC-PVTZ AUX)
    Blend: AUG-CC-PVTZ-JKFIT
	 Reference Energy          =    -720.3030685515092273 [Eh]
	 Singles Energy            =      -0.0000000000000000 [Eh]
	 Same-Spin Energy          =      -0.4072159332448320 [Eh]
	 Opposite-Spin Energy      =      -1.2305654461400546 [Eh]
	 Correlation Energy        =      -1.6377813793848865 [Eh]
	 Total Energy              =    -721.9408499308941600 [Eh]

	 ================> DF-SCS-MP2 Energies <==================
	-----------------------------------------------------------
	 SCS Same-Spin Scale       =       0.3333333333333333 [-]
	 SCS Opposite-Spin Scale   =       1.2000000000000000 [-]
	 SCS Same-Spin Energy      =      -0.1357386444149440 [Eh]
	 SCS Opposite-Spin Energy  =      -1.4766785353680654 [Eh]
	 SCS Correlation Energy    =      -1.6124171797830094 [Eh]
	 SCS Total Energy          =    -721.9154857312922786 [Eh]
	-----------------------------------------------------------

  Dipole Moment: [D]
     X:    -1.4658      Y:     2.1291      Z:     2.2008     Total:     3.3949

*** Psi4 exiting successfully. Buy a developer a beer!
