                               Psi4 1.3.2 release

  ==> Input File <==

--------------------------------------------------------------------------
#psi4
#
memory 32 gb

molecule  {
0 1
  P        0.8146416    -0.0905913     0.0159077
  O       -0.7151460    -0.6011470     0.0244450
  O        0.8729860     1.0114440     1.1973790
  O        0.8671220     0.9192840    -1.2738770
  O        1.7953140    -1.1636690     0.0390540
  C       -1.8145860     0.3407390    -0.0037780
  C       -3.0906020    -0.4663650     0.0208240
  H       -1.7354340     1.0001470     0.8651380
  H       -1.7363090     0.9469350    -0.9108340
  H       -3.9518740     0.2065980     0.0015450
  H       -3.1410370    -1.1262340    -0.8468920
  H       -3.1399160    -1.0739070     0.9260840
  H        1.4187428     0.6400514     1.9144687
  H        1.3957000     0.5030980    -1.9791460
units angstrom
no_reorient  #important for SAPT in psi4, default
symmetry c1  #important for SAPT in psi4, default
}

set PROPERTIES_ORIGIN ["COM"]
properties('MP2/aug-cc-pvtz', properties = ['dipole'])
--------------------------------------------------------------------------

    Molecular point group: c1
  Charge       = 0
  Multiplicity = 1
  Basis Set: AUG-CC-PVTZ
    Blend: AUG-CC-PVTZ
  Basis Set: (AUG-CC-PVTZ AUX)
    Blend: AUG-CC-PVTZ-JKFIT

    Orbital Energies [Eh]
    ---------------------

    Doubly Occupied:

       1A    -80.113906     2A    -20.613098     3A    -20.605431
       4A    -20.592069     5A    -20.525161     6A    -11.300475
       7A    -11.229028     8A     -7.629960     9A     -5.528225
      10A     -5.527888    11A     -5.527300    12A     -1.451718
      13A     -1.384943    14A     -1.377273    15A     -1.315099
      16A     -1.038593    17A     -0.870768    18A     -0.842951
      19A     -0.728160    20A     -0.723382    21A     -0.678108
      22A     -0.666863    23A     -0.645109    24A     -0.617282
      25A     -0.584274    26A     -0.567753    27A     -0.565783
      28A     -0.545072    29A     -0.529552    30A     -0.505254
      31A     -0.486821    32A     -0.484191    33A     -0.475796

  @DF-RHF Final Energy:  -720.30241535471987

   => Energetics <=

    Nuclear Repulsion Energy =            439.1629496408945670
    One-Electron Energy =               -1866.3761613191179549
    Two-Electron Energy =                 706.9107963235035186
    Total Energy =                       -720.3024153547198694
  Basis Set: (AUG-CC-PVTZ AUX)
    Blend: AUG-CC-PVTZ-RI
    Molecular point group: c1

    Geometry (in Angstrom), charge = 0, multiplicity = 1:

       Center              X                  Y                   Z               Mass
    ------------   -----------------  -----------------  -----------------  -----------------
         P            0.810634003058    -0.086191212642     0.012261213269    30.973761998420
         O           -0.719153596942    -0.596746912642     0.020798513269    15.994914619570
         O            0.868978403058     1.015844087358     1.193732513269    15.994914619570
         O            0.863114403058     0.923684087358    -1.277523486731    15.994914619570
         O            1.791306403058    -1.159268912642     0.035407513269    15.994914619570
         C           -1.818593596942     0.345139087358    -0.007424486731    12.000000000000
         C           -3.094609596942    -0.461964912642     0.017177513269    12.000000000000
         H           -1.739441596942     1.004547087358     0.861491513269     1.007825032230
         H           -1.740316596942     0.951335087358    -0.914480486731     1.007825032230
         H           -3.955881596942     0.210998087358    -0.002101486731     1.007825032230
         H           -3.145044596942    -1.121833912642    -0.850538486731     1.007825032230
         H           -3.143923596942    -1.069506912642     0.922437513269     1.007825032230
         H            1.414735203058     0.644451487358     1.910822213269     1.007825032230
         H            1.391692403058     0.507498087358    -1.982792486731     1.007825032230

  Basis Set: AUG-CC-PVTZ
    Blend: AUG-CC-PVTZ
  Basis Set: (AUG-CC-PVTZ AUX)
    Blend: AUG-CC-PVTZ-JKFIT
	 Reference Energy          =    -720.3024153547198694 [Eh]
	 Singles Energy            =      -0.0000000000000000 [Eh]
	 Same-Spin Energy          =      -0.4069251283462862 [Eh]
	 Opposite-Spin Energy      =      -1.2301410051543926 [Eh]
	 Correlation Energy        =      -1.6370661335006789 [Eh]
	 Total Energy              =    -721.9394814882205083 [Eh]

	 ================> DF-SCS-MP2 Energies <==================
	-----------------------------------------------------------
	 SCS Same-Spin Scale       =       0.3333333333333333 [-]
	 SCS Opposite-Spin Scale   =       1.2000000000000000 [-]
	 SCS Same-Spin Energy      =      -0.1356417094487621 [Eh]
	 SCS Opposite-Spin Energy  =      -1.4761692061852711 [Eh]
	 SCS Correlation Energy    =      -1.6118109156340332 [Eh]
	 SCS Total Energy          =    -721.9142262703538790 [Eh]
	-----------------------------------------------------------

  Dipole Moment: [D]
     X:    -1.8262      Y:     1.6754      Z:     0.0746     Total:     2.4794

*** Psi4 exiting successfully. Buy a developer a beer!
