                               Psi4 1.4a3.dev225

  ==> Input File <==

--------------------------------------------------------------------------
#psi4
#
memory 32 gb

molecule  {
0 1
  P        0.8768730    -0.1227020    -0.0963880
  O       -0.6135052    -0.4561872    -0.3398943
  O        1.0437430     0.0794150     1.5121170
  O        0.9276490     1.4110650    -0.6042510
  O        1.8284920    -1.0938460    -0.6752860
  C       -1.7021250     0.4138110     0.1607360
  C       -3.0206860    -0.2869630    -0.0679060
  H       -1.5201960     0.5987390     1.2233000
  H       -1.6444250     1.3614050    -0.3799660
  H       -3.8417660     0.3429090     0.2865800
  H       -3.1647720    -0.4853110    -1.1316920
  H       -3.0471290    -1.2354240     0.4720910
  H        1.4666950    -0.7151170     1.8872290
  H        1.8298220     1.7749190    -0.5472100
units angstrom
no_reorient  #important for SAPT in psi4, default
symmetry c1  #important for SAPT in psi4, default
}

set PROPERTIES_ORIGIN ["COM"]
properties('MP2/aug-cc-pvtz', properties = ['dipole'])
--------------------------------------------------------------------------

    Molecular point group: c1
  Charge       = 0
  Multiplicity = 1
  Basis Set: AUG-CC-PVTZ
    Blend: AUG-CC-PVTZ
  Basis Set: (AUG-CC-PVTZ AUX)
    Blend: AUG-CC-PVTZ-JKFIT

    Orbital Energies [Eh]
    ---------------------

    Doubly Occupied:

       1A    -80.105845     2A    -20.608088     3A    -20.605436
       4A    -20.595831     5A    -20.511702     6A    -11.311181
       7A    -11.235477     8A     -7.622366     9A     -5.520921
      10A     -5.520578    11A     -5.519273    12A     -1.457050
      13A     -1.385206    14A     -1.380709    15A     -1.292786
      16A     -1.048225    17A     -0.878338    18A     -0.840014
      19A     -0.753144    20A     -0.721538    21A     -0.672310
      22A     -0.668247    23A     -0.637547    24A     -0.608122
      25A     -0.587272    26A     -0.570685    27A     -0.561219
      28A     -0.546959    29A     -0.534912    30A     -0.517227
      31A     -0.492122    32A     -0.467548    33A     -0.464321

  @DF-RHF Final Energy:  -720.30411859375135

   => Energetics <=

    Nuclear Repulsion Energy =            440.7107154139752083
    One-Electron Energy =               -1869.5452704130823349
    Two-Electron Energy =                 708.5304364053558857
    Total Energy =                       -720.3041185937513546
  Basis Set: (AUG-CC-PVTZ AUX)
    Blend: AUG-CC-PVTZ-RI
    Molecular point group: c1

    Geometry (in Angstrom), charge = 0, multiplicity = 1:

       Center              X                  Y                   Z               Mass
    ------------   -----------------  -----------------  -----------------  -----------------
         P            0.785983901757    -0.110195311500    -0.082392687065    30.973761998420
         O           -0.704394298243    -0.443680511500    -0.325898987065    15.994914619570
         O            0.952853901757     0.091921688500     1.526112312935    15.994914619570
         O            0.836759901757     1.423571688500    -0.590255687065    15.994914619570
         O            1.737602901757    -1.081339311500    -0.661290687065    15.994914619570
         C           -1.793014098243     0.426317688500     0.174731312935    12.000000000000
         C           -3.111575098243    -0.274456311500    -0.053910687065    12.000000000000
         H           -1.611085098243     0.611245688500     1.237295312935     1.007825032230
         H           -1.735314098243     1.373911688500    -0.365970687065     1.007825032230
         H           -3.932655098243     0.355415688500     0.300575312935     1.007825032230
         H           -3.255661098243    -0.472804311500    -1.117696687065     1.007825032230
         H           -3.138018098243    -1.222917311500     0.486086312935     1.007825032230
         H            1.375805901757    -0.702610311500     1.901224312935     1.007825032230
         H            1.738932901757     1.787425688500    -0.533214687065     1.007825032230

  Basis Set: AUG-CC-PVTZ
    Blend: AUG-CC-PVTZ
  Basis Set: (AUG-CC-PVTZ AUX)
    Blend: AUG-CC-PVTZ-JKFIT
	 Reference Energy          =    -720.3041185937513546 [Eh]
	 Singles Energy            =      -0.0000000000000000 [Eh]
	 Same-Spin Energy          =      -0.4066008877817634 [Eh]
	 Opposite-Spin Energy      =      -1.2292339872510976 [Eh]
	 Correlation Energy        =      -1.6358348750328608 [Eh]
	 Total Energy              =    -721.9399534687842106 [Eh]

	 ================> DF-SCS-MP2 Energies <==================
	-----------------------------------------------------------
	 SCS Same-Spin Scale       =       0.3333333333333333 [-]
	 SCS Opposite-Spin Scale   =       1.2000000000000000 [-]
	 SCS Same-Spin Energy      =      -0.1355336292605878 [Eh]
	 SCS Opposite-Spin Energy  =      -1.4750807847013170 [Eh]
	 SCS Correlation Energy    =      -1.6106144139619047 [Eh]
	 SCS Total Energy          =    -721.9147330077132665 [Eh]
	-----------------------------------------------------------

  Dipole Moment: [D]
     X:    -1.9905      Y:     2.1643      Z:     2.2070     Total:     3.6765

*** Psi4 exiting successfully. Buy a developer a beer!
