                               Psi4 1.3.2 release

  ==> Input File <==

--------------------------------------------------------------------------
#psi4
#
memory 32 gb

molecule  {
0 1
  P        0.7984170    -0.0731530     0.0007800
  O       -0.7122932    -0.6096218     0.0136853
  O        0.8865822     1.0137251     1.1943809
  O        0.8671220     0.9192840    -1.2738770
  O        1.7953140    -1.1636690     0.0390540
  C       -1.8145860     0.3407390    -0.0037780
  C       -3.0906020    -0.4663650     0.0208240
  H       -1.7354340     1.0001470     0.8651380
  H       -1.7363090     0.9469350    -0.9108340
  H       -3.9518740     0.2065980     0.0015450
  H       -3.1410370    -1.1262340    -0.8468920
  H       -3.1399160    -1.0739070     0.9260840
  H        1.4163280     0.6542800     1.9234740
  H        1.3957000     0.5030980    -1.9791460
units angstrom
no_reorient  #important for SAPT in psi4, default
symmetry c1  #important for SAPT in psi4, default
}

set PROPERTIES_ORIGIN ["COM"]
properties('MP2/aug-cc-pvtz', properties = ['dipole'])
--------------------------------------------------------------------------

    Molecular point group: c1
  Charge       = 0
  Multiplicity = 1
  Basis Set: AUG-CC-PVTZ
    Blend: AUG-CC-PVTZ
  Basis Set: (AUG-CC-PVTZ AUX)
    Blend: AUG-CC-PVTZ-JKFIT

    Orbital Energies [Eh]
    ---------------------

    Doubly Occupied:

       1A    -80.114234     2A    -20.610777     3A    -20.609898
       4A    -20.595667     5A    -20.517883     6A    -11.303621
       7A    -11.230922     8A     -7.629757     9A     -5.528118
      10A     -5.527769    11A     -5.526950    12A     -1.454110
      13A     -1.387161    14A     -1.383558    15A     -1.298609
      16A     -1.041139    17A     -0.872510    18A     -0.848766
      19A     -0.731630    20A     -0.729799    21A     -0.676183
      22A     -0.670163    23A     -0.644956    24A     -0.620020
      25A     -0.584229    26A     -0.569022    27A     -0.562500
      28A     -0.544177    29A     -0.532205    30A     -0.509896
      31A     -0.485738    32A     -0.472998    33A     -0.470049

  @DF-RHF Final Energy:  -720.30364968264644

   => Energetics <=

    Nuclear Repulsion Energy =            439.2169417171454597
    One-Electron Energy =               -1866.4711547888321093
    Two-Electron Energy =                 706.9505633890400986
    Total Energy =                       -720.3036496826464372
  Basis Set: (AUG-CC-PVTZ AUX)
    Blend: AUG-CC-PVTZ-RI
    Molecular point group: c1

    Geometry (in Angstrom), charge = 0, multiplicity = 1:

       Center              X                  Y                   Z               Mass
    ------------   -----------------  -----------------  -----------------  -----------------
         P            0.796328883318    -0.072366979076     0.002526343832    30.973761998420
         O           -0.714381316682    -0.608835779076     0.015431643832    15.994914619570
         O            0.884494083318     1.014511120924     1.196127243832    15.994914619570
         O            0.865033883318     0.920070020924    -1.272130656168    15.994914619570
         O            1.793225883318    -1.162882979076     0.040800343832    15.994914619570
         C           -1.816674116682     0.341525020924    -0.002031656168    12.000000000000
         C           -3.092690116682    -0.465578979076     0.022570343832    12.000000000000
         H           -1.737522116682     1.000933020924     0.866884343832     1.007825032230
         H           -1.738397116682     0.947721020924    -0.909087656168     1.007825032230
         H           -3.953962116682     0.207384020924     0.003291343832     1.007825032230
         H           -3.143125116682    -1.125447979076    -0.845145656168     1.007825032230
         H           -3.142004116682    -1.073120979076     0.927830343832     1.007825032230
         H            1.414239883318     0.655066020924     1.925220343832     1.007825032230
         H            1.393611883318     0.503884020924    -1.977399656168     1.007825032230

  Basis Set: AUG-CC-PVTZ
    Blend: AUG-CC-PVTZ
  Basis Set: (AUG-CC-PVTZ AUX)
    Blend: AUG-CC-PVTZ-JKFIT
	 Reference Energy          =    -720.3036496826464372 [Eh]
	 Singles Energy            =      -0.0000000000000000 [Eh]
	 Same-Spin Energy          =      -0.4070057476666324 [Eh]
	 Opposite-Spin Energy      =      -1.2301289233096018 [Eh]
	 Correlation Energy        =      -1.6371346709762342 [Eh]
	 Total Energy              =    -721.9407843536226892 [Eh]

	 ================> DF-SCS-MP2 Energies <==================
	-----------------------------------------------------------
	 SCS Same-Spin Scale       =       0.3333333333333333 [-]
	 SCS Opposite-Spin Scale   =       1.2000000000000000 [-]
	 SCS Same-Spin Energy      =      -0.1356685825555441 [Eh]
	 SCS Opposite-Spin Energy  =      -1.4761547079715220 [Eh]
	 SCS Correlation Energy    =      -1.6118232905270662 [Eh]
	 SCS Total Energy          =    -721.9154729731734506 [Eh]
	-----------------------------------------------------------

  Dipole Moment: [D]
     X:    -2.0945      Y:     1.8893      Z:    -0.0362     Total:     2.8209

*** Psi4 exiting successfully. Buy a developer a beer!
