                               Psi4 1.4a3.dev225

  ==> Input File <==

--------------------------------------------------------------------------
#psi4
#
memory 32 gb

molecule  {
0 1
  P        0.8768730    -0.1227020    -0.0963880
  O       -0.6616900    -0.4669690    -0.3477670
  O        1.0437430     0.0794150     1.5121170
  O        0.9276490     1.4110650    -0.6042510
  O        1.8284920    -1.0938460    -0.6752860
  C       -1.7378802     0.4440796     0.1782110
  C       -3.0206860    -0.2869630    -0.0679060
  H       -1.5201960     0.5987390     1.2233000
  H       -1.6444250     1.3614050    -0.3799660
  H       -3.8417660     0.3429090     0.2865800
  H       -3.1647720    -0.4853110    -1.1316920
  H       -3.0471290    -1.2354240     0.4720910
  H        1.4666950    -0.7151170     1.8872290
  H        1.8298220     1.7749190    -0.5472100
units angstrom
no_reorient  #important for SAPT in psi4, default
symmetry c1  #important for SAPT in psi4, default
}

set PROPERTIES_ORIGIN ["COM"]
properties('MP2/aug-cc-pvtz', properties = ['dipole'])
--------------------------------------------------------------------------

    Molecular point group: c1
  Charge       = 0
  Multiplicity = 1
  Basis Set: AUG-CC-PVTZ
    Blend: AUG-CC-PVTZ
  Basis Set: (AUG-CC-PVTZ AUX)
    Blend: AUG-CC-PVTZ-JKFIT

    Orbital Energies [Eh]
    ---------------------

    Doubly Occupied:

       1A    -80.110582     2A    -20.610612     3A    -20.608196
       4A    -20.589957     5A    -20.514618     6A    -11.305953
       7A    -11.232777     8A     -7.625881     9A     -5.524341
      10A     -5.524090    11A     -5.522848    12A     -1.448648
      13A     -1.382781    14A     -1.371231    15A     -1.294648
      16A     -1.047342    17A     -0.872099    18A     -0.841646
      19A     -0.751946    20A     -0.712048    21A     -0.673201
      22A     -0.669133    23A     -0.637710    24A     -0.598895
      25A     -0.588701    26A     -0.569182    27A     -0.559749
      28A     -0.542589    29A     -0.534227    30A     -0.518171
      31A     -0.492021    32A     -0.468694    33A     -0.466199

  @DF-RHF Final Energy:  -720.30059443459209

   => Energetics <=

    Nuclear Repulsion Energy =            438.4676118292629212
    One-Electron Energy =               -1865.1149791858249500
    Two-Electron Energy =                 706.3467729219698867
    Total Energy =                       -720.3005944345920852
  Basis Set: (AUG-CC-PVTZ AUX)
    Blend: AUG-CC-PVTZ-RI
    Molecular point group: c1

    Geometry (in Angstrom), charge = 0, multiplicity = 1:

       Center              X                  Y                   Z               Mass
    ------------   -----------------  -----------------  -----------------  -----------------
         P            0.795505299594    -0.111709254529    -0.083057539341    30.973761998420
         O           -0.743057700406    -0.455976254529    -0.334436539341    15.994914619570
         O            0.962375299594     0.090407745471     1.525447460659    15.994914619570
         O            0.846281299594     1.422057745471    -0.590920539341    15.994914619570
         O            1.747124299594    -1.082853254529    -0.661955539341    15.994914619570
         C           -1.819247900406     0.455072345471     0.191541460659    12.000000000000
         C           -3.102053700406    -0.275970254529    -0.054575539341    12.000000000000
         H           -1.601563700406     0.609731745471     1.236630460659     1.007825032230
         H           -1.725792700406     1.372397745471    -0.366635539341     1.007825032230
         H           -3.923133700406     0.353901745471     0.299910460659     1.007825032230
         H           -3.246139700406    -0.474318254529    -1.118361539341     1.007825032230
         H           -3.128496700406    -1.224431254529     0.485421460659     1.007825032230
         H            1.385327299594    -0.704124254529     1.900559460659     1.007825032230
         H            1.748454299594     1.785911745471    -0.533879539341     1.007825032230

  Basis Set: AUG-CC-PVTZ
    Blend: AUG-CC-PVTZ
  Basis Set: (AUG-CC-PVTZ AUX)
    Blend: AUG-CC-PVTZ-JKFIT
	 Reference Energy          =    -720.3005944345920852 [Eh]
	 Singles Energy            =      -0.0000000000000000 [Eh]
	 Same-Spin Energy          =      -0.4073414342759915 [Eh]
	 Opposite-Spin Energy      =      -1.2312460438978590 [Eh]
	 Correlation Energy        =      -1.6385874781738505 [Eh]
	 Total Energy              =    -721.9391819127658891 [Eh]

	 ================> DF-SCS-MP2 Energies <==================
	-----------------------------------------------------------
	 SCS Same-Spin Scale       =       0.3333333333333333 [-]
	 SCS Opposite-Spin Scale   =       1.2000000000000000 [-]
	 SCS Same-Spin Energy      =      -0.1357804780919971 [Eh]
	 SCS Opposite-Spin Energy  =      -1.4774952526774308 [Eh]
	 SCS Correlation Energy    =      -1.6132757307694279 [Eh]
	 SCS Total Energy          =    -721.9138701653614589 [Eh]
	-----------------------------------------------------------

  Dipole Moment: [D]
     X:    -1.7927      Y:     2.2393      Z:     2.2627     Total:     3.6535

*** Psi4 exiting successfully. Buy a developer a beer!
