                               Psi4 1.3.2 release

  ==> Input File <==

--------------------------------------------------------------------------
#psi4
#
memory 32 gb

molecule  {
0 1
  P        0.7984170    -0.0731530     0.0007800
  O       -0.7151460    -0.6011470     0.0244450
  O        0.8729860     1.0114440     1.1973790
  O        0.8671220     0.9192840    -1.2738770
  O        1.7953140    -1.1636690     0.0390540
  C       -1.8905140     0.4057862    -0.0057271
  C       -3.0906020    -0.4663650     0.0208240
  H       -1.7354340     1.0001470     0.8651380
  H       -1.7363090     0.9469350    -0.9108340
  H       -3.9518740     0.2065980     0.0015450
  H       -3.1410370    -1.1262340    -0.8468920
  H       -3.1399160    -1.0739070     0.9260840
  H        1.4163280     0.6542800     1.9234740
  H        1.3957000     0.5030980    -1.9791460
units angstrom
no_reorient  #important for SAPT in psi4, default
symmetry c1  #important for SAPT in psi4, default
}

set PROPERTIES_ORIGIN ["COM"]
properties('MP2/aug-cc-pvtz', properties = ['dipole'])
--------------------------------------------------------------------------

    Molecular point group: c1
  Charge       = 0
  Multiplicity = 1
  Basis Set: AUG-CC-PVTZ
    Blend: AUG-CC-PVTZ
  Basis Set: (AUG-CC-PVTZ AUX)
    Blend: AUG-CC-PVTZ-JKFIT

    Orbital Energies [Eh]
    ---------------------

    Doubly Occupied:

       1A    -80.106844     2A    -20.606291     3A    -20.606244
       4A    -20.581713     5A    -20.513276     6A    -11.307676
       7A    -11.234764     8A     -7.622377     9A     -5.520815
      10A     -5.520375    11A     -5.519526    12A     -1.444673
      13A     -1.382533    14A     -1.358564    15A     -1.292776
      16A     -1.052938    17A     -0.872378    18A     -0.844691
      19A     -0.724852    20A     -0.715599    21A     -0.674446
      22A     -0.671138    23A     -0.642673    24A     -0.608674
      25A     -0.579859    26A     -0.566694    27A     -0.565910
      28A     -0.536432    29A     -0.531008    30A     -0.517254
      31A     -0.492078    32A     -0.466512    33A     -0.466044

  @DF-RHF Final Energy:  -720.29559908181784

   => Energetics <=

    Nuclear Repulsion Energy =            437.6501329813430061
    One-Electron Energy =               -1863.5962111563753751
    Two-Electron Energy =                 705.6504790932145852
    Total Energy =                       -720.2955990818178407
  Basis Set: (AUG-CC-PVTZ AUX)
    Blend: AUG-CC-PVTZ-RI
    Molecular point group: c1

    Geometry (in Angstrom), charge = 0, multiplicity = 1:

       Center              X                  Y                   Z               Mass
    ------------   -----------------  -----------------  -----------------  -----------------
         P            0.805647613295    -0.079347748047     0.000965606967    30.973761998420
         O           -0.707915386705    -0.607341748047     0.024630606967    15.994914619570
         O            0.880216613295     1.005249251953     1.197564606967    15.994914619570
         O            0.874352613295     0.913089251953    -1.273691393033    15.994914619570
         O            1.802544613295    -1.169863748047     0.039239606967    15.994914619570
         C           -1.883283386705     0.399591451953    -0.005541493033    12.000000000000
         C           -3.083371386705    -0.472559748047     0.021009606967    12.000000000000
         H           -1.728203386705     0.993952251953     0.865323606967     1.007825032230
         H           -1.729078386705     0.940740251953    -0.910648393033     1.007825032230
         H           -3.944643386705     0.200403251953     0.001730606967     1.007825032230
         H           -3.133806386705    -1.132428748047    -0.846706393033     1.007825032230
         H           -3.132685386705    -1.080101748047     0.926269606967     1.007825032230
         H            1.423558613295     0.648085251953     1.923659606967     1.007825032230
         H            1.402930613295     0.496903251953    -1.978960393033     1.007825032230

  Basis Set: AUG-CC-PVTZ
    Blend: AUG-CC-PVTZ
  Basis Set: (AUG-CC-PVTZ AUX)
    Blend: AUG-CC-PVTZ-JKFIT
	 Reference Energy          =    -720.2955990818178407 [Eh]
	 Singles Energy            =      -0.0000000000000000 [Eh]
	 Same-Spin Energy          =      -0.4073863318747321 [Eh]
	 Opposite-Spin Energy      =      -1.2313474608995598 [Eh]
	 Correlation Energy        =      -1.6387337927742918 [Eh]
	 Total Energy              =    -721.9343328745920871 [Eh]

	 ================> DF-SCS-MP2 Energies <==================
	-----------------------------------------------------------
	 SCS Same-Spin Scale       =       0.3333333333333333 [-]
	 SCS Opposite-Spin Scale   =       1.2000000000000000 [-]
	 SCS Same-Spin Energy      =      -0.1357954439582440 [Eh]
	 SCS Opposite-Spin Energy  =      -1.4776169530794718 [Eh]
	 SCS Correlation Energy    =      -1.6134123970377159 [Eh]
	 SCS Total Energy          =    -721.9090114788555184 [Eh]
	-----------------------------------------------------------

  Dipole Moment: [D]
     X:    -2.4896      Y:     2.0170      Z:    -0.0712     Total:     3.2049

*** Psi4 exiting successfully. Buy a developer a beer!
