                               Psi4 1.3.2 release

  ==> Input File <==

--------------------------------------------------------------------------
#psi4
#
memory 32 gb

molecule  {
0 1
  P        0.7984170    -0.0731530     0.0007800
  O       -0.7234110    -0.6107010     0.0247349
  O        0.8729860     1.0114440     1.1973790
  O        0.8671220     0.9192840    -1.2738770
  O        1.7953140    -1.1636690     0.0390540
  C       -1.8145860     0.3407390    -0.0037780
  C       -3.0835069    -0.4774644     0.0211577
  H       -1.7354340     1.0001470     0.8651380
  H       -1.7363090     0.9469350    -0.9108340
  H       -3.9518740     0.2065980     0.0015450
  H       -3.1410370    -1.1262340    -0.8468920
  H       -3.1399160    -1.0739070     0.9260840
  H        1.4163280     0.6542800     1.9234740
  H        1.3957000     0.5030980    -1.9791460
units angstrom
no_reorient  #important for SAPT in psi4, default
symmetry c1  #important for SAPT in psi4, default
}

set PROPERTIES_ORIGIN ["COM"]
properties('MP2/aug-cc-pvtz', properties = ['dipole'])
--------------------------------------------------------------------------

    Molecular point group: c1
  Charge       = 0
  Multiplicity = 1
  Basis Set: AUG-CC-PVTZ
    Blend: AUG-CC-PVTZ
  Basis Set: (AUG-CC-PVTZ AUX)
    Blend: AUG-CC-PVTZ-JKFIT

    Orbital Energies [Eh]
    ---------------------

    Doubly Occupied:

       1A    -80.115891     2A    -20.611739     3A    -20.611692
       4A    -20.594612     5A    -20.519751     6A    -11.301442
       7A    -11.229524     8A     -7.631221     9A     -5.529591
      10A     -5.529212    11A     -5.528406    12A     -1.453777
      13A     -1.387561    14A     -1.383164    15A     -1.300209
      16A     -1.039065    17A     -0.871283    18A     -0.848714
      19A     -0.730561    20A     -0.730117    21A     -0.677323
      22A     -0.670251    23A     -0.645930    24A     -0.619297
      25A     -0.583118    26A     -0.569754    27A     -0.563021
      28A     -0.540893    29A     -0.533457    30A     -0.508137
      31A     -0.484816    32A     -0.474255    33A     -0.471136

  @DF-RHF Final Energy:  -720.30243840781293

   => Energetics <=

    Nuclear Repulsion Energy =            439.0897071488290067
    One-Electron Energy =               -1866.2064538858610376
    Two-Electron Energy =                 706.8143083292189885
    Total Energy =                       -720.3024384078129287
  Basis Set: (AUG-CC-PVTZ AUX)
    Blend: AUG-CC-PVTZ-RI
    Molecular point group: c1

    Geometry (in Angstrom), charge = 0, multiplicity = 1:

       Center              X                  Y                   Z               Mass
    ------------   -----------------  -----------------  -----------------  -----------------
         P            0.798790287659    -0.070883420720     0.000711412979    30.973761998420
         O           -0.723037712341    -0.608431420720     0.024666312979    15.994914619570
         O            0.873359287659     1.013713579280     1.197310412979    15.994914619570
         O            0.867495287659     0.921553579280    -1.273945587021    15.994914619570
         O            1.795687287659    -1.161399420720     0.038985412979    15.994914619570
         C           -1.814212712341     0.343008579280    -0.003846587021    12.000000000000
         C           -3.083133612341    -0.475194820720     0.021089112979    12.000000000000
         H           -1.735060712341     1.002416579280     0.865069412979     1.007825032230
         H           -1.735935712341     0.949204579280    -0.910902587021     1.007825032230
         H           -3.951500712341     0.208867579280     0.001476412979     1.007825032230
         H           -3.140663712341    -1.123964420720    -0.846960587021     1.007825032230
         H           -3.139542712341    -1.071637420720     0.926015412979     1.007825032230
         H            1.416701287659     0.656549579280     1.923405412979     1.007825032230
         H            1.396073287659     0.505367579280    -1.979214587021     1.007825032230

  Basis Set: AUG-CC-PVTZ
    Blend: AUG-CC-PVTZ
  Basis Set: (AUG-CC-PVTZ AUX)
    Blend: AUG-CC-PVTZ-JKFIT
	 Reference Energy          =    -720.3024384078129287 [Eh]
	 Singles Energy            =      -0.0000000000000000 [Eh]
	 Same-Spin Energy          =      -0.4072363484439120 [Eh]
	 Opposite-Spin Energy      =      -1.2306155313531857 [Eh]
	 Correlation Energy        =      -1.6378518797970978 [Eh]
	 Total Energy              =    -721.9402902876100825 [Eh]

	 ================> DF-SCS-MP2 Energies <==================
	-----------------------------------------------------------
	 SCS Same-Spin Scale       =       0.3333333333333333 [-]
	 SCS Opposite-Spin Scale   =       1.2000000000000000 [-]
	 SCS Same-Spin Energy      =      -0.1357454494813040 [Eh]
	 SCS Opposite-Spin Energy  =      -1.4767386376238227 [Eh]
	 SCS Correlation Energy    =      -1.6124840871051267 [Eh]
	 SCS Total Energy          =    -721.9149224949180734 [Eh]
	-----------------------------------------------------------

  Dipole Moment: [D]
     X:    -1.9510      Y:     1.8906      Z:    -0.0685     Total:     2.7177

*** Psi4 exiting successfully. Buy a developer a beer!
