                               Psi4 1.3.2 release

  ==> Input File <==

--------------------------------------------------------------------------
#psi4
#
memory 32 gb

molecule  {
0 1
  P        0.7984170    -0.0731530     0.0007800
  O       -0.7237657    -0.6115100     0.0030677
  O        0.8729860     1.0114440     1.1973790
  O        0.8671220     0.9192840    -1.2738770
  O        1.7953140    -1.1636690     0.0390540
  C       -1.8145860     0.3407390    -0.0037780
  C       -3.0906020    -0.4663650     0.0208240
  H       -1.7512219     1.0092487     0.8594594
  H       -1.7363090     0.9469350    -0.9108340
  H       -3.9518740     0.2065980     0.0015450
  H       -3.1410370    -1.1262340    -0.8468920
  H       -3.1399160    -1.0739070     0.9260840
  H        1.4163280     0.6542800     1.9234740
  H        1.3957000     0.5030980    -1.9791460
units angstrom
no_reorient  #important for SAPT in psi4, default
symmetry c1  #important for SAPT in psi4, default
}

set PROPERTIES_ORIGIN ["COM"]
properties('MP2/aug-cc-pvtz', properties = ['dipole'])
--------------------------------------------------------------------------

    Molecular point group: c1
  Charge       = 0
  Multiplicity = 1
  Basis Set: AUG-CC-PVTZ
    Blend: AUG-CC-PVTZ
  Basis Set: (AUG-CC-PVTZ AUX)
    Blend: AUG-CC-PVTZ-JKFIT

    Orbital Energies [Eh]
    ---------------------

    Doubly Occupied:

       1A    -80.116200     2A    -20.612789     3A    -20.610757
       4A    -20.595415     5A    -20.519967     6A    -11.301369
       7A    -11.229302     8A     -7.631509     9A     -5.529878
      10A     -5.529504    11A     -5.528694    12A     -1.453853
      13A     -1.387735    14A     -1.383133    15A     -1.300390
      16A     -1.039252    17A     -0.871139    18A     -0.848663
      19A     -0.731166    20A     -0.730049    21A     -0.677442
      22A     -0.669318    23A     -0.645794    24A     -0.619572
      25A     -0.584306    26A     -0.568476    27A     -0.563157
      28A     -0.543719    29A     -0.532063    30A     -0.507867
      31A     -0.484112    32A     -0.474634    33A     -0.471098

  @DF-RHF Final Energy:  -720.30246716510635

   => Energetics <=

    Nuclear Repulsion Energy =            438.9711622214704789
    One-Electron Energy =               -1865.9626163329462543
    Two-Electron Energy =                 706.6889869463694822
    Total Energy =                       -720.3024671651063500
  Basis Set: (AUG-CC-PVTZ AUX)
    Blend: AUG-CC-PVTZ-RI
    Molecular point group: c1

    Geometry (in Angstrom), charge = 0, multiplicity = 1:

       Center              X                  Y                   Z               Mass
    ------------   -----------------  -----------------  -----------------  -----------------
         P            0.799637264608    -0.071910543079     0.003538946913    30.973761998420
         O           -0.722545435392    -0.610267543079     0.005826646913    15.994914619570
         O            0.874206264608     1.012686456921     1.200137946913    15.994914619570
         O            0.868342264608     0.920526456921    -1.271118053087    15.994914619570
         O            1.796534264608    -1.162426543079     0.041812946913    15.994914619570
         C           -1.813365735392     0.341981456921    -0.001019053087    12.000000000000
         C           -3.089381735392    -0.465122543079     0.023582946913    12.000000000000
         H           -1.750001635392     1.010491156921     0.862218346913     1.007825032230
         H           -1.735088735392     0.948177456921    -0.908075053087     1.007825032230
         H           -3.950653735392     0.207840456921     0.004303946913     1.007825032230
         H           -3.139816735392    -1.124991543079    -0.844133053087     1.007825032230
         H           -3.138695735392    -1.072664543079     0.928842946913     1.007825032230
         H            1.417548264608     0.655522456921     1.926232946913     1.007825032230
         H            1.396920264608     0.504340456921    -1.976387053087     1.007825032230

  Basis Set: AUG-CC-PVTZ
    Blend: AUG-CC-PVTZ
  Basis Set: (AUG-CC-PVTZ AUX)
    Blend: AUG-CC-PVTZ-JKFIT
	 Reference Energy          =    -720.3024671651063500 [Eh]
	 Singles Energy            =      -0.0000000000000000 [Eh]
	 Same-Spin Energy          =      -0.4072264629540820 [Eh]
	 Opposite-Spin Energy      =      -1.2306077396470294 [Eh]
	 Correlation Energy        =      -1.6378342026011115 [Eh]
	 Total Energy              =    -721.9403013677074341 [Eh]

	 ================> DF-SCS-MP2 Energies <==================
	-----------------------------------------------------------
	 SCS Same-Spin Scale       =       0.3333333333333333 [-]
	 SCS Opposite-Spin Scale   =       1.2000000000000000 [-]
	 SCS Same-Spin Energy      =      -0.1357421543180273 [Eh]
	 SCS Opposite-Spin Energy  =      -1.4767292875764353 [Eh]
	 SCS Correlation Energy    =      -1.6124714418944626 [Eh]
	 SCS Total Energy          =    -721.9149386070008632 [Eh]
	-----------------------------------------------------------

  Dipole Moment: [D]
     X:    -1.9446      Y:     1.8995      Z:    -0.0164     Total:     2.7184

*** Psi4 exiting successfully. Buy a developer a beer!
