                               Psi4 1.3.2 release

  ==> Input File <==

--------------------------------------------------------------------------
#psi4
#
memory 32 gb

molecule  {
0 1
  P        0.7984170    -0.0731530     0.0007800
  O       -0.6207364    -0.5682130     0.0229689
  O        0.8729860     1.0114440     1.1973790
  O        0.8671220     0.9192840    -1.2738770
  O        1.7953140    -1.1636690     0.0390540
  C       -1.8145860     0.3407390    -0.0037780
  C       -3.0906020    -0.4663650     0.0208240
  H       -1.7354340     1.0001470     0.8651380
  H       -1.7363090     0.9469350    -0.9108340
  H       -3.9518740     0.2065980     0.0015450
  H       -3.1410370    -1.1262340    -0.8468920
  H       -3.1399160    -1.0739070     0.9260840
  H        1.4163280     0.6542800     1.9234740
  H        1.3957000     0.5030980    -1.9791460
units angstrom
no_reorient  #important for SAPT in psi4, default
symmetry c1  #important for SAPT in psi4, default
}

set PROPERTIES_ORIGIN ["COM"]
properties('MP2/aug-cc-pvtz', properties = ['dipole'])
--------------------------------------------------------------------------

    Molecular point group: c1
  Charge       = 0
  Multiplicity = 1
  Basis Set: AUG-CC-PVTZ
    Blend: AUG-CC-PVTZ
  Basis Set: (AUG-CC-PVTZ AUX)
    Blend: AUG-CC-PVTZ-JKFIT

    Orbital Energies [Eh]
    ---------------------

    Doubly Occupied:

       1A    -80.096534     2A    -20.600450     3A    -20.600392
       4A    -20.593537     5A    -20.507041     6A    -11.317940
       7A    -11.240313     8A     -7.614818     9A     -5.513323
      10A     -5.512880    11A     -5.511846    12A     -1.461564
      13A     -1.386208    14A     -1.378090    15A     -1.288936
      16A     -1.054572    17A     -0.883270    18A     -0.841303
      19A     -0.733137    20A     -0.729074    21A     -0.670009
      22A     -0.669399    23A     -0.639602    24A     -0.624941
      25A     -0.583990    26A     -0.574104    27A     -0.560708
      28A     -0.546779    29A     -0.528684    30A     -0.520197
      31A     -0.495355    32A     -0.463502    33A     -0.462476

  @DF-RHF Final Energy:  -720.30107371705014

   => Energetics <=

    Nuclear Repulsion Energy =            442.1891339519047506
    One-Electron Energy =               -1872.5704648253461073
    Two-Electron Energy =                 710.0802571563912124
    Total Energy =                       -720.3010737170501443
  Basis Set: (AUG-CC-PVTZ AUX)
    Blend: AUG-CC-PVTZ-RI
    Molecular point group: c1

    Geometry (in Angstrom), charge = 0, multiplicity = 1:

       Center              X                  Y                   Z               Mass
    ------------   -----------------  -----------------  -----------------  -----------------
         P            0.786432914776    -0.077333673641     0.000967359976    30.973761998420
         O           -0.632720485224    -0.572393673641     0.023156259976    15.994914619570
         O            0.861001914776     1.007263326359     1.197566359976    15.994914619570
         O            0.855137914776     0.915103326359    -1.273689640024    15.994914619570
         O            1.783329914776    -1.167849673641     0.039241359976    15.994914619570
         C           -1.826570085224     0.336558326359    -0.003590640024    12.000000000000
         C           -3.102586085224    -0.470545673641     0.021011359976    12.000000000000
         H           -1.747418085224     0.995966326359     0.865325359976     1.007825032230
         H           -1.748293085224     0.942754326359    -0.910646640024     1.007825032230
         H           -3.963858085224     0.202417326359     0.001732359976     1.007825032230
         H           -3.153021085224    -1.130414673641    -0.846704640024     1.007825032230
         H           -3.151900085224    -1.078087673641     0.926271359976     1.007825032230
         H            1.404343914776     0.650099326359     1.923661359976     1.007825032230
         H            1.383715914776     0.498917326359    -1.978958640024     1.007825032230

  Basis Set: AUG-CC-PVTZ
    Blend: AUG-CC-PVTZ
  Basis Set: (AUG-CC-PVTZ AUX)
    Blend: AUG-CC-PVTZ-JKFIT
	 Reference Energy          =    -720.3010737170501443 [Eh]
	 Singles Energy            =      -0.0000000000000000 [Eh]
	 Same-Spin Energy          =      -0.4058109206034278 [Eh]
	 Opposite-Spin Energy      =      -1.2271589062048340 [Eh]
	 Correlation Energy        =      -1.6329698268082617 [Eh]
	 Total Energy              =    -721.9340435438583654 [Eh]

	 ================> DF-SCS-MP2 Energies <==================
	-----------------------------------------------------------
	 SCS Same-Spin Scale       =       0.3333333333333333 [-]
	 SCS Opposite-Spin Scale   =       1.2000000000000000 [-]
	 SCS Same-Spin Energy      =      -0.1352703068678092 [Eh]
	 SCS Opposite-Spin Energy  =      -1.4725906874458008 [Eh]
	 SCS Correlation Energy    =      -1.6078609943136100 [Eh]
	 SCS Total Energy          =    -721.9089347113637132 [Eh]
	-----------------------------------------------------------

  Dipole Moment: [D]
     X:    -2.9080      Y:     1.8010      Z:    -0.0621     Total:     3.4211

*** Psi4 exiting successfully. Buy a developer a beer!
