                               Psi4 1.3.2 release

  ==> Input File <==

--------------------------------------------------------------------------
#psi4
#
memory 32 gb

molecule  {
0 1
  P        0.7686836     0.0052947    -0.0017984
  O       -0.7151460    -0.6011470     0.0244450
  O        0.8729860     1.0114440     1.1973790
  O        0.8671220     0.9192840    -1.2738770
  O        1.7953140    -1.1636690     0.0390540
  C       -1.7637634     0.3969489    -0.0058911
  C       -3.0906020    -0.4663650     0.0208240
  H       -1.7354340     1.0001470     0.8651380
  H       -1.7363090     0.9469350    -0.9108340
  H       -3.9518740     0.2065980     0.0015450
  H       -3.1410370    -1.1262340    -0.8468920
  H       -3.1399160    -1.0739070     0.9260840
  H        1.4163280     0.6542800     1.9234740
  H        1.3957000     0.5030980    -1.9791460
units angstrom
no_reorient  #important for SAPT in psi4, default
symmetry c1  #important for SAPT in psi4, default
}

set PROPERTIES_ORIGIN ["COM"]
properties('MP2/aug-cc-pvtz', properties = ['dipole'])
--------------------------------------------------------------------------

    Molecular point group: c1
  Charge       = 0
  Multiplicity = 1
  Basis Set: AUG-CC-PVTZ
    Blend: AUG-CC-PVTZ
  Basis Set: (AUG-CC-PVTZ AUX)
    Blend: AUG-CC-PVTZ-JKFIT

    Orbital Energies [Eh]
    ---------------------

    Doubly Occupied:

       1A    -80.116462     2A    -20.620895     3A    -20.620719
       4A    -20.599504     5A    -20.501685     6A    -11.301213
       7A    -11.233147     8A     -7.631881     9A     -5.530473
      10A     -5.529922    11A     -5.528629    12A     -1.471842
      13A     -1.409280    14A     -1.393803    15A     -1.252541
      16A     -1.027605    17A     -0.878817    18A     -0.868797
      19A     -0.756231    20A     -0.738261    21A     -0.684227
      22A     -0.683644    23A     -0.654819    24A     -0.627777
      25A     -0.585562    26A     -0.578918    27A     -0.554533
      28A     -0.541029    29A     -0.527298    30A     -0.498520
      31A     -0.495833    32A     -0.443423    33A     -0.442639

  @DF-RHF Final Energy:  -720.28648804889986

   => Energetics <=

    Nuclear Repulsion Energy =            440.3043984052274595
    One-Electron Energy =               -1868.5219167466891577
    Two-Electron Energy =                 707.9310302925618998
    Total Energy =                       -720.2864880488998551
  Basis Set: (AUG-CC-PVTZ AUX)
    Blend: AUG-CC-PVTZ-RI
    Molecular point group: c1

    Geometry (in Angstrom), charge = 0, multiplicity = 1:

       Center              X                  Y                   Z               Mass
    ------------   -----------------  -----------------  -----------------  -----------------
         P            0.771152206017    -0.019341489702    -0.000963384893    30.973761998420
         O           -0.712677393983    -0.625783189702     0.025280015107    15.994914619570
         O            0.875454606017     0.986807810298     1.198214015107    15.994914619570
         O            0.869590606017     0.894647810298    -1.273041984893    15.994914619570
         O            1.797782606017    -1.188305189702     0.039889015107    15.994914619570
         C           -1.761294793983     0.372312710298    -0.005056084893    12.000000000000
         C           -3.088133393983    -0.491001189702     0.021659015107    12.000000000000
         H           -1.732965393983     0.975510810298     0.865973015107     1.007825032230
         H           -1.733840393983     0.922298810298    -0.909998984893     1.007825032230
         H           -3.949405393983     0.181961810298     0.002380015107     1.007825032230
         H           -3.138568393983    -1.150870189702    -0.846056984893     1.007825032230
         H           -3.137447393983    -1.098543189702     0.926919015107     1.007825032230
         H            1.418796606017     0.629643810298     1.924309015107     1.007825032230
         H            1.398168606017     0.478461810298    -1.978310984893     1.007825032230

  Basis Set: AUG-CC-PVTZ
    Blend: AUG-CC-PVTZ
  Basis Set: (AUG-CC-PVTZ AUX)
    Blend: AUG-CC-PVTZ-JKFIT
	 Reference Energy          =    -720.2864880488998551 [Eh]
	 Singles Energy            =      -0.0000000000000000 [Eh]
	 Same-Spin Energy          =      -0.4076287274708847 [Eh]
	 Opposite-Spin Energy      =      -1.2309854038828962 [Eh]
	 Correlation Energy        =      -1.6386141313537810 [Eh]
	 Total Energy              =    -721.9251021802535888 [Eh]

	 ================> DF-SCS-MP2 Energies <==================
	-----------------------------------------------------------
	 SCS Same-Spin Scale       =       0.3333333333333333 [-]
	 SCS Opposite-Spin Scale   =       1.2000000000000000 [-]
	 SCS Same-Spin Energy      =      -0.1358762424902949 [Eh]
	 SCS Opposite-Spin Energy  =      -1.4771824846594754 [Eh]
	 SCS Correlation Energy    =      -1.6130587271497703 [Eh]
	 SCS Total Energy          =    -721.8995467760496467 [Eh]
	-----------------------------------------------------------

  Dipole Moment: [D]
     X:    -2.2368      Y:     2.6927      Z:    -0.0951     Total:     3.5018

*** Psi4 exiting successfully. Buy a developer a beer!
