                               Psi4 1.3.2 release

  ==> Input File <==

--------------------------------------------------------------------------
#psi4
#
memory 32 gb

molecule  {
0 1
  P        0.7984170    -0.0731530     0.0007800
  O       -0.6913064    -0.5683495     0.0884992
  O        0.8729860     1.0114440     1.1973790
  O        0.8671220     0.9192840    -1.2738770
  O        1.7953140    -1.1636690     0.0390540
  C       -1.8145860     0.3407390    -0.0037780
  C       -3.0906020    -0.4663650     0.0208240
  H       -1.6882343     0.9716482     0.8805793
  H       -1.7363090     0.9469350    -0.9108340
  H       -3.9518740     0.2065980     0.0015450
  H       -3.1410370    -1.1262340    -0.8468920
  H       -3.1399160    -1.0739070     0.9260840
  H        1.4163280     0.6542800     1.9234740
  H        1.3957000     0.5030980    -1.9791460
units angstrom
no_reorient  #important for SAPT in psi4, default
symmetry c1  #important for SAPT in psi4, default
}

set PROPERTIES_ORIGIN ["COM"]
properties('MP2/aug-cc-pvtz', properties = ['dipole'])
--------------------------------------------------------------------------

    Molecular point group: c1
  Charge       = 0
  Multiplicity = 1
  Basis Set: AUG-CC-PVTZ
    Blend: AUG-CC-PVTZ
  Basis Set: (AUG-CC-PVTZ AUX)
    Blend: AUG-CC-PVTZ-JKFIT

    Orbital Energies [Eh]
    ---------------------

    Doubly Occupied:

       1A    -80.110347     2A    -20.610650     3A    -20.604374
       4A    -20.592564     5A    -20.517286     6A    -11.304918
       7A    -11.232992     8A     -7.626447     9A     -5.524771
      10A     -5.524634    11A     -5.523597    12A     -1.457047
      13A     -1.388712    14A     -1.382715    15A     -1.298035
      16A     -1.044101    17A     -0.878678    18A     -0.845180
      19A     -0.731798    20A     -0.730330    21A     -0.675470
      22A     -0.671771    23A     -0.643676    24A     -0.621376
      25A     -0.585107    26A     -0.570192    27A     -0.562219
      28A     -0.546386    29A     -0.531616    30A     -0.509479
      31A     -0.485315    32A     -0.472920    33A     -0.469142

  @DF-RHF Final Energy:  -720.30364619480588

   => Energetics <=

    Nuclear Repulsion Energy =            440.6369041327308196
    One-Electron Energy =               -1869.3334065687927250
    Two-Electron Energy =                 708.3928562412561405
    Total Energy =                       -720.3036461948058786
  Basis Set: (AUG-CC-PVTZ AUX)
    Blend: AUG-CC-PVTZ-RI
    Molecular point group: c1

    Geometry (in Angstrom), charge = 0, multiplicity = 1:

       Center              X                  Y                   Z               Mass
    ------------   -----------------  -----------------  -----------------  -----------------
         P            0.795013246234    -0.077088410944    -0.007474263017    30.973761998420
         O           -0.694710153766    -0.572284910944     0.080244936983    15.994914619570
         O            0.869582246234     1.007508589056     1.189124736983    15.994914619570
         O            0.863718246234     0.915348589056    -1.282131263017    15.994914619570
         O            1.791910246234    -1.167604410944     0.030799736983    15.994914619570
         C           -1.817989753766     0.336803589056    -0.012032263017    12.000000000000
         C           -3.094005753766    -0.470300410944     0.012569736983    12.000000000000
         H           -1.691638053766     0.967712789056     0.872325036983     1.007825032230
         H           -1.739712753766     0.942999589056    -0.919088263017     1.007825032230
         H           -3.955277753766     0.202662589056    -0.006709263017     1.007825032230
         H           -3.144440753766    -1.130169410944    -0.855146263017     1.007825032230
         H           -3.143319753766    -1.077842410944     0.917829736983     1.007825032230
         H            1.412924246234     0.650344589056     1.915219736983     1.007825032230
         H            1.392296246234     0.499162589056    -1.987400263017     1.007825032230

  Basis Set: AUG-CC-PVTZ
    Blend: AUG-CC-PVTZ
  Basis Set: (AUG-CC-PVTZ AUX)
    Blend: AUG-CC-PVTZ-JKFIT
	 Reference Energy          =    -720.3036461948058786 [Eh]
	 Singles Energy            =      -0.0000000000000000 [Eh]
	 Same-Spin Energy          =      -0.4067339324368782 [Eh]
	 Opposite-Spin Energy      =      -1.2291096933888350 [Eh]
	 Correlation Energy        =      -1.6358436258257132 [Eh]
	 Total Energy              =    -721.9394898206315929 [Eh]

	 ================> DF-SCS-MP2 Energies <==================
	-----------------------------------------------------------
	 SCS Same-Spin Scale       =       0.3333333333333333 [-]
	 SCS Opposite-Spin Scale   =       1.2000000000000000 [-]
	 SCS Same-Spin Energy      =      -0.1355779774789594 [Eh]
	 SCS Opposite-Spin Energy  =      -1.4749316320666019 [Eh]
	 SCS Correlation Energy    =      -1.6105096095455613 [Eh]
	 SCS Total Energy          =    -721.9141558043514806 [Eh]
	-----------------------------------------------------------

  Dipole Moment: [D]
     X:    -2.2233      Y:     1.7727      Z:    -0.2252     Total:     2.8525

*** Psi4 exiting successfully. Buy a developer a beer!
