                               Psi4 1.3.2 release

  ==> Input File <==

--------------------------------------------------------------------------
#psi4
#
memory 32 gb

molecule  {
0 1
  P        0.7984170    -0.0731530     0.0007800
  O       -0.6988679    -0.5818245     0.0238587
  O        0.8729860     1.0114440     1.1973790
  O        0.8671220     0.9192840    -1.2738770
  O        1.7953140    -1.1636690     0.0390540
  C       -1.8145860     0.3407390    -0.0037780
  C       -3.1045001    -0.4439826     0.0201510
  H       -1.7354340     1.0001470     0.8651380
  H       -1.7363090     0.9469350    -0.9108340
  H       -3.9518740     0.2065980     0.0015450
  H       -3.1410370    -1.1262340    -0.8468920
  H       -3.1399160    -1.0739070     0.9260840
  H        1.4163280     0.6542800     1.9234740
  H        1.3957000     0.5030980    -1.9791460
units angstrom
no_reorient  #important for SAPT in psi4, default
symmetry c1  #important for SAPT in psi4, default
}

set PROPERTIES_ORIGIN ["COM"]
properties('MP2/aug-cc-pvtz', properties = ['dipole'])
--------------------------------------------------------------------------

    Molecular point group: c1
  Charge       = 0
  Multiplicity = 1
  Basis Set: AUG-CC-PVTZ
    Blend: AUG-CC-PVTZ
  Basis Set: (AUG-CC-PVTZ AUX)
    Blend: AUG-CC-PVTZ-JKFIT

    Orbital Energies [Eh]
    ---------------------

    Doubly Occupied:

       1A    -80.112175     2A    -20.608619     3A    -20.608590
       4A    -20.595015     5A    -20.518160     6A    -11.304221
       7A    -11.231966     8A     -7.628057     9A     -5.526385
      10A     -5.526213    11A     -5.525222    12A     -1.456372
      13A     -1.386913    14A     -1.385019    15A     -1.298797
      16A     -1.043558    17A     -0.876745    18A     -0.846017
      19A     -0.732819    20A     -0.730216    21A     -0.675986
      22A     -0.669902    23A     -0.643794    24A     -0.621832
      25A     -0.588646    26A     -0.567181    27A     -0.562598
      28A     -0.550371    29A     -0.529332    30A     -0.508083
      31A     -0.483895    32A     -0.473976    33A     -0.470126

  @DF-RHF Final Energy:  -720.30422348229297

   => Energetics <=

    Nuclear Repulsion Energy =            440.0435839461774208
    One-Electron Energy =               -1868.1220152945872996
    Two-Electron Energy =                 707.7742078661168534
    Total Energy =                       -720.3042234822929686
  Basis Set: (AUG-CC-PVTZ AUX)
    Blend: AUG-CC-PVTZ-RI
    Molecular point group: c1

    Geometry (in Angstrom), charge = 0, multiplicity = 1:

       Center              X                  Y                   Z               Mass
    ------------   -----------------  -----------------  -----------------  -----------------
         P            0.797674119078    -0.077737409441     0.000918503828    30.973761998420
         O           -0.699610780922    -0.586408909441     0.023997203828    15.994914619570
         O            0.872243119078     1.006859590559     1.197517503828    15.994914619570
         O            0.866379119078     0.914699590559    -1.273738496172    15.994914619570
         O            1.794571119078    -1.168253409441     0.039192503828    15.994914619570
         C           -1.815328880922     0.336154590559    -0.003639496172    12.000000000000
         C           -3.105242980922    -0.448567009441     0.020289503828    12.000000000000
         H           -1.736176880922     0.995562590559     0.865276503828     1.007825032230
         H           -1.737051880922     0.942350590559    -0.910695496172     1.007825032230
         H           -3.952616880922     0.202013590559     0.001683503828     1.007825032230
         H           -3.141779880922    -1.130818409441    -0.846753496172     1.007825032230
         H           -3.140658880922    -1.078491409441     0.926222503828     1.007825032230
         H            1.415585119078     0.649695590559     1.923612503828     1.007825032230
         H            1.394957119078     0.498513590559    -1.979007496172     1.007825032230

  Basis Set: AUG-CC-PVTZ
    Blend: AUG-CC-PVTZ
  Basis Set: (AUG-CC-PVTZ AUX)
    Blend: AUG-CC-PVTZ-JKFIT
	 Reference Energy          =    -720.3042234822929686 [Eh]
	 Singles Energy            =      -0.0000000000000000 [Eh]
	 Same-Spin Energy          =      -0.4067512560718017 [Eh]
	 Opposite-Spin Energy      =      -1.2293077019536980 [Eh]
	 Correlation Energy        =      -1.6360589580254996 [Eh]
	 Total Energy              =    -721.9402824403184695 [Eh]

	 ================> DF-SCS-MP2 Energies <==================
	-----------------------------------------------------------
	 SCS Same-Spin Scale       =       0.3333333333333333 [-]
	 SCS Opposite-Spin Scale   =       1.2000000000000000 [-]
	 SCS Same-Spin Energy      =      -0.1355837520239339 [Eh]
	 SCS Opposite-Spin Energy  =      -1.4751692423444376 [Eh]
	 SCS Correlation Energy    =      -1.6107529943683714 [Eh]
	 SCS Total Energy          =    -721.9149764766613089 [Eh]
	-----------------------------------------------------------

  Dipole Moment: [D]
     X:    -2.1521      Y:     1.8259      Z:    -0.0659     Total:     2.8231

*** Psi4 exiting successfully. Buy a developer a beer!
