                               Psi4 1.3.2 release

  ==> Input File <==

--------------------------------------------------------------------------
#psi4
#
memory 32 gb

molecule  {
0 1
  P        0.7790509    -0.0206803    -0.0009466
  O       -0.7151460    -0.6011470     0.0244450
  O        0.8729860     1.0114440     1.1973790
  O        0.8671220     0.9192840    -1.2738770
  O        1.7953140    -1.1636690     0.0390540
  C       -1.7810307     0.3785087    -0.0051957
  C       -3.0906020    -0.4663650     0.0208240
  H       -1.7354340     1.0001470     0.8651380
  H       -1.7363090     0.9469350    -0.9108340
  H       -3.9518740     0.2065980     0.0015450
  H       -3.1410370    -1.1262340    -0.8468920
  H       -3.1399160    -1.0739070     0.9260840
  H        1.4163280     0.6542800     1.9234740
  H        1.3957000     0.5030980    -1.9791460
units angstrom
no_reorient  #important for SAPT in psi4, default
symmetry c1  #important for SAPT in psi4, default
}

set PROPERTIES_ORIGIN ["COM"]
properties('MP2/aug-cc-pvtz', properties = ['dipole'])
--------------------------------------------------------------------------

    Molecular point group: c1
  Charge       = 0
  Multiplicity = 1
  Basis Set: AUG-CC-PVTZ
    Blend: AUG-CC-PVTZ
  Basis Set: (AUG-CC-PVTZ AUX)
    Blend: AUG-CC-PVTZ-JKFIT

    Orbital Energies [Eh]
    ---------------------

    Doubly Occupied:

       1A    -80.116023     2A    -20.617607     3A    -20.617476
       4A    -20.597797     5A    -20.507665     6A    -11.301363
       7A    -11.232125     8A     -7.631288     9A     -5.529821
      10A     -5.529361    11A     -5.528160    12A     -1.465690
      13A     -1.401842    14A     -1.390815    15A     -1.268200
      16A     -1.031510    17A     -0.876405    18A     -0.862226
      19A     -0.747361    20A     -0.736069    21A     -0.681414
      22A     -0.678936    23A     -0.651469    24A     -0.624689
      25A     -0.584431    26A     -0.575175    27A     -0.556109
      28A     -0.538483    29A     -0.534693    30A     -0.501356
      31A     -0.493761    32A     -0.453121    33A     -0.453030

  @DF-RHF Final Energy:  -720.29578435954488

   => Energetics <=

    Nuclear Repulsion Energy =            439.9775266243882470
    One-Electron Energy =               -1867.9156841144317696
    Two-Electron Energy =                 707.6423731304986404
    Total Energy =                       -720.2957843595448821
  Basis Set: (AUG-CC-PVTZ AUX)
    Blend: AUG-CC-PVTZ-RI
    Molecular point group: c1

    Geometry (in Angstrom), charge = 0, multiplicity = 1:

       Center              X                  Y                   Z               Mass
    ------------   -----------------  -----------------  -----------------  -----------------
         P            0.780615543524    -0.037175544090    -0.000387188002    30.973761998420
         O           -0.713581356476    -0.617642244090     0.025004411998    15.994914619570
         O            0.874550643524     0.994948755910     1.197938411998    15.994914619570
         O            0.868686643524     0.902788755910    -1.273317588002    15.994914619570
         O            1.796878643524    -1.180164244090     0.039613411998    15.994914619570
         C           -1.779466056476     0.362013455910    -0.004636288002    12.000000000000
         C           -3.089037356476    -0.482860244090     0.021383411998    12.000000000000
         H           -1.733869356476     0.983651755910     0.865697411998     1.007825032230
         H           -1.734744356476     0.930439755910    -0.910274588002     1.007825032230
         H           -3.950309356476     0.190102755910     0.002104411998     1.007825032230
         H           -3.139472356476    -1.142729244090    -0.846332588002     1.007825032230
         H           -3.138351356476    -1.090402244090     0.926643411998     1.007825032230
         H            1.417892643524     0.637784755910     1.924033411998     1.007825032230
         H            1.397264643524     0.486602755910    -1.978586588002     1.007825032230

  Basis Set: AUG-CC-PVTZ
    Blend: AUG-CC-PVTZ
  Basis Set: (AUG-CC-PVTZ AUX)
    Blend: AUG-CC-PVTZ-JKFIT
	 Reference Energy          =    -720.2957843595448821 [Eh]
	 Singles Energy            =      -0.0000000000000000 [Eh]
	 Same-Spin Energy          =      -0.4073781727636779 [Eh]
	 Opposite-Spin Energy      =      -1.2305740185537011 [Eh]
	 Correlation Energy        =      -1.6379521913173791 [Eh]
	 Total Energy              =    -721.9337365508622497 [Eh]

	 ================> DF-SCS-MP2 Energies <==================
	-----------------------------------------------------------
	 SCS Same-Spin Scale       =       0.3333333333333333 [-]
	 SCS Opposite-Spin Scale   =       1.2000000000000000 [-]
	 SCS Same-Spin Energy      =      -0.1357927242545593 [Eh]
	 SCS Opposite-Spin Energy  =      -1.4766888222644412 [Eh]
	 SCS Correlation Energy    =      -1.6124815465190006 [Eh]
	 SCS Total Energy          =    -721.9082659060638889 [Eh]
	-----------------------------------------------------------

  Dipole Moment: [D]
     X:    -2.1525      Y:     2.4205      Z:    -0.0860     Total:     3.2403

*** Psi4 exiting successfully. Buy a developer a beer!
