                               Psi4 1.3.2 release

  ==> Input File <==

--------------------------------------------------------------------------
#psi4
#
memory 32 gb

molecule  {
0 1
  P        0.7984170    -0.0731530     0.0007800
  O       -0.7194141    -0.6063646     0.0137570
  O        0.8729860     1.0114440     1.1973790
  O        0.8671220     0.9192840    -1.2738770
  O        1.7953140    -1.1636690     0.0390540
  C       -1.8145860     0.3407390    -0.0037780
  C       -3.0906020    -0.4663650     0.0208240
  H       -1.7433252     1.0047231     0.8623317
  H       -1.7363090     0.9469350    -0.9108340
  H       -3.9518740     0.2065980     0.0015450
  H       -3.1410370    -1.1262340    -0.8468920
  H       -3.1399160    -1.0739070     0.9260840
  H        1.4163280     0.6542800     1.9234740
  H        1.3957000     0.5030980    -1.9791460
units angstrom
no_reorient  #important for SAPT in psi4, default
symmetry c1  #important for SAPT in psi4, default
}

set PROPERTIES_ORIGIN ["COM"]
properties('MP2/aug-cc-pvtz', properties = ['dipole'])
--------------------------------------------------------------------------

    Molecular point group: c1
  Charge       = 0
  Multiplicity = 1
  Basis Set: AUG-CC-PVTZ
    Blend: AUG-CC-PVTZ
  Basis Set: (AUG-CC-PVTZ AUX)
    Blend: AUG-CC-PVTZ-JKFIT

    Orbital Energies [Eh]
    ---------------------

    Doubly Occupied:

       1A    -80.115434     2A    -20.611749     3A    -20.610707
       4A    -20.595074     5A    -20.519588     6A    -11.301847
       7A    -11.229784     8A     -7.630839     9A     -5.529203
      10A     -5.528858    11A     -5.528022    12A     -1.454162
      13A     -1.387207    14A     -1.383843    15A     -1.300059
      16A     -1.039896    17A     -0.872049    18A     -0.848239
      19A     -0.731242    20A     -0.730088    21A     -0.677143
      22A     -0.669721    23A     -0.645502    24A     -0.619832
      25A     -0.584422    26A     -0.568657    27A     -0.563001
      28A     -0.544053    29A     -0.532079    30A     -0.508065
      31A     -0.484348    32A     -0.474460    33A     -0.470977

  @DF-RHF Final Energy:  -720.30314785000860

   => Energetics <=

    Nuclear Repulsion Energy =            439.1883645003495644
    One-Electron Energy =               -1866.4027207907381580
    Two-Electron Energy =                 706.9112084403800509
    Total Energy =                       -720.3031478500085996
  Basis Set: (AUG-CC-PVTZ AUX)
    Blend: AUG-CC-PVTZ-RI
    Molecular point group: c1

    Geometry (in Angstrom), charge = 0, multiplicity = 1:

       Center              X                  Y                   Z               Mass
    ------------   -----------------  -----------------  -----------------  -----------------
         P            0.799021733515    -0.072527480892     0.002159122246    30.973761998420
         O           -0.718809366485    -0.605739080892     0.015136122246    15.994914619570
         O            0.873590733515     1.012069519108     1.198758122246    15.994914619570
         O            0.867726733515     0.919909519108    -1.272497877754    15.994914619570
         O            1.795918733515    -1.163043480892     0.040433122246    15.994914619570
         C           -1.813981266485     0.341364519108    -0.002398877754    12.000000000000
         C           -3.089997266485    -0.465739480892     0.022203122246    12.000000000000
         H           -1.742720466485     1.005348619108     0.863710822246     1.007825032230
         H           -1.735704266485     0.947560519108    -0.909454877754     1.007825032230
         H           -3.951269266485     0.207223519108     0.002924122246     1.007825032230
         H           -3.140432266485    -1.125608480892    -0.845512877754     1.007825032230
         H           -3.139311266485    -1.073281480892     0.927463122246     1.007825032230
         H            1.416932733515     0.654905519108     1.924853122246     1.007825032230
         H            1.396304733515     0.503723519108    -1.977766877754     1.007825032230

  Basis Set: AUG-CC-PVTZ
    Blend: AUG-CC-PVTZ
  Basis Set: (AUG-CC-PVTZ AUX)
    Blend: AUG-CC-PVTZ-JKFIT
	 Reference Energy          =    -720.3031478500085996 [Eh]
	 Singles Energy            =      -0.0000000000000000 [Eh]
	 Same-Spin Energy          =      -0.4071404651907182 [Eh]
	 Opposite-Spin Energy      =      -1.2303695153841190 [Eh]
	 Correlation Energy        =      -1.6375099805748372 [Eh]
	 Total Energy              =    -721.9406578305834046 [Eh]

	 ================> DF-SCS-MP2 Energies <==================
	-----------------------------------------------------------
	 SCS Same-Spin Scale       =       0.3333333333333333 [-]
	 SCS Opposite-Spin Scale   =       1.2000000000000000 [-]
	 SCS Same-Spin Energy      =      -0.1357134883969061 [Eh]
	 SCS Opposite-Spin Energy  =      -1.4764434184609427 [Eh]
	 SCS Correlation Energy    =      -1.6121569068578487 [Eh]
	 SCS Total Energy          =    -721.9153047568664761 [Eh]
	-----------------------------------------------------------

  Dipole Moment: [D]
     X:    -1.9819      Y:     1.8847      Z:    -0.0419     Total:     2.7353

*** Psi4 exiting successfully. Buy a developer a beer!
