                               Psi4 1.3.2 release

  ==> Input File <==

--------------------------------------------------------------------------
#psi4
#
memory 32 gb

molecule  {
0 1
  P        0.7984170    -0.0731530     0.0007800
  O       -0.7659694    -0.6573699     0.0261516
  O        0.8729860     1.0114440     1.1973790
  O        0.8671220     0.9192840    -1.2738770
  O        1.7953140    -1.1636690     0.0390540
  C       -1.8145860     0.3407390    -0.0037780
  C       -3.0465931    -0.5320102     0.0227972
  H       -1.7354340     1.0001470     0.8651380
  H       -1.7363090     0.9469350    -0.9108340
  H       -3.9518740     0.2065980     0.0015450
  H       -3.1410370    -1.1262340    -0.8468920
  H       -3.1399160    -1.0739070     0.9260840
  H        1.4163280     0.6542800     1.9234740
  H        1.3957000     0.5030980    -1.9791460
units angstrom
no_reorient  #important for SAPT in psi4, default
symmetry c1  #important for SAPT in psi4, default
}

set PROPERTIES_ORIGIN ["COM"]
properties('MP2/aug-cc-pvtz', properties = ['dipole'])
--------------------------------------------------------------------------

    Molecular point group: c1
  Charge       = 0
  Multiplicity = 1
  Basis Set: AUG-CC-PVTZ
    Blend: AUG-CC-PVTZ
  Basis Set: (AUG-CC-PVTZ AUX)
    Blend: AUG-CC-PVTZ-JKFIT

    Orbital Energies [Eh]
    ---------------------

    Doubly Occupied:

       1A    -80.121623     2A    -20.616787     3A    -20.616713
       4A    -20.594331     5A    -20.522390     6A    -11.297833
       7A    -11.227059     8A     -7.636252     9A     -5.534641
      10A     -5.534019    11A     -5.533428    12A     -1.451963
      13A     -1.391716    14A     -1.376062    15A     -1.302583
      16A     -1.032220    17A     -0.864761    18A     -0.853255
      19A     -0.730940    20A     -0.726323    21A     -0.679791
      22A     -0.671692    23A     -0.649543    24A     -0.615811
      25A     -0.580016    26A     -0.574811    27A     -0.564053
      28A     -0.540161    29A     -0.525321    30A     -0.503262
      31A     -0.485560    32A     -0.472596    33A     -0.470888

  @DF-RHF Final Energy:  -720.28737530319404

   => Energetics <=

    Nuclear Repulsion Energy =            437.5921039668806998
    One-Electron Energy =               -1863.1621482627033402
    Two-Electron Energy =                 705.2826689926287145
    Total Energy =                       -720.2873753031940396
  Basis Set: (AUG-CC-PVTZ AUX)
    Blend: AUG-CC-PVTZ-RI
    Molecular point group: c1

    Geometry (in Angstrom), charge = 0, multiplicity = 1:

       Center              X                  Y                   Z               Mass
    ------------   -----------------  -----------------  -----------------  -----------------
         P            0.800677088538    -0.059764979867     0.000375450740    30.973761998420
         O           -0.763709311462    -0.643981879867     0.025747050740    15.994914619570
         O            0.875246088538     1.024832020133     1.196974450740    15.994914619570
         O            0.869382088538     0.932672020133    -1.274281549260    15.994914619570
         O            1.797574088538    -1.150280979867     0.038649450740    15.994914619570
         C           -1.812325911462     0.354127020133    -0.004182549260    12.000000000000
         C           -3.044333011462    -0.518622179867     0.022392650740    12.000000000000
         H           -1.733173911462     1.013535020133     0.864733450740     1.007825032230
         H           -1.734048911462     0.960323020133    -0.911238549260     1.007825032230
         H           -3.949613911462     0.219986020133     0.001140450740     1.007825032230
         H           -3.138776911462    -1.112845979867    -0.847296549260     1.007825032230
         H           -3.137655911462    -1.060518979867     0.925679450740     1.007825032230
         H            1.418588088538     0.667668020133     1.923069450740     1.007825032230
         H            1.397960088538     0.516486020133    -1.979550549260     1.007825032230

  Basis Set: AUG-CC-PVTZ
    Blend: AUG-CC-PVTZ
  Basis Set: (AUG-CC-PVTZ AUX)
    Blend: AUG-CC-PVTZ-JKFIT
	 Reference Energy          =    -720.2873753031940396 [Eh]
	 Singles Energy            =      -0.0000000000000000 [Eh]
	 Same-Spin Energy          =      -0.4083182446184477 [Eh]
	 Opposite-Spin Energy      =      -1.2334733413180223 [Eh]
	 Correlation Energy        =      -1.6417915859364700 [Eh]
	 Total Energy              =    -721.9291668891305562 [Eh]

	 ================> DF-SCS-MP2 Energies <==================
	-----------------------------------------------------------
	 SCS Same-Spin Scale       =       0.3333333333333333 [-]
	 SCS Opposite-Spin Scale   =       1.2000000000000000 [-]
	 SCS Same-Spin Energy      =      -0.1361060815394826 [Eh]
	 SCS Opposite-Spin Energy  =      -1.4801680095816268 [Eh]
	 SCS Correlation Energy    =      -1.6162740911211093 [Eh]
	 SCS Total Energy          =    -721.9036493943151527 [Eh]
	-----------------------------------------------------------

  Dipole Moment: [D]
     X:    -1.6071      Y:     1.9850      Z:    -0.0723     Total:     2.5550

*** Psi4 exiting successfully. Buy a developer a beer!
