                               Psi4 1.3.2 release

  ==> Input File <==

--------------------------------------------------------------------------
#psi4
#
memory 32 gb

molecule  {
0 1
  P        0.7984170    -0.0731530     0.0007800
  O       -0.7056917    -0.6274644     0.0254062
  O        0.8729860     1.0114440     1.1973790
  O        0.8671220     0.9192840    -1.2738770
  O        1.7761184    -1.1808872     0.0397482
  C       -1.8145860     0.3407390    -0.0037780
  C       -3.0906020    -0.4663650     0.0208240
  H       -1.7354340     1.0001470     0.8651380
  H       -1.7363090     0.9469350    -0.9108340
  H       -3.9518740     0.2065980     0.0015450
  H       -3.1410370    -1.1262340    -0.8468920
  H       -3.1399160    -1.0739070     0.9260840
  H        1.4163280     0.6542800     1.9234740
  H        1.3957000     0.5030980    -1.9791460
units angstrom
no_reorient  #important for SAPT in psi4, default
symmetry c1  #important for SAPT in psi4, default
}

set PROPERTIES_ORIGIN ["COM"]
properties('MP2/aug-cc-pvtz', properties = ['dipole'])
--------------------------------------------------------------------------

    Molecular point group: c1
  Charge       = 0
  Multiplicity = 1
  Basis Set: AUG-CC-PVTZ
    Blend: AUG-CC-PVTZ
  Basis Set: (AUG-CC-PVTZ AUX)
    Blend: AUG-CC-PVTZ-JKFIT

    Orbital Energies [Eh]
    ---------------------

    Doubly Occupied:

       1A    -80.113179     2A    -20.611635     3A    -20.611595
       4A    -20.594126     5A    -20.516504     6A    -11.304469
       7A    -11.230980     8A     -7.628798     9A     -5.527151
      10A     -5.526742    11A     -5.526026    12A     -1.452938
      13A     -1.387385    14A     -1.379542    15A     -1.297216
      16A     -1.040740    17A     -0.869862    18A     -0.848999
      19A     -0.729642    20A     -0.728603    21A     -0.676223
      22A     -0.668265    23A     -0.645430    24A     -0.618198
      25A     -0.583040    26A     -0.568892    27A     -0.562131
      28A     -0.543024    29A     -0.531688    30A     -0.511379
      31A     -0.486919    32A     -0.471084    33A     -0.469219

  @DF-RHF Final Energy:  -720.30220957864776

   => Energetics <=

    Nuclear Repulsion Energy =            439.0135736026099949
    One-Electron Energy =               -1866.1083137052648908
    Two-Electron Energy =                 706.7925305240071339
    Total Energy =                       -720.3022095786477621
  Basis Set: (AUG-CC-PVTZ AUX)
    Blend: AUG-CC-PVTZ-RI
    Molecular point group: c1

    Geometry (in Angstrom), charge = 0, multiplicity = 1:

       Center              X                  Y                   Z               Mass
    ------------   -----------------  -----------------  -----------------  -----------------
         P            0.799653362413    -0.067626965945     0.000569861425    30.973761998420
         O           -0.704455337587    -0.621938365945     0.025196061425    15.994914619570
         O            0.874222362413     1.016970034055     1.197168861425    15.994914619570
         O            0.868358362413     0.924810034055    -1.274087138575    15.994914619570
         O            1.777354762413    -1.175361165945     0.039538061425    15.994914619570
         C           -1.813349637587     0.346265034055    -0.003988138575    12.000000000000
         C           -3.089365637587    -0.460838965945     0.020613861425    12.000000000000
         H           -1.734197637587     1.005673034055     0.864927861425     1.007825032230
         H           -1.735072637587     0.952461034055    -0.911044138575     1.007825032230
         H           -3.950637637587     0.212124034055     0.001334861425     1.007825032230
         H           -3.139800637587    -1.120707965945    -0.847102138575     1.007825032230
         H           -3.138679637587    -1.068380965945     0.925873861425     1.007825032230
         H            1.417564362413     0.659806034055     1.923263861425     1.007825032230
         H            1.396936362413     0.508624034055    -1.979356138575     1.007825032230

  Basis Set: AUG-CC-PVTZ
    Blend: AUG-CC-PVTZ
  Basis Set: (AUG-CC-PVTZ AUX)
    Blend: AUG-CC-PVTZ-JKFIT
	 Reference Energy          =    -720.3022095786477621 [Eh]
	 Singles Energy            =      -0.0000000000000000 [Eh]
	 Same-Spin Energy          =      -0.4071779726332387 [Eh]
	 Opposite-Spin Energy      =      -1.2307126119605456 [Eh]
	 Correlation Energy        =      -1.6378905845937843 [Eh]
	 Total Energy              =    -721.9401001632415955 [Eh]

	 ================> DF-SCS-MP2 Energies <==================
	-----------------------------------------------------------
	 SCS Same-Spin Scale       =       0.3333333333333333 [-]
	 SCS Opposite-Spin Scale   =       1.2000000000000000 [-]
	 SCS Same-Spin Energy      =      -0.1357259908777462 [Eh]
	 SCS Opposite-Spin Energy  =      -1.4768551343526546 [Eh]
	 SCS Correlation Energy    =      -1.6125811252304008 [Eh]
	 SCS Total Energy          =    -721.9147907038781113 [Eh]
	-----------------------------------------------------------

  Dipole Moment: [D]
     X:    -2.0532      Y:     1.9985      Z:    -0.0723     Total:     2.8662

*** Psi4 exiting successfully. Buy a developer a beer!
