                               Psi4 1.3.2 release

  ==> Input File <==

--------------------------------------------------------------------------
#psi4
#
memory 32 gb

molecule  {
0 1
  P        0.7984170    -0.0731530     0.0007800
  O       -0.7151460    -0.6011470     0.0244450
  O        0.8729860     1.0114440     1.1973790
  O        0.8671220     0.9192840    -1.2738770
  O        1.6604162    -1.0161029     0.0338749
  C       -1.8145860     0.3407390    -0.0037780
  C       -3.0906020    -0.4663650     0.0208240
  H       -1.7354340     1.0001470     0.8651380
  H       -1.7363090     0.9469350    -0.9108340
  H       -3.9518740     0.2065980     0.0015450
  H       -3.1410370    -1.1262340    -0.8468920
  H       -3.1399160    -1.0739070     0.9260840
  H        1.4163280     0.6542800     1.9234740
  H        1.3957000     0.5030980    -1.9791460
units angstrom
no_reorient  #important for SAPT in psi4, default
symmetry c1  #important for SAPT in psi4, default
}

set PROPERTIES_ORIGIN ["COM"]
properties('MP2/aug-cc-pvtz', properties = ['dipole'])
--------------------------------------------------------------------------

    Molecular point group: c1
  Charge       = 0
  Multiplicity = 1
  Basis Set: AUG-CC-PVTZ
    Blend: AUG-CC-PVTZ
  Basis Set: (AUG-CC-PVTZ AUX)
    Blend: AUG-CC-PVTZ-JKFIT

    Orbital Energies [Eh]
    ---------------------

    Doubly Occupied:

       1A    -80.065123     2A    -20.595293     3A    -20.595249
       4A    -20.581079     5A    -20.509342     6A    -11.293805
       7A    -11.224804     8A     -7.596815     9A     -5.497924
      10A     -5.492312    11A     -5.491920    12A     -1.470320
      13A     -1.374591    14A     -1.373915    15A     -1.372372
      16A     -1.033111    17A     -0.862870    18A     -0.834875
      19A     -0.725779    20A     -0.721080    21A     -0.673081
      22A     -0.661954    23A     -0.655186    24A     -0.614701
      25A     -0.596055    26A     -0.575727    27A     -0.560012
      28A     -0.542915    29A     -0.523629    30A     -0.516390
      31A     -0.513581    32A     -0.498566    33A     -0.472234

  @DF-RHF Final Energy:  -720.25270695312543

   => Energetics <=

    Nuclear Repulsion Energy =            449.5025145349097784
    One-Electron Energy =               -1887.2772222278390473
    Two-Electron Energy =                 717.5220007398038433
    Total Energy =                       -720.2527069531254256
  Basis Set: (AUG-CC-PVTZ AUX)
    Blend: AUG-CC-PVTZ-RI
    Molecular point group: c1

    Geometry (in Angstrom), charge = 0, multiplicity = 1:

       Center              X                  Y                   Z               Mass
    ------------   -----------------  -----------------  -----------------  -----------------
         P            0.815540166604    -0.091884557748     0.001437402170    30.973761998420
         O           -0.698022833396    -0.619878557748     0.025102402170    15.994914619570
         O            0.890109166604     0.992712442252     1.198036402170    15.994914619570
         O            0.884245166604     0.900552442252    -1.273219597830    15.994914619570
         O            1.677539366604    -1.034834457748     0.034532302170    15.994914619570
         C           -1.797462833396     0.322007442252    -0.003120597830    12.000000000000
         C           -3.073478833396    -0.485096557748     0.021481402170    12.000000000000
         H           -1.718310833396     0.981415442252     0.865795402170     1.007825032230
         H           -1.719185833396     0.928203442252    -0.910176597830     1.007825032230
         H           -3.934750833396     0.187866442252     0.002202402170     1.007825032230
         H           -3.123913833396    -1.144965557748    -0.846234597830     1.007825032230
         H           -3.122792833396    -1.092638557748     0.926741402170     1.007825032230
         H            1.433451166604     0.635548442252     1.924131402170     1.007825032230
         H            1.412823166604     0.484366442252    -1.978488597830     1.007825032230

  Basis Set: AUG-CC-PVTZ
    Blend: AUG-CC-PVTZ
  Basis Set: (AUG-CC-PVTZ AUX)
    Blend: AUG-CC-PVTZ-JKFIT
	 Reference Energy          =    -720.2527069531254256 [Eh]
	 Singles Energy            =      -0.0000000000000000 [Eh]
	 Same-Spin Energy          =      -0.4023726105722456 [Eh]
	 Opposite-Spin Energy      =      -1.2192370487670023 [Eh]
	 Correlation Energy        =      -1.6216096593392479 [Eh]
	 Total Energy              =    -721.8743166124646677 [Eh]

	 ================> DF-SCS-MP2 Energies <==================
	-----------------------------------------------------------
	 SCS Same-Spin Scale       =       0.3333333333333333 [-]
	 SCS Opposite-Spin Scale   =       1.2000000000000000 [-]
	 SCS Same-Spin Energy      =      -0.1341242035240819 [Eh]
	 SCS Opposite-Spin Energy  =      -1.4630844585204028 [Eh]
	 SCS Correlation Energy    =      -1.5972086620444848 [Eh]
	 SCS Total Energy          =    -721.8499156151699481 [Eh]
	-----------------------------------------------------------

  Dipole Moment: [D]
     X:    -1.2432      Y:     1.1157      Z:    -0.0414     Total:     1.6709

*** Psi4 exiting successfully. Buy a developer a beer!
