                               Psi4 1.4a3.dev225

  ==> Input File <==

--------------------------------------------------------------------------
#psi4
#
memory 32 gb

molecule  {
0 1
  P        0.8768730    -0.1227020    -0.0963880
  O       -0.6616900    -0.4669690    -0.3477670
  O        1.0437430     0.0794150     1.5121170
  O        0.9276490     1.4110650    -0.6042510
  O        1.8284920    -1.0938460    -0.6752860
  C       -1.7164271     0.4259184     0.1677260
  C       -3.0206860    -0.2869630    -0.0679060
  H       -1.5201960     0.5987390     1.2233000
  H       -1.6444250     1.3614050    -0.3799660
  H       -3.8417660     0.3429090     0.2865800
  H       -3.1647720    -0.4853110    -1.1316920
  H       -3.0471290    -1.2354240     0.4720910
  H        1.4666950    -0.7151170     1.8872290
  H        1.8298220     1.7749190    -0.5472100
units angstrom
no_reorient  #important for SAPT in psi4, default
symmetry c1  #important for SAPT in psi4, default
}

set PROPERTIES_ORIGIN ["COM"]
properties('MP2/aug-cc-pvtz', properties = ['dipole'])
--------------------------------------------------------------------------

    Molecular point group: c1
  Charge       = 0
  Multiplicity = 1
  Basis Set: AUG-CC-PVTZ
    Blend: AUG-CC-PVTZ
  Basis Set: (AUG-CC-PVTZ AUX)
    Blend: AUG-CC-PVTZ-JKFIT

    Orbital Energies [Eh]
    ---------------------

    Doubly Occupied:

       1A    -80.112954     2A    -20.611842     3A    -20.609514
       4A    -20.593891     5A    -20.516397     6A    -11.304428
       7A    -11.231446     8A     -7.628243     9A     -5.526691
      10A     -5.526463    11A     -5.525209    12A     -1.451829
      13A     -1.384024    14A     -1.378910    15A     -1.296685
      16A     -1.043665    17A     -0.872529    18A     -0.842670
      19A     -0.753632    20A     -0.716699    21A     -0.673813
      22A     -0.668816    23A     -0.638954    24A     -0.602803
      25A     -0.589587    26A     -0.569704    27A     -0.559884
      28A     -0.544517    29A     -0.535253    30A     -0.514454
      31A     -0.488682    32A     -0.470951    33A     -0.467712

  @DF-RHF Final Energy:  -720.30254057712614

   => Energetics <=

    Nuclear Repulsion Energy =            438.9965434188490576
    One-Electron Energy =               -1866.0924646931482584
    Two-Electron Energy =                 706.7933806971730064
    Total Energy =                       -720.3025405771261376
  Basis Set: (AUG-CC-PVTZ AUX)
    Blend: AUG-CC-PVTZ-RI
    Molecular point group: c1

    Geometry (in Angstrom), charge = 0, multiplicity = 1:

       Center              X                  Y                   Z               Mass
    ------------   -----------------  -----------------  -----------------  -----------------
         P            0.793462280102    -0.109979728932    -0.082059032860    30.973761998420
         O           -0.745100719898    -0.454246728932    -0.333438032860    15.994914619570
         O            0.960332280102     0.092137271068     1.526445967140    15.994914619570
         O            0.844238280102     1.423787271068    -0.589922032860    15.994914619570
         O            1.745081280102    -1.081123728932    -0.660957032860    15.994914619570
         C           -1.799837819898     0.438640671068     0.182054967140    12.000000000000
         C           -3.104096719898    -0.274240728932    -0.053577032860    12.000000000000
         H           -1.603606719898     0.611461271068     1.237628967140     1.007825032230
         H           -1.727835719898     1.374127271068    -0.365637032860     1.007825032230
         H           -3.925176719898     0.355631271068     0.300908967140     1.007825032230
         H           -3.248182719898    -0.472588728932    -1.117363032860     1.007825032230
         H           -3.130539719898    -1.222701728932     0.486419967140     1.007825032230
         H            1.383284280102    -0.702394728932     1.901557967140     1.007825032230
         H            1.746411280102     1.787641271068    -0.532881032860     1.007825032230

  Basis Set: AUG-CC-PVTZ
    Blend: AUG-CC-PVTZ
  Basis Set: (AUG-CC-PVTZ AUX)
    Blend: AUG-CC-PVTZ-JKFIT
	 Reference Energy          =    -720.3025405771261376 [Eh]
	 Singles Energy            =      -0.0000000000000000 [Eh]
	 Same-Spin Energy          =      -0.4072621381816526 [Eh]
	 Opposite-Spin Energy      =      -1.2309174786003165 [Eh]
	 Correlation Energy        =      -1.6381796167819691 [Eh]
	 Total Energy              =    -721.9407201939080778 [Eh]

	 ================> DF-SCS-MP2 Energies <==================
	-----------------------------------------------------------
	 SCS Same-Spin Scale       =       0.3333333333333333 [-]
	 SCS Opposite-Spin Scale   =       1.2000000000000000 [-]
	 SCS Same-Spin Energy      =      -0.1357540460605509 [Eh]
	 SCS Opposite-Spin Energy  =      -1.4771009743203798 [Eh]
	 SCS Correlation Energy    =      -1.6128550203809306 [Eh]
	 SCS Total Energy          =    -721.9153955975070858 [Eh]
	-----------------------------------------------------------

  Dipole Moment: [D]
     X:    -1.6529      Y:     2.1932      Z:     2.2366     Total:     3.5418

*** Psi4 exiting successfully. Buy a developer a beer!
