                               Psi4 1.3.2 release

  ==> Input File <==

--------------------------------------------------------------------------
#psi4
#
memory 32 gb

molecule  {
0 1
  P        0.8308839    -0.1076939     0.0313952
  O       -0.7151460    -0.6011470     0.0244450
  O        0.8729860     1.0114440     1.1973790
  O        0.8671220     0.9192840    -1.2738770
  O        1.7953140    -1.1636690     0.0390540
  C       -1.8145860     0.3407390    -0.0037780
  C       -3.0906020    -0.4663650     0.0208240
  H       -1.7354340     1.0001470     0.8651380
  H       -1.7363090     0.9469350    -0.9108340
  H       -3.9518740     0.2065980     0.0015450
  H       -3.1410370    -1.1262340    -0.8468920
  H       -3.1399160    -1.0739070     0.9260840
  H        1.4209914     0.6259360     1.9052450
  H        1.3957000     0.5030980    -1.9791460
units angstrom
no_reorient  #important for SAPT in psi4, default
symmetry c1  #important for SAPT in psi4, default
}

set PROPERTIES_ORIGIN ["COM"]
properties('MP2/aug-cc-pvtz', properties = ['dipole'])
--------------------------------------------------------------------------

    Molecular point group: c1
  Charge       = 0
  Multiplicity = 1
  Basis Set: AUG-CC-PVTZ
    Blend: AUG-CC-PVTZ
  Basis Set: (AUG-CC-PVTZ AUX)
    Blend: AUG-CC-PVTZ-JKFIT

    Orbital Energies [Eh]
    ---------------------

    Doubly Occupied:

       1A    -80.113047     2A    -20.615623     3A    -20.600112
       4A    -20.589373     5A    -20.531001     6A    -11.298620
       7A    -11.227786     8A     -7.629861     9A     -5.528009
      10A     -5.527696    11A     -5.527320    12A     -1.450406
      13A     -1.383502    14A     -1.369243    15A     -1.329848
      16A     -1.036602    17A     -0.868587    18A     -0.838261
      19A     -0.725305    20A     -0.716669    21A     -0.680752
      22A     -0.663428    23A     -0.644894    24A     -0.614556
      25A     -0.586425    26A     -0.571445    27A     -0.562490
      28A     -0.544623    29A     -0.526681    30A     -0.502712
      31A     -0.495402    32A     -0.491887    33A     -0.475193

  @DF-RHF Final Energy:  -720.29840706258233

   => Energetics <=

    Nuclear Repulsion Energy =            438.9351411974626558
    One-Electron Energy =               -1865.9323798798645839
    Two-Electron Energy =                 706.6988316198196571
    Total Energy =                       -720.2984070625823279
  Basis Set: (AUG-CC-PVTZ AUX)
    Blend: AUG-CC-PVTZ-RI
    Molecular point group: c1

    Geometry (in Angstrom), charge = 0, multiplicity = 1:

       Center              X                  Y                   Z               Mass
    ------------   -----------------  -----------------  -----------------  -----------------
         P            0.822865839080    -0.098976968707     0.024015541307    30.973761998420
         O           -0.723164060920    -0.592430068707     0.017065341307    15.994914619570
         O            0.864967939080     1.020160931293     1.189999341307    15.994914619570
         O            0.859103939080     0.928000931293    -1.281256658693    15.994914619570
         O            1.787295939080    -1.154952068707     0.031674341307    15.994914619570
         C           -1.822604060920     0.349455931293    -0.011157658693    12.000000000000
         C           -3.098620060920    -0.457648068707     0.013444341307    12.000000000000
         H           -1.743452060920     1.008863931293     0.857758341307     1.007825032230
         H           -1.744327060920     0.955651931293    -0.918213658693     1.007825032230
         H           -3.959892060920     0.215314931293    -0.005834658693     1.007825032230
         H           -3.149055060920    -1.117517068707    -0.854271658693     1.007825032230
         H           -3.147934060920    -1.065190068707     0.918704341307     1.007825032230
         H            1.412973339080     0.634652931293     1.897865341307     1.007825032230
         H            1.387681939080     0.511814931293    -1.986525658693     1.007825032230

  Basis Set: AUG-CC-PVTZ
    Blend: AUG-CC-PVTZ
  Basis Set: (AUG-CC-PVTZ AUX)
    Blend: AUG-CC-PVTZ-JKFIT
	 Reference Energy          =    -720.2984070625823279 [Eh]
	 Singles Energy            =      -0.0000000000000000 [Eh]
	 Same-Spin Energy          =      -0.4068155179867689 [Eh]
	 Opposite-Spin Energy      =      -1.2301976575577263 [Eh]
	 Correlation Energy        =      -1.6370131755444952 [Eh]
	 Total Energy              =    -721.9354202381267669 [Eh]

	 ================> DF-SCS-MP2 Energies <==================
	-----------------------------------------------------------
	 SCS Same-Spin Scale       =       0.3333333333333333 [-]
	 SCS Opposite-Spin Scale   =       1.2000000000000000 [-]
	 SCS Same-Spin Energy      =      -0.1356051726622563 [Eh]
	 SCS Opposite-Spin Energy  =      -1.4762371890692714 [Eh]
	 SCS Correlation Energy    =      -1.6118423617315276 [Eh]
	 SCS Total Energy          =    -721.9102494243138608 [Eh]
	-----------------------------------------------------------

  Dipole Moment: [D]
     X:    -1.6354      Y:     1.4860      Z:     0.2213     Total:     2.2208

*** Psi4 exiting successfully. Buy a developer a beer!
