                               Psi4 1.3.2 release

  ==> Input File <==

--------------------------------------------------------------------------
#psi4
#
memory 32 gb

molecule  {
0 1
  P        0.7984170    -0.0731530     0.0007800
  O       -0.7093254    -0.6180558     0.0029247
  O        0.9001716     1.0159235     1.1912920
  O        0.8671220     0.9192840    -1.2738770
  O        1.7953140    -1.1636690     0.0390540
  C       -1.8145860     0.3407390    -0.0037780
  C       -3.0906020    -0.4663650     0.0208240
  H       -1.7354340     1.0001470     0.8651380
  H       -1.7363090     0.9469350    -0.9108340
  H       -3.9518740     0.2065980     0.0015450
  H       -3.1410370    -1.1262340    -0.8468920
  H       -3.1399160    -1.0739070     0.9260840
  H        1.4163280     0.6542800     1.9234740
  H        1.3957000     0.5030980    -1.9791460
units angstrom
no_reorient  #important for SAPT in psi4, default
symmetry c1  #important for SAPT in psi4, default
}

set PROPERTIES_ORIGIN ["COM"]
properties('MP2/aug-cc-pvtz', properties = ['dipole'])
--------------------------------------------------------------------------

    Molecular point group: c1
  Charge       = 0
  Multiplicity = 1
  Basis Set: AUG-CC-PVTZ
    Blend: AUG-CC-PVTZ
  Basis Set: (AUG-CC-PVTZ AUX)
    Blend: AUG-CC-PVTZ-JKFIT

    Orbital Energies [Eh]
    ---------------------

    Doubly Occupied:

       1A    -80.113791     2A    -20.610855     3A    -20.609125
       4A    -20.596572     5A    -20.516535     6A    -11.304936
       7A    -11.231587     8A     -7.629335     9A     -5.527700
      10A     -5.527315    11A     -5.526539    12A     -1.453740
      13A     -1.387728    14A     -1.382433    15A     -1.297467
      16A     -1.041754    17A     -0.872068    18A     -0.849700
      19A     -0.732243    20A     -0.729099    21A     -0.675497
      22A     -0.670181    23A     -0.644721    24A     -0.619913
      25A     -0.583915    26A     -0.569189    27A     -0.562217
      28A     -0.543894    29A     -0.532312    30A     -0.511536
      31A     -0.486948    32A     -0.471694    33A     -0.469183

  @DF-RHF Final Energy:  -720.30337715473104

   => Energetics <=

    Nuclear Repulsion Energy =            439.0315015694462772
    One-Electron Energy =               -1866.1063129678468613
    Two-Electron Energy =                 706.7714342436694324
    Total Energy =                       -720.3033771547310380
  Basis Set: (AUG-CC-PVTZ AUX)
    Blend: AUG-CC-PVTZ-RI
    Molecular point group: c1

    Geometry (in Angstrom), charge = 0, multiplicity = 1:

       Center              X                  Y                   Z               Mass
    ------------   -----------------  -----------------  -----------------  -----------------
         P            0.794227186688    -0.071575460008     0.004284337182    30.973761998420
         O           -0.713515213312    -0.616478260008     0.006429037182    15.994914619570
         O            0.895981786688     1.017501039992     1.194796337182    15.994914619570
         O            0.862932186688     0.920861539992    -1.270372662818    15.994914619570
         O            1.791124186688    -1.162091460008     0.042558337182    15.994914619570
         C           -1.818775813312     0.342316539992    -0.000273662818    12.000000000000
         C           -3.094791813312    -0.464787460008     0.024328337182    12.000000000000
         H           -1.739623813312     1.001724539992     0.868642337182     1.007825032230
         H           -1.740498813312     0.948512539992    -0.907329662818     1.007825032230
         H           -3.956063813312     0.208175539992     0.005049337182     1.007825032230
         H           -3.145226813312    -1.124656460008    -0.843387662818     1.007825032230
         H           -3.144105813312    -1.072329460008     0.929588337182     1.007825032230
         H            1.412138186688     0.655857539992     1.926978337182     1.007825032230
         H            1.391510186688     0.504675539992    -1.975641662818     1.007825032230

  Basis Set: AUG-CC-PVTZ
    Blend: AUG-CC-PVTZ
  Basis Set: (AUG-CC-PVTZ AUX)
    Blend: AUG-CC-PVTZ-JKFIT
	 Reference Energy          =    -720.3033771547310380 [Eh]
	 Singles Energy            =      -0.0000000000000000 [Eh]
	 Same-Spin Energy          =      -0.4069621468944918 [Eh]
	 Opposite-Spin Energy      =      -1.2301383405663602 [Eh]
	 Correlation Energy        =      -1.6371004874608519 [Eh]
	 Total Energy              =    -721.9404776421919223 [Eh]

	 ================> DF-SCS-MP2 Energies <==================
	-----------------------------------------------------------
	 SCS Same-Spin Scale       =       0.3333333333333333 [-]
	 SCS Opposite-Spin Scale   =       1.2000000000000000 [-]
	 SCS Same-Spin Energy      =      -0.1356540489648306 [Eh]
	 SCS Opposite-Spin Energy  =      -1.4761660086796322 [Eh]
	 SCS Correlation Energy    =      -1.6118200576444628 [Eh]
	 SCS Total Energy          =    -721.9151972123754604 [Eh]
	-----------------------------------------------------------

  Dipole Moment: [D]
     X:    -2.1708      Y:     1.9089      Z:    -0.0046     Total:     2.8907

*** Psi4 exiting successfully. Buy a developer a beer!
