                               Psi4 1.3.2 release

  ==> Input File <==

--------------------------------------------------------------------------
#psi4
#
memory 32 gb

molecule  {
0 1
  P        0.7984170    -0.0731530     0.0007800
  O       -0.6989139    -0.5795634     0.0671673
  O        0.8729860     1.0114440     1.1973790
  O        0.8671220     0.9192840    -1.2738770
  O        1.7953140    -1.1636690     0.0390540
  C       -1.8145860     0.3407390    -0.0037780
  C       -3.0906020    -0.4663650     0.0208240
  H       -1.7039354     0.9813439     0.8756995
  H       -1.7363090     0.9469350    -0.9108340
  H       -3.9518740     0.2065980     0.0015450
  H       -3.1410370    -1.1262340    -0.8468920
  H       -3.1399160    -1.0739070     0.9260840
  H        1.4163280     0.6542800     1.9234740
  H        1.3957000     0.5030980    -1.9791460
units angstrom
no_reorient  #important for SAPT in psi4, default
symmetry c1  #important for SAPT in psi4, default
}

set PROPERTIES_ORIGIN ["COM"]
properties('MP2/aug-cc-pvtz', properties = ['dipole'])
--------------------------------------------------------------------------

    Molecular point group: c1
  Charge       = 0
  Multiplicity = 1
  Basis Set: AUG-CC-PVTZ
    Blend: AUG-CC-PVTZ
  Basis Set: (AUG-CC-PVTZ AUX)
    Blend: AUG-CC-PVTZ-JKFIT

    Orbital Energies [Eh]
    ---------------------

    Doubly Occupied:

       1A    -80.111740     2A    -20.610611     3A    -20.606493
       4A    -20.593300     5A    -20.517878     6A    -11.304098
       7A    -11.232110     8A     -7.627640     9A     -5.525976
      10A     -5.525780    11A     -5.524803    12A     -1.456103
      13A     -1.387552    14A     -1.383921    15A     -1.298556
      16A     -1.042961    17A     -0.876757    18A     -0.846057
      19A     -0.731667    20A     -0.730220    21A     -0.675862
      22A     -0.671345    23A     -0.644139    24A     -0.621021
      25A     -0.584925    26A     -0.569711    27A     -0.562388
      28A     -0.545708    29A     -0.531873    30A     -0.509049
      31A     -0.485189    32A     -0.473425    33A     -0.469809

  @DF-RHF Final Energy:  -720.30427023525840

   => Energetics <=

    Nuclear Repulsion Energy =            440.2369950263624219
    One-Electron Energy =               -1868.5251951285094947
    Two-Electron Energy =                 707.9839298668887295
    Total Energy =                       -720.3042702352584001
  Basis Set: (AUG-CC-PVTZ AUX)
    Blend: AUG-CC-PVTZ-RI
    Molecular point group: c1

    Geometry (in Angstrom), charge = 0, multiplicity = 1:

       Center              X                  Y                   Z               Mass
    ------------   -----------------  -----------------  -----------------  -----------------
         P            0.796104486957    -0.075742515918    -0.004727458321    30.973761998420
         O           -0.701226413043    -0.582152915918     0.061659841679    15.994914619570
         O            0.870673486957     1.008854484082     1.191871541679    15.994914619570
         O            0.864809486957     0.916694484082    -1.279384458321    15.994914619570
         O            1.793001486957    -1.166258515918     0.033546541679    15.994914619570
         C           -1.816898513043     0.338149484082    -0.009285458321    12.000000000000
         C           -3.092914513043    -0.468954515918     0.015316541679    12.000000000000
         H           -1.706247913043     0.978754384082     0.870192041679     1.007825032230
         H           -1.738621513043     0.944345484082    -0.916341458321     1.007825032230
         H           -3.954186513043     0.204008484082    -0.003962458321     1.007825032230
         H           -3.143349513043    -1.128823515918    -0.852399458321     1.007825032230
         H           -3.142228513043    -1.076496515918     0.920576541679     1.007825032230
         H            1.414015486957     0.651690484082     1.917966541679     1.007825032230
         H            1.393387486957     0.500508484082    -1.984653458321     1.007825032230

  Basis Set: AUG-CC-PVTZ
    Blend: AUG-CC-PVTZ
  Basis Set: (AUG-CC-PVTZ AUX)
    Blend: AUG-CC-PVTZ-JKFIT
	 Reference Energy          =    -720.3042702352584001 [Eh]
	 Singles Energy            =      -0.0000000000000000 [Eh]
	 Same-Spin Energy          =      -0.4068142310421431 [Eh]
	 Opposite-Spin Energy      =      -1.2293951403350727 [Eh]
	 Correlation Energy        =      -1.6362093713772157 [Eh]
	 Total Energy              =    -721.9404796066355630 [Eh]

	 ================> DF-SCS-MP2 Energies <==================
	-----------------------------------------------------------
	 SCS Same-Spin Scale       =       0.3333333333333333 [-]
	 SCS Opposite-Spin Scale   =       1.2000000000000000 [-]
	 SCS Same-Spin Energy      =      -0.1356047436807143 [Eh]
	 SCS Opposite-Spin Energy  =      -1.4752741684020871 [Eh]
	 SCS Correlation Energy    =      -1.6108789120828015 [Eh]
	 SCS Total Energy          =    -721.9151491473412534 [Eh]
	-----------------------------------------------------------

  Dipole Moment: [D]
     X:    -2.1582      Y:     1.8063      Z:    -0.1721     Total:     2.8196

*** Psi4 exiting successfully. Buy a developer a beer!
