                               Psi4 1.3.2 release

  ==> Input File <==

--------------------------------------------------------------------------
#psi4
#
memory 32 gb

molecule  {
0 1
  P        0.7984170    -0.0731530     0.0007800
  O       -0.6829296    -0.5622210     0.0232640
  O        0.8729860     1.0114440     1.1973790
  O        0.8671220     0.9192840    -1.2738770
  O        1.7953140    -1.1636690     0.0390540
  C       -1.8145860     0.3407390    -0.0037780
  C       -3.1180053    -0.4213611     0.0194708
  H       -1.7354340     1.0001470     0.8651380
  H       -1.7363090     0.9469350    -0.9108340
  H       -3.9518740     0.2065980     0.0015450
  H       -3.1410370    -1.1262340    -0.8468920
  H       -3.1399160    -1.0739070     0.9260840
  H        1.4163280     0.6542800     1.9234740
  H        1.3957000     0.5030980    -1.9791460
units angstrom
no_reorient  #important for SAPT in psi4, default
symmetry c1  #important for SAPT in psi4, default
}

set PROPERTIES_ORIGIN ["COM"]
properties('MP2/aug-cc-pvtz', properties = ['dipole'])
--------------------------------------------------------------------------

    Molecular point group: c1
  Charge       = 0
  Multiplicity = 1
  Basis Set: AUG-CC-PVTZ
    Blend: AUG-CC-PVTZ
  Basis Set: (AUG-CC-PVTZ AUX)
    Blend: AUG-CC-PVTZ-JKFIT

    Orbital Energies [Eh]
    ---------------------

    Doubly Occupied:

       1A    -80.109583     2A    -20.606505     3A    -20.606486
       4A    -20.595367     5A    -20.517095     6A    -11.306325
       7A    -11.233963     8A     -7.625894     9A     -5.524182
      10A     -5.524174    11A     -5.523032    12A     -1.458869
      13A     -1.388995    14A     -1.383306    15A     -1.297859
      16A     -1.046710    17A     -0.881041    18A     -0.844257
      19A     -0.734162    20A     -0.730537    21A     -0.675240
      22A     -0.669811    23A     -0.642396    24A     -0.623921
      25A     -0.594518    26A     -0.565725    27A     -0.562520
      28A     -0.554381    29A     -0.526651    30A     -0.507530
      31A     -0.482938    32A     -0.473339    33A     -0.469398

  @DF-RHF Final Energy:  -720.30206482619599

   => Energetics <=

    Nuclear Repulsion Energy =            440.7010639047392146
    One-Electron Energy =               -1869.4328348600931804
    Two-Electron Energy =                 708.4297061291580349
    Total Energy =                       -720.3020648261959877
  Basis Set: (AUG-CC-PVTZ AUX)
    Blend: AUG-CC-PVTZ-RI
    Molecular point group: c1

    Geometry (in Angstrom), charge = 0, multiplicity = 1:

       Center              X                  Y                   Z               Mass
    ------------   -----------------  -----------------  -----------------  -----------------
         P            0.796937108702    -0.082380078161     0.001058769115    30.973761998420
         O           -0.684409491298    -0.571448078161     0.023542769115    15.994914619570
         O            0.871506108702     1.002216921839     1.197657769115    15.994914619570
         O            0.865642108702     0.910056921839    -1.273598230885    15.994914619570
         O            1.793834108702    -1.172896078161     0.039332769115    15.994914619570
         C           -1.816065891298     0.331511921839    -0.003499230885    12.000000000000
         C           -3.119485191298    -0.430588178161     0.019749569115    12.000000000000
         H           -1.736913891298     0.990919921839     0.865416769115     1.007825032230
         H           -1.737788891298     0.937707921839    -0.910555230885     1.007825032230
         H           -3.953353891298     0.197370921839     0.001823769115     1.007825032230
         H           -3.142516891298    -1.135461078161    -0.846613230885     1.007825032230
         H           -3.141395891298    -1.083134078161     0.926362769115     1.007825032230
         H            1.414848108702     0.645052921839     1.923752769115     1.007825032230
         H            1.394220108702     0.493870921839    -1.978867230885     1.007825032230

  Basis Set: AUG-CC-PVTZ
    Blend: AUG-CC-PVTZ
  Basis Set: (AUG-CC-PVTZ AUX)
    Blend: AUG-CC-PVTZ-JKFIT
	 Reference Energy          =    -720.3020648261959877 [Eh]
	 Singles Energy            =      -0.0000000000000000 [Eh]
	 Same-Spin Energy          =      -0.4064940978339631 [Eh]
	 Opposite-Spin Energy      =      -1.2286069644221089 [Eh]
	 Correlation Energy        =      -1.6351010622560720 [Eh]
	 Total Energy              =    -721.9371658884521139 [Eh]

	 ================> DF-SCS-MP2 Energies <==================
	-----------------------------------------------------------
	 SCS Same-Spin Scale       =       0.3333333333333333 [-]
	 SCS Opposite-Spin Scale   =       1.2000000000000000 [-]
	 SCS Same-Spin Energy      =      -0.1354980326113210 [Eh]
	 SCS Opposite-Spin Energy  =      -1.4743283573065307 [Eh]
	 SCS Correlation Energy    =      -1.6098263899178518 [Eh]
	 SCS Total Energy          =    -721.9118912161138724 [Eh]
	-----------------------------------------------------------

  Dipole Moment: [D]
     X:    -2.2839      Y:     1.7798      Z:    -0.0641     Total:     2.8963

*** Psi4 exiting successfully. Buy a developer a beer!
