                               Psi4 1.4a3.dev225

  ==> Input File <==

--------------------------------------------------------------------------
#psi4
#
memory 32 gb

molecule  {
0 1
  P        0.8768730    -0.1227020    -0.0963880
  O       -0.6809639    -0.4712817    -0.3509161
  O        1.0437430     0.0794150     1.5121170
  O        0.9276490     1.4110650    -0.6042510
  O        1.8284920    -1.0938460    -0.6752860
  C       -1.7021250     0.4138110     0.1607360
  C       -3.0206860    -0.2869630    -0.0679060
  H       -1.5201960     0.5987390     1.2233000
  H       -1.6444250     1.3614050    -0.3799660
  H       -3.8417660     0.3429090     0.2865800
  H       -3.1647720    -0.4853110    -1.1316920
  H       -3.0471290    -1.2354240     0.4720910
  H        1.4666950    -0.7151170     1.8872290
  H        1.8298220     1.7749190    -0.5472100
units angstrom
no_reorient  #important for SAPT in psi4, default
symmetry c1  #important for SAPT in psi4, default
}

set PROPERTIES_ORIGIN ["COM"]
properties('MP2/aug-cc-pvtz', properties = ['dipole'])
--------------------------------------------------------------------------

    Molecular point group: c1
  Charge       = 0
  Multiplicity = 1
  Basis Set: AUG-CC-PVTZ
    Blend: AUG-CC-PVTZ
  Basis Set: (AUG-CC-PVTZ AUX)
    Blend: AUG-CC-PVTZ-JKFIT

    Orbital Energies [Eh]
    ---------------------

    Doubly Occupied:

       1A    -80.117665     2A    -20.614386     3A    -20.612278
       4A    -20.596523     5A    -20.519767     6A    -11.300733
       7A    -11.228759     8A     -7.632555     9A     -5.530997
      10A     -5.530738    11A     -5.529528    12A     -1.453606
      13A     -1.386425    14A     -1.383666    15A     -1.299979
      16A     -1.038462    17A     -0.871366    18A     -0.844259
      19A     -0.755496    20A     -0.719127    21A     -0.675744
      22A     -0.668592    23A     -0.640652    24A     -0.605001
      25A     -0.591467    26A     -0.570294    27A     -0.559875
      28A     -0.544929    29A     -0.536126    30A     -0.508915
      31A     -0.483881    32A     -0.473925    33A     -0.469967

  @DF-RHF Final Energy:  -720.30153461333884

   => Energetics <=

    Nuclear Repulsion Energy =            438.8393925745289152
    One-Electron Energy =               -1865.6904916091882569
    Two-Electron Energy =                 706.5495644213206106
    Total Energy =                       -720.3015346133388448
  Basis Set: (AUG-CC-PVTZ AUX)
    Blend: AUG-CC-PVTZ-RI
    Molecular point group: c1

    Geometry (in Angstrom), charge = 0, multiplicity = 1:

       Center              X                  Y                   Z               Mass
    ------------   -----------------  -----------------  -----------------  -----------------
         P            0.794546806264    -0.108279283440    -0.080993629258    30.973761998420
         O           -0.763290093736    -0.456858983440    -0.335521729258    15.994914619570
         O            0.961416806264     0.093837716560     1.527511370742    15.994914619570
         O            0.845322806264     1.425487716560    -0.588856629258    15.994914619570
         O            1.746165806264    -1.079423283440    -0.659891629258    15.994914619570
         C           -1.784451193736     0.428233716560     0.176130370742    12.000000000000
         C           -3.103012193736    -0.272540283440    -0.052511629258    12.000000000000
         H           -1.602522193736     0.613161716560     1.238694370742     1.007825032230
         H           -1.726751193736     1.375827716560    -0.364571629258     1.007825032230
         H           -3.924092193736     0.357331716560     0.301974370742     1.007825032230
         H           -3.247098193736    -0.470888283440    -1.116297629258     1.007825032230
         H           -3.129455193736    -1.221001283440     0.487485370742     1.007825032230
         H            1.384368806264    -0.700694283440     1.902623370742     1.007825032230
         H            1.747495806264     1.789341716560    -0.531815629258     1.007825032230

  Basis Set: AUG-CC-PVTZ
    Blend: AUG-CC-PVTZ
  Basis Set: (AUG-CC-PVTZ AUX)
    Blend: AUG-CC-PVTZ-JKFIT
	 Reference Energy          =    -720.3015346133388448 [Eh]
	 Singles Energy            =      -0.0000000000000000 [Eh]
	 Same-Spin Energy          =      -0.4074902445792813 [Eh]
	 Opposite-Spin Energy      =      -1.2313428447370394 [Eh]
	 Correlation Energy        =      -1.6388330893163208 [Eh]
	 Total Energy              =    -721.9403677026551804 [Eh]

	 ================> DF-SCS-MP2 Energies <==================
	-----------------------------------------------------------
	 SCS Same-Spin Scale       =       0.3333333333333333 [-]
	 SCS Opposite-Spin Scale   =       1.2000000000000000 [-]
	 SCS Same-Spin Energy      =      -0.1358300815264271 [Eh]
	 SCS Opposite-Spin Energy  =      -1.4776114136844472 [Eh]
	 SCS Correlation Energy    =      -1.6134414952108742 [Eh]
	 SCS Total Energy          =    -721.9149761085496948 [Eh]
	-----------------------------------------------------------

  Dipole Moment: [D]
     X:    -1.3944      Y:     2.1600      Z:     2.2235     Total:     3.3991

*** Psi4 exiting successfully. Buy a developer a beer!
