                               Psi4 1.3.2 release

  ==> Input File <==

--------------------------------------------------------------------------
#psi4
#
memory 32 gb

molecule  {
0 1
  P        0.7984170    -0.0731530     0.0007800
  O       -0.6963082    -0.6513702    -0.0401114
  O        0.9544417     1.0238859     1.1780320
  O        0.8671220     0.9192840    -1.2738770
  O        1.7953140    -1.1636690     0.0390540
  C       -1.8145860     0.3407390    -0.0037780
  C       -3.0906020    -0.4663650     0.0208240
  H       -1.7354340     1.0001470     0.8651380
  H       -1.7363090     0.9469350    -0.9108340
  H       -3.9518740     0.2065980     0.0015450
  H       -3.1410370    -1.1262340    -0.8468920
  H       -3.1399160    -1.0739070     0.9260840
  H        1.4163280     0.6542800     1.9234740
  H        1.3957000     0.5030980    -1.9791460
units angstrom
no_reorient  #important for SAPT in psi4, default
symmetry c1  #important for SAPT in psi4, default
}

set PROPERTIES_ORIGIN ["COM"]
properties('MP2/aug-cc-pvtz', properties = ['dipole'])
--------------------------------------------------------------------------

    Molecular point group: c1
  Charge       = 0
  Multiplicity = 1
  Basis Set: AUG-CC-PVTZ
    Blend: AUG-CC-PVTZ
  Basis Set: (AUG-CC-PVTZ AUX)
    Blend: AUG-CC-PVTZ-JKFIT

    Orbital Energies [Eh]
    ---------------------

    Doubly Occupied:

       1A    -80.112004     2A    -20.611243     3A    -20.605998
       4A    -20.599836     5A    -20.511063     6A    -11.310309
       7A    -11.234301     8A     -7.627635     9A     -5.526032
      10A     -5.525482    11A     -5.524866    12A     -1.452428
      13A     -1.389642    14A     -1.377502    15A     -1.292775
      16A     -1.044287    17A     -0.870557    18A     -0.853092
      19A     -0.734458    20A     -0.725799    21A     -0.672654
      22A     -0.669851    23A     -0.643998    24A     -0.619127
      25A     -0.582593    26A     -0.569736    27A     -0.561828
      28A     -0.542001    29A     -0.532598    30A     -0.517977
      31A     -0.491691    32A     -0.466301    33A     -0.465145

  @DF-RHF Final Energy:  -720.29999287521150

   => Energetics <=

    Nuclear Repulsion Energy =            438.2982275164640669
    One-Electron Energy =               -1864.6668219042273904
    Two-Electron Energy =                 706.0686015125518225
    Total Energy =                       -720.2999928752115011
  Basis Set: (AUG-CC-PVTZ AUX)
    Blend: AUG-CC-PVTZ-RI
    Molecular point group: c1

    Geometry (in Angstrom), charge = 0, multiplicity = 1:

       Center              X                  Y                   Z               Mass
    ------------   -----------------  -----------------  -----------------  -----------------
         P            0.785686038928    -0.068357390952     0.011430311361    30.973761998420
         O           -0.709039161072    -0.646574590952    -0.029461088639    15.994914619570
         O            0.941710738928     1.028681509048     1.188682311361    15.994914619570
         O            0.854391038928     0.924079609048    -1.263226688639    15.994914619570
         O            1.782583038928    -1.158873390952     0.049704311361    15.994914619570
         C           -1.827316961072     0.345534609048     0.006872311361    12.000000000000
         C           -3.103332961072    -0.461569390952     0.031474311361    12.000000000000
         H           -1.748164961072     1.004942609048     0.875788311361     1.007825032230
         H           -1.749039961072     0.951730609048    -0.900183688639     1.007825032230
         H           -3.964604961072     0.211393609048     0.012195311361     1.007825032230
         H           -3.153767961072    -1.121438390952    -0.836241688639     1.007825032230
         H           -3.152646961072    -1.069111390952     0.936734311361     1.007825032230
         H            1.403597038928     0.659075609048     1.934124311361     1.007825032230
         H            1.382969038928     0.507893609048    -1.968495688639     1.007825032230

  Basis Set: AUG-CC-PVTZ
    Blend: AUG-CC-PVTZ
  Basis Set: (AUG-CC-PVTZ AUX)
    Blend: AUG-CC-PVTZ-JKFIT
	 Reference Energy          =    -720.2999928752115011 [Eh]
	 Singles Energy            =      -0.0000000000000000 [Eh]
	 Same-Spin Energy          =      -0.4069054947902050 [Eh]
	 Opposite-Spin Energy      =      -1.2304315092300837 [Eh]
	 Correlation Energy        =      -1.6373370040202886 [Eh]
	 Total Energy              =    -721.9373298792318110 [Eh]

	 ================> DF-SCS-MP2 Energies <==================
	-----------------------------------------------------------
	 SCS Same-Spin Scale       =       0.3333333333333333 [-]
	 SCS Opposite-Spin Scale   =       1.2000000000000000 [-]
	 SCS Same-Spin Energy      =      -0.1356351649300683 [Eh]
	 SCS Opposite-Spin Energy  =      -1.4765178110761004 [Eh]
	 SCS Correlation Energy    =      -1.6121529760061688 [Eh]
	 SCS Total Energy          =    -721.9121458512177014 [Eh]
	-----------------------------------------------------------

  Dipole Moment: [D]
     X:    -2.4772      Y:     1.9874      Z:     0.1226     Total:     3.1783

*** Psi4 exiting successfully. Buy a developer a beer!
