                               Psi4 1.3.2 release

  ==> Input File <==

--------------------------------------------------------------------------
#psi4
#
memory 32 gb

molecule  {
0 1
  O       -0.8874150    -1.1053680    -0.0000120
  N       -0.2975850     1.0586860     0.0000180
  C        1.5208660    -0.6926320     0.0000250
  C        0.0577749     0.0098872     0.0000053
  C        2.5397680     0.4426120    -0.0000230
  C       -2.0377090    -0.3588510    -0.0000130
  C       -1.6838560     0.9546860     0.0000050
  H        1.6599850    -1.3368650     0.8764330
  H        1.6599860    -1.3369460    -0.8763220
  H        2.4145620     1.0741370    -0.8814520
  H        3.5546530     0.0364140    -0.0000210
  H        2.4145820     1.0741970     0.8813660
  H       -2.9679600    -0.9049730    -0.0000050
  H       -2.3195540     1.8284960    -0.0000070
units angstrom
no_reorient  #important for SAPT in psi4, default
symmetry c1  #important for SAPT in psi4, default
}

set PROPERTIES_ORIGIN ["COM"]
properties('MP2/aug-cc-pvtz', properties = ['dipole'])
--------------------------------------------------------------------------

    Molecular point group: c1
  Charge       = 0
  Multiplicity = 1
  Basis Set: AUG-CC-PVTZ
    Blend: AUG-CC-PVTZ
  Basis Set: (AUG-CC-PVTZ AUX)
    Blend: AUG-CC-PVTZ-JKFIT

    Orbital Energies [Eh]
    ---------------------

    Doubly Occupied:

       1A    -20.610788     2A    -15.553875     3A    -11.317373
       4A    -11.298794     5A    -11.264322     6A    -11.246934
       7A    -11.214836     8A     -1.459605     9A     -1.308158
      10A     -1.059351    11A     -1.001053    12A     -0.864619
      13A     -0.837013    14A     -0.769852    15A     -0.717224
      16A     -0.663413    17A     -0.620946    18A     -0.602666
      19A     -0.602150    20A     -0.562229    21A     -0.515595
      22A     -0.512161    23A     -0.498108    24A     -0.494159
      25A     -0.445595    26A     -0.346101

  @DF-RHF Final Energy:  -322.76238651780625

   => Energetics <=

    Nuclear Repulsion Energy =            293.8346451650955942
    One-Electron Energy =               -1020.4202244314433301
    Two-Electron Energy =                 403.8231927485414872
    Total Energy =                       -322.7623865178062488
  Basis Set: (AUG-CC-PVTZ AUX)
    Blend: AUG-CC-PVTZ-RI
    Molecular point group: c1

    Geometry (in Angstrom), charge = 0, multiplicity = 1:

       Center              X                  Y                   Z               Mass
    ------------   -----------------  -----------------  -----------------  -----------------
         O           -0.813922567044    -1.124438839534    -0.000012449794    15.994914619570
         N           -0.224092567044     1.039615160466     0.000017550206    14.003074004430
         C            1.594358432956    -0.711702839534     0.000024550206    12.000000000000
         C            0.131267332956    -0.009183639534     0.000004850206    12.000000000000
         C            2.613260432956     0.423541160466    -0.000023449794    12.000000000000
         C           -1.964216567044    -0.377921839534    -0.000013449794    12.000000000000
         C           -1.610363567044     0.935615160466     0.000004550206    12.000000000000
         H            1.733477432956    -1.355935839534     0.876432550206     1.007825032230
         H            1.733478432956    -1.356016839534    -0.876322449794     1.007825032230
         H            2.488054432956     1.055066160466    -0.881452449794     1.007825032230
         H            3.628145432956     0.017343160466    -0.000021449794     1.007825032230
         H            2.488074432956     1.055126160466     0.881365550206     1.007825032230
         H           -2.894467567044    -0.924043839534    -0.000005449794     1.007825032230
         H           -2.246061567044     1.809425160466    -0.000007449794     1.007825032230

  Basis Set: AUG-CC-PVTZ
    Blend: AUG-CC-PVTZ
  Basis Set: (AUG-CC-PVTZ AUX)
    Blend: AUG-CC-PVTZ-JKFIT
	 Reference Energy          =    -322.7623865178062488 [Eh]
	 Singles Energy            =      -0.0000000000000000 [Eh]
	 Same-Spin Energy          =      -0.3328042801735074 [Eh]
	 Opposite-Spin Energy      =      -1.0589675940242160 [Eh]
	 Correlation Energy        =      -1.3917718741977234 [Eh]
	 Total Energy              =    -324.1541583920039784 [Eh]

	 ================> DF-SCS-MP2 Energies <==================
	-----------------------------------------------------------
	 SCS Same-Spin Scale       =       0.3333333333333333 [-]
	 SCS Opposite-Spin Scale   =       1.2000000000000000 [-]
	 SCS Same-Spin Energy      =      -0.1109347600578358 [Eh]
	 SCS Opposite-Spin Energy  =      -1.2707611128290592 [Eh]
	 SCS Correlation Energy    =      -1.3816958728868951 [Eh]
	 SCS Total Energy          =    -324.1440823906931428 [Eh]
	-----------------------------------------------------------

  Dipole Moment: [D]
     X:    -0.4612      Y:    -0.5560      Z:     0.0000     Total:     0.7224

*** Psi4 exiting successfully. Buy a developer a beer!
