                               Psi4 1.3.2 release

  ==> Input File <==

--------------------------------------------------------------------------
#psi4
#
memory 32 gb

molecule  {
0 1
  O       -0.8874150    -1.1053680    -0.0000120
  N       -0.2975850     1.0586860     0.0000180
  C        1.5208660    -0.6926320     0.0000250
  C        0.0898654    -0.0848239     0.0000041
  C        2.5397680     0.4426120    -0.0000230
  C       -2.0377090    -0.3588510    -0.0000130
  C       -1.6838560     0.9546860     0.0000050
  H        1.6599850    -1.3368650     0.8764330
  H        1.6599860    -1.3369460    -0.8763220
  H        2.4145620     1.0741370    -0.8814520
  H        3.5546530     0.0364140    -0.0000210
  H        2.4145820     1.0741970     0.8813660
  H       -2.9679600    -0.9049730    -0.0000050
  H       -2.3195540     1.8284960    -0.0000070
units angstrom
no_reorient  #important for SAPT in psi4, default
symmetry c1  #important for SAPT in psi4, default
}

set PROPERTIES_ORIGIN ["COM"]
properties('MP2/aug-cc-pvtz', properties = ['dipole'])
--------------------------------------------------------------------------

    Molecular point group: c1
  Charge       = 0
  Multiplicity = 1
  Basis Set: AUG-CC-PVTZ
    Blend: AUG-CC-PVTZ
  Basis Set: (AUG-CC-PVTZ AUX)
    Blend: AUG-CC-PVTZ-JKFIT

    Orbital Energies [Eh]
    ---------------------

    Doubly Occupied:

       1A    -20.623488     2A    -15.558617     3A    -11.328127
       4A    -11.294843     5A    -11.261944     6A    -11.248138
       7A    -11.217613     8A     -1.465722     9A     -1.265959
      10A     -1.069842    11A     -0.998501    12A     -0.874222
      13A     -0.832173    14A     -0.775984    15A     -0.717101
      16A     -0.662721    17A     -0.624188    18A     -0.605387
      19A     -0.594640    20A     -0.568383    21A     -0.518840
      22A     -0.508566    23A     -0.500819    24A     -0.470309
      25A     -0.461482    26A     -0.340456

  @DF-RHF Final Energy:  -322.81638045945181

   => Energetics <=

    Nuclear Repulsion Energy =            292.9760733716751133
    One-Electron Energy =               -1018.8087771331429394
    Two-Electron Energy =                 403.0163233020160760
    Total Energy =                       -322.8163804594518069
  Basis Set: (AUG-CC-PVTZ AUX)
    Blend: AUG-CC-PVTZ-RI
    Molecular point group: c1

    Geometry (in Angstrom), charge = 0, multiplicity = 1:

       Center              X                  Y                   Z               Mass
    ------------   -----------------  -----------------  -----------------  -----------------
         O           -0.817890367493    -1.112728372414    -0.000012301421    15.994914619570
         N           -0.228060367493     1.051325627586     0.000017698579    14.003074004430
         C            1.590390632507    -0.699992372414     0.000024698579    12.000000000000
         C            0.159390032507    -0.092184272414     0.000003798579    12.000000000000
         C            2.609292632507     0.435251627586    -0.000023301421    12.000000000000
         C           -1.968184367493    -0.366211372414    -0.000013301421    12.000000000000
         C           -1.614331367493     0.947325627586     0.000004698579    12.000000000000
         H            1.729509632507    -1.344225372414     0.876432698579     1.007825032230
         H            1.729510632507    -1.344306372414    -0.876322301421     1.007825032230
         H            2.484086632507     1.066776627586    -0.881452301421     1.007825032230
         H            3.624177632507     0.029053627586    -0.000021301421     1.007825032230
         H            2.484106632507     1.066836627586     0.881365698579     1.007825032230
         H           -2.898435367493    -0.912333372414    -0.000005301421     1.007825032230
         H           -2.250029367493     1.821135627586    -0.000007301421     1.007825032230

  Basis Set: AUG-CC-PVTZ
    Blend: AUG-CC-PVTZ
  Basis Set: (AUG-CC-PVTZ AUX)
    Blend: AUG-CC-PVTZ-JKFIT
	 Reference Energy          =    -322.8163804594518069 [Eh]
	 Singles Energy            =      -0.0000000000000000 [Eh]
	 Same-Spin Energy          =      -0.3338317673377669 [Eh]
	 Opposite-Spin Energy      =      -1.0597897813820076 [Eh]
	 Correlation Energy        =      -1.3936215487197745 [Eh]
	 Total Energy              =    -324.2100020081715570 [Eh]

	 ================> DF-SCS-MP2 Energies <==================
	-----------------------------------------------------------
	 SCS Same-Spin Scale       =       0.3333333333333333 [-]
	 SCS Opposite-Spin Scale   =       1.2000000000000000 [-]
	 SCS Same-Spin Energy      =      -0.1112772557792556 [Eh]
	 SCS Opposite-Spin Energy  =      -1.2717477376584092 [Eh]
	 SCS Correlation Energy    =      -1.3830249934376648 [Eh]
	 SCS Total Energy          =    -324.1994054528894935 [Eh]
	-----------------------------------------------------------

  Dipole Moment: [D]
     X:    -0.4104      Y:    -0.9044      Z:    -0.0000     Total:     0.9932

*** Psi4 exiting successfully. Buy a developer a beer!
