                               Psi4 1.4a3.dev225

  ==> Input File <==

--------------------------------------------------------------------------
#psi4
#
memory 32 gb

molecule  {
0 1
  O       -0.8874150    -1.1053680    -0.0000120
  N       -0.2975850     1.0586860     0.0000180
  C        1.5208660    -0.6926320     0.0000250
  C        0.1407328    -0.1864220     0.0000033
  C        2.5397680     0.4426120    -0.0000230
  C       -2.0377090    -0.3588510    -0.0000130
  C       -1.6838560     0.9546860     0.0000050
  H        1.6599850    -1.3368650     0.8764330
  H        1.6599860    -1.3369460    -0.8763220
  H        2.4145620     1.0741370    -0.8814520
  H        3.5546530     0.0364140    -0.0000210
  H        2.4145820     1.0741970     0.8813660
  H       -2.9679600    -0.9049730    -0.0000050
  H       -2.3195540     1.8284960    -0.0000070
units angstrom
no_reorient  #important for SAPT in psi4, default
symmetry c1  #important for SAPT in psi4, default
}

set PROPERTIES_ORIGIN ["COM"]
properties('MP2/aug-cc-pvtz', properties = ['dipole'])
--------------------------------------------------------------------------

    Molecular point group: c1
  Charge       = 0
  Multiplicity = 1
  Basis Set: AUG-CC-PVTZ
    Blend: AUG-CC-PVTZ
  Basis Set: (AUG-CC-PVTZ AUX)
    Blend: AUG-CC-PVTZ-JKFIT

    Orbital Energies [Eh]
    ---------------------

    Doubly Occupied:

       1A    -20.632945     2A    -15.561536     3A    -11.339269
       4A    -11.290588     5A    -11.259910     6A    -11.248880
       7A    -11.221887     8A     -1.471611     9A     -1.220819
      10A     -1.086725    11A     -0.996546    12A     -0.887142
      13A     -0.825365    14A     -0.778671    15A     -0.716456
      16A     -0.665968    17A     -0.632190    18A     -0.609221
      19A     -0.586373    20A     -0.569491    21A     -0.528690
      22A     -0.517219    23A     -0.506421    24A     -0.454271
      25A     -0.446742    26A     -0.330117

  @DF-RHF Final Energy:  -322.82485626542365

   => Energetics <=

    Nuclear Repulsion Energy =            292.1556820088727022
    One-Electron Energy =               -1017.1909693276440976
    Two-Electron Energy =                 402.2104310533478042
    Total Energy =                       -322.8248562654236480
  Basis Set: (AUG-CC-PVTZ AUX)
    Blend: AUG-CC-PVTZ-RI
    Molecular point group: c1

    Geometry (in Angstrom), charge = 0, multiplicity = 1:

       Center              X                  Y                   Z               Mass
    ------------   -----------------  -----------------  -----------------  -----------------
         O           -0.824179820527    -1.100166368493    -0.000012202506    15.994914619570
         N           -0.234349820527     1.063887631507     0.000017797494    14.003074004430
         C            1.584101179473    -0.687430368493     0.000024797494    12.000000000000
         C            0.203967979473    -0.181220368493     0.000003097494    12.000000000000
         C            2.603003179473     0.447813631507    -0.000023202506    12.000000000000
         C           -1.974473820527    -0.353649368493    -0.000013202506    12.000000000000
         C           -1.620620820527     0.959887631507     0.000004797494    12.000000000000
         H            1.723220179473    -1.331663368493     0.876432797494     1.007825032230
         H            1.723221179473    -1.331744368493    -0.876322202506     1.007825032230
         H            2.477797179473     1.079338631507    -0.881452202506     1.007825032230
         H            3.617888179473     0.041615631507    -0.000021202506     1.007825032230
         H            2.477817179473     1.079398631507     0.881365797494     1.007825032230
         H           -2.904724820527    -0.899771368493    -0.000005202506     1.007825032230
         H           -2.256318820527     1.833697631507    -0.000007202506     1.007825032230

  Basis Set: AUG-CC-PVTZ
    Blend: AUG-CC-PVTZ
  Basis Set: (AUG-CC-PVTZ AUX)
    Blend: AUG-CC-PVTZ-JKFIT
	 Reference Energy          =    -322.8248562654236480 [Eh]
	 Singles Energy            =      -0.0000000000000000 [Eh]
	 Same-Spin Energy          =      -0.3363518855925743 [Eh]
	 Opposite-Spin Energy      =      -1.0628063495163187 [Eh]
	 Correlation Energy        =      -1.3991582351088929 [Eh]
	 Total Energy              =    -324.2240145005325189 [Eh]

	 ================> DF-SCS-MP2 Energies <==================
	-----------------------------------------------------------
	 SCS Same-Spin Scale       =       0.3333333333333333 [-]
	 SCS Opposite-Spin Scale   =       1.2000000000000000 [-]
	 SCS Same-Spin Energy      =      -0.1121172951975248 [Eh]
	 SCS Opposite-Spin Energy  =      -1.2753676194195824 [Eh]
	 SCS Correlation Energy    =      -1.3874849146171071 [Eh]
	 SCS Total Energy          =    -324.2123411800407666 [Eh]
	-----------------------------------------------------------

  Dipole Moment: [D]
     X:    -0.3109      Y:    -1.1981      Z:    -0.0000     Total:     1.2377

*** Psi4 exiting successfully. Buy a developer a beer!
