                               Psi4 1.4a3.dev225

  ==> Input File <==

--------------------------------------------------------------------------
#psi4
#
memory 32 gb

molecule  {
0 1
  O       -0.8874150    -1.1053680    -0.0000120
  N       -0.2975850     1.0586860     0.0000180
  C        1.5208660    -0.6926320     0.0000250
  C        0.1588032    -0.1457373     0.0000035
  C        2.5397680     0.4426120    -0.0000230
  C       -2.0377090    -0.3588510    -0.0000130
  C       -1.6838560     0.9546860     0.0000050
  H        1.6599850    -1.3368650     0.8764330
  H        1.6599860    -1.3369460    -0.8763220
  H        2.4145620     1.0741370    -0.8814520
  H        3.5546530     0.0364140    -0.0000210
  H        2.4145820     1.0741970     0.8813660
  H       -2.9679600    -0.9049730    -0.0000050
  H       -2.3195540     1.8284960    -0.0000070
units angstrom
no_reorient  #important for SAPT in psi4, default
symmetry c1  #important for SAPT in psi4, default
}

set PROPERTIES_ORIGIN ["COM"]
properties('MP2/aug-cc-pvtz', properties = ['dipole'])
--------------------------------------------------------------------------

    Molecular point group: c1
  Charge       = 0
  Multiplicity = 1
  Basis Set: AUG-CC-PVTZ
    Blend: AUG-CC-PVTZ
  Basis Set: (AUG-CC-PVTZ AUX)
    Blend: AUG-CC-PVTZ-JKFIT

    Orbital Energies [Eh]
    ---------------------

    Doubly Occupied:

       1A    -20.624441     2A    -15.562818     3A    -11.337065
       4A    -11.292309     5A    -11.258969     6A    -11.249056
       7A    -11.222004     8A     -1.456475     9A     -1.230511
      10A     -1.086507    11A     -0.996190    12A     -0.887039
      13A     -0.823924    14A     -0.773403    15A     -0.715119
      16A     -0.661037    17A     -0.630827    18A     -0.606616
      19A     -0.593494    20A     -0.564138    21A     -0.524652
      22A     -0.520058    23A     -0.506753    24A     -0.454881
      25A     -0.451732    26A     -0.331893

  @DF-RHF Final Energy:  -322.82336157826416

   => Energetics <=

    Nuclear Repulsion Energy =            292.1067494109539666
    One-Electron Energy =               -1017.1364031486646127
    Two-Electron Energy =                 402.2062921594464910
    Total Energy =                       -322.8233615782641550
  Basis Set: (AUG-CC-PVTZ AUX)
    Blend: AUG-CC-PVTZ-RI
    Molecular point group: c1

    Geometry (in Angstrom), charge = 0, multiplicity = 1:

       Center              X                  Y                   Z               Mass
    ------------   -----------------  -----------------  -----------------  -----------------
         O           -0.826414118566    -1.105196790922    -0.000012227235    15.994914619570
         N           -0.236584118566     1.058857209078     0.000017772765    14.003074004430
         C            1.581866881434    -0.692460790922     0.000024772765    12.000000000000
         C            0.219804081434    -0.145566090922     0.000003272765    12.000000000000
         C            2.600768881434     0.442783209078    -0.000023227235    12.000000000000
         C           -1.976708118566    -0.358679790922    -0.000013227235    12.000000000000
         C           -1.622855118566     0.954857209078     0.000004772765    12.000000000000
         H            1.720985881434    -1.336693790922     0.876432772765     1.007825032230
         H            1.720986881434    -1.336774790922    -0.876322227235     1.007825032230
         H            2.475562881434     1.074308209078    -0.881452227235     1.007825032230
         H            3.615653881434     0.036585209078    -0.000021227235     1.007825032230
         H            2.475582881434     1.074368209078     0.881365772765     1.007825032230
         H           -2.906959118566    -0.904801790922    -0.000005227235     1.007825032230
         H           -2.258553118566     1.828667209078    -0.000007227235     1.007825032230

  Basis Set: AUG-CC-PVTZ
    Blend: AUG-CC-PVTZ
  Basis Set: (AUG-CC-PVTZ AUX)
    Blend: AUG-CC-PVTZ-JKFIT
	 Reference Energy          =    -322.8233615782641550 [Eh]
	 Singles Energy            =      -0.0000000000000000 [Eh]
	 Same-Spin Energy          =      -0.3361404920113258 [Eh]
	 Opposite-Spin Energy      =      -1.0629375232901275 [Eh]
	 Correlation Energy        =      -1.3990780153014533 [Eh]
	 Total Energy              =    -324.2224395935655821 [Eh]

	 ================> DF-SCS-MP2 Energies <==================
	-----------------------------------------------------------
	 SCS Same-Spin Scale       =       0.3333333333333333 [-]
	 SCS Opposite-Spin Scale   =       1.2000000000000000 [-]
	 SCS Same-Spin Energy      =      -0.1120468306704419 [Eh]
	 SCS Opposite-Spin Energy  =      -1.2755250279481529 [Eh]
	 SCS Correlation Energy    =      -1.3875718586185948 [Eh]
	 SCS Total Energy          =    -324.2109334368827263 [Eh]
	-----------------------------------------------------------

  Dipole Moment: [D]
     X:    -0.2162      Y:    -1.0864      Z:    -0.0000     Total:     1.1077

*** Psi4 exiting successfully. Buy a developer a beer!
