                               Psi4 1.3.2 release

  ==> Input File <==

--------------------------------------------------------------------------
#psi4
#
memory 32 gb

molecule  {
0 1
  O       -0.8874150    -1.1053680    -0.0000120
  N       -0.2975850     1.0586860     0.0000180
  C        1.5208660    -0.6926320     0.0000250
  C        0.1219560    -0.1795350     0.0000030
  C        2.5397680     0.4426120    -0.0000230
  C       -2.0377090    -0.3588510    -0.0000130
  C       -1.7835758     0.9472049     0.0000041
  H        1.6599850    -1.3368650     0.8764330
  H        1.6599860    -1.3369460    -0.8763220
  H        2.4145620     1.0741370    -0.8814520
  H        3.5546530     0.0364140    -0.0000210
  H        2.4145820     1.0741970     0.8813660
  H       -2.9679600    -0.9049730    -0.0000050
  H       -2.3195540     1.8284960    -0.0000070
units angstrom
no_reorient  #important for SAPT in psi4, default
symmetry c1  #important for SAPT in psi4, default
}

set PROPERTIES_ORIGIN ["COM"]
properties('MP2/aug-cc-pvtz', properties = ['dipole'])
--------------------------------------------------------------------------

    Molecular point group: c1
  Charge       = 0
  Multiplicity = 1
  Basis Set: AUG-CC-PVTZ
    Blend: AUG-CC-PVTZ
  Basis Set: (AUG-CC-PVTZ AUX)
    Blend: AUG-CC-PVTZ-JKFIT

    Orbital Energies [Eh]
    ---------------------

    Doubly Occupied:

       1A    -20.632004     2A    -15.561703     3A    -11.336362
       4A    -11.294534     5A    -11.259728     6A    -11.248614
       7A    -11.219991     8A     -1.473455     9A     -1.202365
      10A     -1.082557    11A     -1.004815    12A     -0.887428
      13A     -0.827953    14A     -0.772075    15A     -0.718282
      16A     -0.665242    17A     -0.629325    18A     -0.608861
      19A     -0.596011    20A     -0.568753    21A     -0.525814
      22A     -0.512458    23A     -0.504468    24A     -0.446278
      25A     -0.435104    26A     -0.346570

  @DF-RHF Final Energy:  -322.81904387618243

   => Energetics <=

    Nuclear Repulsion Energy =            290.9802933492131842
    One-Electron Energy =               -1014.8771749406716935
    Two-Electron Energy =                 401.0778377152760754
    Total Energy =                       -322.8190438761824339
  Basis Set: (AUG-CC-PVTZ AUX)
    Blend: AUG-CC-PVTZ-RI
    Molecular point group: c1

    Geometry (in Angstrom), charge = 0, multiplicity = 1:

       Center              X                  Y                   Z               Mass
    ------------   -----------------  -----------------  -----------------  -----------------
         O           -0.809528417068    -1.100092911544    -0.000012054133    15.994914619570
         N           -0.219698417068     1.063961088456     0.000017945867    14.003074004430
         C            1.598752582932    -0.687356911544     0.000024945867    12.000000000000
         C            0.199842582932    -0.174259911544     0.000002945867    12.000000000000
         C            2.617654582932     0.447887088456    -0.000023054133    12.000000000000
         C           -1.959822417068    -0.353575911544    -0.000013054133    12.000000000000
         C           -1.705689217068     0.952479988456     0.000004045867    12.000000000000
         H            1.737871582932    -1.331589911544     0.876432945867     1.007825032230
         H            1.737872582932    -1.331670911544    -0.876322054133     1.007825032230
         H            2.492448582932     1.079412088456    -0.881452054133     1.007825032230
         H            3.632539582932     0.041689088456    -0.000021054133     1.007825032230
         H            2.492468582932     1.079472088456     0.881365945867     1.007825032230
         H           -2.890073417068    -0.899697911544    -0.000005054133     1.007825032230
         H           -2.241667417068     1.833771088456    -0.000007054133     1.007825032230

  Basis Set: AUG-CC-PVTZ
    Blend: AUG-CC-PVTZ
  Basis Set: (AUG-CC-PVTZ AUX)
    Blend: AUG-CC-PVTZ-JKFIT
	 Reference Energy          =    -322.8190438761824339 [Eh]
	 Singles Energy            =      -0.0000000000000000 [Eh]
	 Same-Spin Energy          =      -0.3344717833134026 [Eh]
	 Opposite-Spin Energy      =      -1.0620299352130225 [Eh]
	 Correlation Energy        =      -1.3965017185264250 [Eh]
	 Total Energy              =    -324.2155455947088853 [Eh]

	 ================> DF-SCS-MP2 Energies <==================
	-----------------------------------------------------------
	 SCS Same-Spin Scale       =       0.3333333333333333 [-]
	 SCS Opposite-Spin Scale   =       1.2000000000000000 [-]
	 SCS Same-Spin Energy      =      -0.1114905944378009 [Eh]
	 SCS Opposite-Spin Energy  =      -1.2744359222556270 [Eh]
	 SCS Correlation Energy    =      -1.3859265166934278 [Eh]
	 SCS Total Energy          =    -324.2049703928758504 [Eh]
	-----------------------------------------------------------

  Dipole Moment: [D]
     X:    -0.4194      Y:    -1.1575      Z:    -0.0000     Total:     1.2312

*** Psi4 exiting successfully. Buy a developer a beer!
