                               Psi4 1.3.2 release

  ==> Input File <==

--------------------------------------------------------------------------
#psi4
#
memory 32 gb

molecule  {
0 1
  O       -0.8620627    -1.0647686    -0.0000113
  N       -0.2975850     1.0586860     0.0000180
  C        1.5208660    -0.6926320     0.0000250
  C        0.1219560    -0.1795350     0.0000030
  C        2.5397680     0.4426120    -0.0000230
  C       -2.0377090    -0.3588510    -0.0000130
  C       -1.6838560     0.9546860     0.0000050
  H        1.6599850    -1.3368650     0.8764330
  H        1.6599860    -1.3369460    -0.8763220
  H        2.4145620     1.0741370    -0.8814520
  H        3.5546530     0.0364140    -0.0000210
  H        2.4145820     1.0741970     0.8813660
  H       -2.9679600    -0.9049730    -0.0000050
  H       -2.3195540     1.8284960    -0.0000070
units angstrom
no_reorient  #important for SAPT in psi4, default
symmetry c1  #important for SAPT in psi4, default
}

set PROPERTIES_ORIGIN ["COM"]
properties('MP2/aug-cc-pvtz', properties = ['dipole'])
--------------------------------------------------------------------------

    Molecular point group: c1
  Charge       = 0
  Multiplicity = 1
  Basis Set: AUG-CC-PVTZ
    Blend: AUG-CC-PVTZ
  Basis Set: (AUG-CC-PVTZ AUX)
    Blend: AUG-CC-PVTZ-JKFIT

    Orbital Energies [Eh]
    ---------------------

    Doubly Occupied:

       1A    -20.635028     2A    -15.554491     3A    -11.333465
       4A    -11.289734     5A    -11.260839     6A    -11.247922
       7A    -11.220016     8A     -1.493989     9A     -1.221639
      10A     -1.085003    11A     -1.001177    12A     -0.883602
      13A     -0.832080    14A     -0.781979    15A     -0.721028
      16A     -0.675049    17A     -0.635877    18A     -0.610244
      19A     -0.584330    20A     -0.569722    21A     -0.526987
      22A     -0.513768    23A     -0.504194    24A     -0.452740
      25A     -0.445283    26A     -0.333722

  @DF-RHF Final Energy:  -322.82865748502837

   => Energetics <=

    Nuclear Repulsion Energy =            293.6645976663396027
    One-Electron Energy =               -1020.1586966976594795
    Two-Electron Energy =                 403.6654415462914471
    Total Energy =                       -322.8286574850283728
  Basis Set: (AUG-CC-PVTZ AUX)
    Blend: AUG-CC-PVTZ-RI
    Molecular point group: c1

    Geometry (in Angstrom), charge = 0, multiplicity = 1:

       Center              X                  Y                   Z               Mass
    ------------   -----------------  -----------------  -----------------  -----------------
         O           -0.800684101079    -1.067109545413    -0.000011580777    15.994914619570
         N           -0.236206401079     1.056345054587     0.000017719223    14.003074004430
         C            1.582244598921    -0.694972945413     0.000024719223    12.000000000000
         C            0.183334598921    -0.181875945413     0.000002719223    12.000000000000
         C            2.601146598921     0.440271054587    -0.000023280777    12.000000000000
         C           -1.976330401079    -0.361191945413    -0.000013280777    12.000000000000
         C           -1.622477401079     0.952345054587     0.000004719223    12.000000000000
         H            1.721363598921    -1.339205945413     0.876432719223     1.007825032230
         H            1.721364598921    -1.339286945413    -0.876322280777     1.007825032230
         H            2.475940598921     1.071796054587    -0.881452280777     1.007825032230
         H            3.616031598921     0.034073054587    -0.000021280777     1.007825032230
         H            2.475960598921     1.071856054587     0.881365719223     1.007825032230
         H           -2.906581401079    -0.907313945413    -0.000005280777     1.007825032230
         H           -2.258175401079     1.826155054587    -0.000007280777     1.007825032230

  Basis Set: AUG-CC-PVTZ
    Blend: AUG-CC-PVTZ
  Basis Set: (AUG-CC-PVTZ AUX)
    Blend: AUG-CC-PVTZ-JKFIT
	 Reference Energy          =    -322.8286574850283728 [Eh]
	 Singles Energy            =      -0.0000000000000000 [Eh]
	 Same-Spin Energy          =      -0.3352827760677050 [Eh]
	 Opposite-Spin Energy      =      -1.0599459152284789 [Eh]
	 Correlation Energy        =      -1.3952286912961838 [Eh]
	 Total Energy              =    -324.2238861763245836 [Eh]

	 ================> DF-SCS-MP2 Energies <==================
	-----------------------------------------------------------
	 SCS Same-Spin Scale       =       0.3333333333333333 [-]
	 SCS Opposite-Spin Scale   =       1.2000000000000000 [-]
	 SCS Same-Spin Energy      =      -0.1117609253559017 [Eh]
	 SCS Opposite-Spin Energy  =      -1.2719350982741746 [Eh]
	 SCS Correlation Energy    =      -1.3836960236300762 [Eh]
	 SCS Total Energy          =    -324.2123535086584525 [Eh]
	-----------------------------------------------------------

  Dipole Moment: [D]
     X:    -0.4582      Y:    -1.3227      Z:    -0.0000     Total:     1.3998

*** Psi4 exiting successfully. Buy a developer a beer!
