                               Psi4 1.4a3.dev225

  ==> Input File <==

--------------------------------------------------------------------------
#psi4
#
memory 32 gb

molecule  {
0 1
  O       -0.8874150    -1.1053680    -0.0000120
  N       -0.2975850     1.0586860     0.0000180
  C        1.5208660    -0.6926320     0.0000250
  C        0.0750140    -0.1623174     0.0000023
  C        2.5397680     0.4426120    -0.0000230
  C       -2.0377090    -0.3588510    -0.0000130
  C       -1.6838560     0.9546860     0.0000050
  H        1.6599850    -1.3368650     0.8764330
  H        1.6599860    -1.3369460    -0.8763220
  H        2.4145620     1.0741370    -0.8814520
  H        3.5546530     0.0364140    -0.0000210
  H        2.4145820     1.0741970     0.8813660
  H       -2.9679600    -0.9049730    -0.0000050
  H       -2.3195540     1.8284960    -0.0000070
units angstrom
no_reorient  #important for SAPT in psi4, default
symmetry c1  #important for SAPT in psi4, default
}

set PROPERTIES_ORIGIN ["COM"]
properties('MP2/aug-cc-pvtz', properties = ['dipole'])
--------------------------------------------------------------------------

    Molecular point group: c1
  Charge       = 0
  Multiplicity = 1
  Basis Set: AUG-CC-PVTZ
    Blend: AUG-CC-PVTZ
  Basis Set: (AUG-CC-PVTZ AUX)
    Blend: AUG-CC-PVTZ-JKFIT

    Orbital Energies [Eh]
    ---------------------

    Doubly Occupied:

       1A    -20.637510     2A    -15.558747     3A    -11.334401
       4A    -11.291548     5A    -11.262719     6A    -11.248006
       7A    -11.218318     8A     -1.489135     9A     -1.240962
      10A     -1.073734    11A     -0.998158    12A     -0.877403
      13A     -0.833096    14A     -0.784557    15A     -0.719030
      16A     -0.671612    17A     -0.627507    18A     -0.608309
      19A     -0.581989    20A     -0.578435    21A     -0.522192
      22A     -0.506631    23A     -0.501387    24A     -0.463007
      25A     -0.456442    26A     -0.336610

  @DF-RHF Final Energy:  -322.82694056189496

   => Energetics <=

    Nuclear Repulsion Energy =            292.8472087335169363
    One-Electron Energy =               -1018.5054066543791578
    Two-Electron Energy =                 402.8312573589672638
    Total Energy =                       -322.8269405618949577
  Basis Set: (AUG-CC-PVTZ AUX)
    Blend: AUG-CC-PVTZ-RI
    Molecular point group: c1

    Geometry (in Angstrom), charge = 0, multiplicity = 1:

       Center              X                  Y                   Z               Mass
    ------------   -----------------  -----------------  -----------------  -----------------
         O           -0.816054079757    -1.103146759659    -0.000012078862    15.994914619570
         N           -0.226224079757     1.060907240341     0.000017921138    14.003074004430
         C            1.592226920243    -0.690410759659     0.000024921138    12.000000000000
         C            0.146374920243    -0.160096159659     0.000002221138    12.000000000000
         C            2.611128920243     0.444833240341    -0.000023078862    12.000000000000
         C           -1.966348079757    -0.356629759659    -0.000013078862    12.000000000000
         C           -1.612495079757     0.956907240341     0.000004921138    12.000000000000
         H            1.731345920243    -1.334643759659     0.876432921138     1.007825032230
         H            1.731346920243    -1.334724759659    -0.876322078862     1.007825032230
         H            2.485922920243     1.076358240341    -0.881452078862     1.007825032230
         H            3.626013920243     0.038635240341    -0.000021078862     1.007825032230
         H            2.485942920243     1.076418240341     0.881365921138     1.007825032230
         H           -2.896599079757    -0.902751759659    -0.000005078862     1.007825032230
         H           -2.248193079757     1.830717240341    -0.000007078862     1.007825032230

  Basis Set: AUG-CC-PVTZ
    Blend: AUG-CC-PVTZ
  Basis Set: (AUG-CC-PVTZ AUX)
    Blend: AUG-CC-PVTZ-JKFIT
	 Reference Energy          =    -322.8269405618949577 [Eh]
	 Singles Energy            =      -0.0000000000000000 [Eh]
	 Same-Spin Energy          =      -0.3345578179892183 [Eh]
	 Opposite-Spin Energy      =      -1.0600742048183438 [Eh]
	 Correlation Energy        =      -1.3946320228075622 [Eh]
	 Total Energy              =    -324.2215725847025283 [Eh]

	 ================> DF-SCS-MP2 Energies <==================
	-----------------------------------------------------------
	 SCS Same-Spin Scale       =       0.3333333333333333 [-]
	 SCS Opposite-Spin Scale   =       1.2000000000000000 [-]
	 SCS Same-Spin Energy      =      -0.1115192726630728 [Eh]
	 SCS Opposite-Spin Energy  =      -1.2720890457820124 [Eh]
	 SCS Correlation Energy    =      -1.3836083184450851 [Eh]
	 SCS Total Energy          =    -324.2105488803400704 [Eh]
	-----------------------------------------------------------

  Dipole Moment: [D]
     X:    -0.5122      Y:    -1.1390      Z:    -0.0000     Total:     1.2488

*** Psi4 exiting successfully. Buy a developer a beer!
