                               Psi4 1.3.2 release

  ==> Input File <==

--------------------------------------------------------------------------
#psi4
#
memory 32 gb

molecule  {
0 1
  O       -0.8874150    -1.1053680    -0.0000120
  N       -0.2937072     0.9617313     0.0000169
  C        1.5208660    -0.6926320     0.0000250
  C        0.1219560    -0.1795350     0.0000030
  C        2.5397680     0.4426120    -0.0000230
  C       -2.0377090    -0.3588510    -0.0000130
  C       -1.6838560     0.9546860     0.0000050
  H        1.6599850    -1.3368650     0.8764330
  H        1.6599860    -1.3369460    -0.8763220
  H        2.4145620     1.0741370    -0.8814520
  H        3.5546530     0.0364140    -0.0000210
  H        2.4145820     1.0741970     0.8813660
  H       -2.9679600    -0.9049730    -0.0000050
  H       -2.3195540     1.8284960    -0.0000070
units angstrom
no_reorient  #important for SAPT in psi4, default
symmetry c1  #important for SAPT in psi4, default
}

set PROPERTIES_ORIGIN ["COM"]
properties('MP2/aug-cc-pvtz', properties = ['dipole'])
--------------------------------------------------------------------------

    Molecular point group: c1
  Charge       = 0
  Multiplicity = 1
  Basis Set: AUG-CC-PVTZ
    Blend: AUG-CC-PVTZ
  Basis Set: (AUG-CC-PVTZ AUX)
    Blend: AUG-CC-PVTZ-JKFIT

    Orbital Energies [Eh]
    ---------------------

    Doubly Occupied:

       1A    -20.622144     2A    -15.544976     3A    -11.318215
       4A    -11.293558     5A    -11.260883     6A    -11.244736
       7A    -11.219226     8A     -1.477496     9A     -1.247229
      10A     -1.081663    11A     -1.002505    12A     -0.882546
      13A     -0.835172    14A     -0.771924    15A     -0.720471
      16A     -0.669662    17A     -0.630659    18A     -0.606885
      19A     -0.600732    20A     -0.567415    21A     -0.524540
      22A     -0.514342    23A     -0.502990    24A     -0.457328
      25A     -0.442832    26A     -0.340250

  @DF-RHF Final Energy:  -322.82427421410921

   => Energetics <=

    Nuclear Repulsion Energy =            294.8248700181625281
    One-Electron Energy =               -1022.5375288387795081
    Two-Electron Energy =                 404.8883846065077705
    Total Energy =                       -322.8242742141092094
  Basis Set: (AUG-CC-PVTZ AUX)
    Blend: AUG-CC-PVTZ-RI
    Molecular point group: c1

    Geometry (in Angstrom), charge = 0, multiplicity = 1:

       Center              X                  Y                   Z               Mass
    ------------   -----------------  -----------------  -----------------  -----------------
         O           -0.822417681327    -1.087028980246    -0.000012006701    15.994914619570
         N           -0.228709881327     0.980070319754     0.000016893299    14.003074004430
         C            1.585863318673    -0.674292980246     0.000024993299    12.000000000000
         C            0.186953318673    -0.161195980246     0.000002993299    12.000000000000
         C            2.604765318673     0.460951019754    -0.000023006701    12.000000000000
         C           -1.972711681327    -0.340511980246    -0.000013006701    12.000000000000
         C           -1.618858681327     0.973025019754     0.000004993299    12.000000000000
         H            1.724982318673    -1.318525980246     0.876432993299     1.007825032230
         H            1.724983318673    -1.318606980246    -0.876322006701     1.007825032230
         H            2.479559318673     1.092476019754    -0.881452006701     1.007825032230
         H            3.619650318673     0.054753019754    -0.000021006701     1.007825032230
         H            2.479579318673     1.092536019754     0.881365993299     1.007825032230
         H           -2.902962681327    -0.886633980246    -0.000005006701     1.007825032230
         H           -2.254556681327     1.846835019754    -0.000007006701     1.007825032230

  Basis Set: AUG-CC-PVTZ
    Blend: AUG-CC-PVTZ
  Basis Set: (AUG-CC-PVTZ AUX)
    Blend: AUG-CC-PVTZ-JKFIT
	 Reference Energy          =    -322.8242742141092094 [Eh]
	 Singles Energy            =      -0.0000000000000000 [Eh]
	 Same-Spin Energy          =      -0.3338315697077622 [Eh]
	 Opposite-Spin Energy      =      -1.0577158459273970 [Eh]
	 Correlation Energy        =      -1.3915474156351593 [Eh]
	 Total Energy              =    -324.2158216297443687 [Eh]

	 ================> DF-SCS-MP2 Energies <==================
	-----------------------------------------------------------
	 SCS Same-Spin Scale       =       0.3333333333333333 [-]
	 SCS Opposite-Spin Scale   =       1.2000000000000000 [-]
	 SCS Same-Spin Energy      =      -0.1112771899025874 [Eh]
	 SCS Opposite-Spin Energy  =      -1.2692590151128764 [Eh]
	 SCS Correlation Energy    =      -1.3805362050154639 [Eh]
	 SCS Total Energy          =    -324.2048104191246694 [Eh]
	-----------------------------------------------------------

  Dipole Moment: [D]
     X:    -0.3932      Y:    -0.9249      Z:    -0.0000     Total:     1.0050

*** Psi4 exiting successfully. Buy a developer a beer!
