                               Psi4 1.3.2 release

  ==> Input File <==

--------------------------------------------------------------------------
#psi4
#
memory 32 gb

molecule  {
0 1
  O       -0.8874150    -1.1053680    -0.0000120
  N       -0.3020590     1.1070028     0.0000176
  C        1.5208660    -0.6926320     0.0000250
  C        0.1219560    -0.1795350     0.0000030
  C        2.5397680     0.4426120    -0.0000230
  C       -2.0377090    -0.3588510    -0.0000130
  C       -1.6838560     0.9546860     0.0000050
  H        1.6599850    -1.3368650     0.8764330
  H        1.6599860    -1.3369460    -0.8763220
  H        2.4145620     1.0741370    -0.8814520
  H        3.5546530     0.0364140    -0.0000210
  H        2.4145820     1.0741970     0.8813660
  H       -2.9679600    -0.9049730    -0.0000050
  H       -2.3195540     1.8284960    -0.0000070
units angstrom
no_reorient  #important for SAPT in psi4, default
symmetry c1  #important for SAPT in psi4, default
}

set PROPERTIES_ORIGIN ["COM"]
properties('MP2/aug-cc-pvtz', properties = ['dipole'])
--------------------------------------------------------------------------

    Molecular point group: c1
  Charge       = 0
  Multiplicity = 1
  Basis Set: AUG-CC-PVTZ
    Blend: AUG-CC-PVTZ
  Basis Set: (AUG-CC-PVTZ AUX)
    Blend: AUG-CC-PVTZ-JKFIT

    Orbital Energies [Eh]
    ---------------------

    Doubly Occupied:

       1A    -20.639900     2A    -15.567843     3A    -11.346916
       4A    -11.289315     5A    -11.260756     6A    -11.250696
       7A    -11.221718     8A     -1.477084     9A     -1.216483
      10A     -1.083449    11A     -0.994856    12A     -0.885237
      13A     -0.823670    14A     -0.784140    15A     -0.715848
      16A     -0.666686    17A     -0.630689    18A     -0.610414
      19A     -0.576850    20A     -0.574128    21A     -0.528009
      22A     -0.515173    23A     -0.506021    24A     -0.462307
      25A     -0.446318    26A     -0.327741

  @DF-RHF Final Energy:  -322.81985255029537

   => Energetics <=

    Nuclear Repulsion Energy =            291.1756846851482123
    One-Electron Energy =               -1015.1865757764476257
    Two-Electron Energy =                 401.1910385410040476
    Total Energy =                       -322.8198525502953657
  Basis Set: (AUG-CC-PVTZ AUX)
    Blend: AUG-CC-PVTZ-RI
    Molecular point group: c1

    Geometry (in Angstrom), charge = 0, multiplicity = 1:

       Center              X                  Y                   Z               Mass
    ------------   -----------------  -----------------  -----------------  -----------------
         O           -0.821212657701    -1.107989203165    -0.000012107699    15.994914619570
         N           -0.235856657701     1.104381596835     0.000017492301    14.003074004430
         C            1.587068342299    -0.695253203165     0.000024892301    12.000000000000
         C            0.188158342299    -0.182156203165     0.000002892301    12.000000000000
         C            2.605970342299     0.439990796835    -0.000023107699    12.000000000000
         C           -1.971506657701    -0.361472203165    -0.000013107699    12.000000000000
         C           -1.617653657701     0.952064796835     0.000004892301    12.000000000000
         H            1.726187342299    -1.339486203165     0.876432892301     1.007825032230
         H            1.726188342299    -1.339567203165    -0.876322107699     1.007825032230
         H            2.480764342299     1.071515796835    -0.881452107699     1.007825032230
         H            3.620855342299     0.033792796835    -0.000021107699     1.007825032230
         H            2.480784342299     1.071575796835     0.881365892301     1.007825032230
         H           -2.901757657701    -0.907594203165    -0.000005107699     1.007825032230
         H           -2.253351657701     1.825874796835    -0.000007107699     1.007825032230

  Basis Set: AUG-CC-PVTZ
    Blend: AUG-CC-PVTZ
  Basis Set: (AUG-CC-PVTZ AUX)
    Blend: AUG-CC-PVTZ-JKFIT
	 Reference Energy          =    -322.8198525502953657 [Eh]
	 Singles Energy            =      -0.0000000000000000 [Eh]
	 Same-Spin Energy          =      -0.3369753026282053 [Eh]
	 Opposite-Spin Energy      =      -1.0644124697648156 [Eh]
	 Correlation Energy        =      -1.4013877723930208 [Eh]
	 Total Energy              =    -324.2212403226884021 [Eh]

	 ================> DF-SCS-MP2 Energies <==================
	-----------------------------------------------------------
	 SCS Same-Spin Scale       =       0.3333333333333333 [-]
	 SCS Opposite-Spin Scale   =       1.2000000000000000 [-]
	 SCS Same-Spin Energy      =      -0.1123251008760684 [Eh]
	 SCS Opposite-Spin Energy  =      -1.2772949637177786 [Eh]
	 SCS Correlation Energy    =      -1.3896200645938470 [Eh]
	 SCS Total Energy          =    -324.2094726148891937 [Eh]
	-----------------------------------------------------------

  Dipole Moment: [D]
     X:    -0.3586      Y:    -1.2894      Z:    -0.0000     Total:     1.3384

*** Psi4 exiting successfully. Buy a developer a beer!
