                               Psi4 1.4a3.dev225

  ==> Input File <==

--------------------------------------------------------------------------
#psi4
#
memory 32 gb

molecule  {
0 1
  O       -0.8874150    -1.1053680    -0.0000120
  N       -0.2975850     1.0586860     0.0000180
  C        1.5208660    -0.6926320     0.0000250
  C        0.1219560    -0.1795350     0.0000030
  C        2.5397680     0.4426120    -0.0000230
  C       -2.0377090    -0.3588510    -0.0000130
  C       -1.6968618     0.9064071     0.0000043
  H        1.6599850    -1.3368650     0.8764330
  H        1.6599860    -1.3369460    -0.8763220
  H        2.4145620     1.0741370    -0.8814520
  H        3.5546530     0.0364140    -0.0000210
  H        2.4145820     1.0741970     0.8813660
  H       -2.9679600    -0.9049730    -0.0000050
  H       -2.3195540     1.8284960    -0.0000070
units angstrom
no_reorient  #important for SAPT in psi4, default
symmetry c1  #important for SAPT in psi4, default
}

set PROPERTIES_ORIGIN ["COM"]
properties('MP2/aug-cc-pvtz', properties = ['dipole'])
--------------------------------------------------------------------------

    Molecular point group: c1
  Charge       = 0
  Multiplicity = 1
  Basis Set: AUG-CC-PVTZ
    Blend: AUG-CC-PVTZ
  Basis Set: (AUG-CC-PVTZ AUX)
    Blend: AUG-CC-PVTZ-JKFIT

    Orbital Energies [Eh]
    ---------------------

    Doubly Occupied:

       1A    -20.630619     2A    -15.560586     3A    -11.338280
       4A    -11.284182     5A    -11.256334     6A    -11.248756
       7A    -11.220927     8A     -1.476795     9A     -1.222709
      10A     -1.085225    11A     -1.004277    12A     -0.886578
      13A     -0.822166    14A     -0.780434    15A     -0.716324
      16A     -0.667864    17A     -0.627372    18A     -0.609865
      19A     -0.577301    20A     -0.570997    21A     -0.526754
      22A     -0.513430    23A     -0.505226    24A     -0.460207
      25A     -0.447140    26A     -0.342564

  @DF-RHF Final Energy:  -322.82589816505765

   => Energetics <=

    Nuclear Repulsion Energy =            292.9062517115955302
    One-Electron Energy =               -1018.6984776834309514
    Two-Electron Energy =                 402.9663278067778265
    Total Energy =                       -322.8258981650576516
  Basis Set: (AUG-CC-PVTZ AUX)
    Blend: AUG-CC-PVTZ-RI
    Molecular point group: c1

    Geometry (in Angstrom), charge = 0, multiplicity = 1:

       Center              X                  Y                   Z               Mass
    ------------   -----------------  -----------------  -----------------  -----------------
         O           -0.820250090091    -1.095048504969    -0.000012078862    15.994914619570
         N           -0.230420090091     1.069005495031     0.000017921138    14.003074004430
         C            1.588030909909    -0.682312504969     0.000024921138    12.000000000000
         C            0.189120909909    -0.169215504969     0.000002921138    12.000000000000
         C            2.606932909909     0.452931495031    -0.000023078862    12.000000000000
         C           -1.970544090091    -0.348531504969    -0.000013078862    12.000000000000
         C           -1.629696890091     0.916726595031     0.000004221138    12.000000000000
         H            1.727149909909    -1.326545504969     0.876432921138     1.007825032230
         H            1.727150909909    -1.326626504969    -0.876322078862     1.007825032230
         H            2.481726909909     1.084456495031    -0.881452078862     1.007825032230
         H            3.621817909909     0.046733495031    -0.000021078862     1.007825032230
         H            2.481746909909     1.084516495031     0.881365921138     1.007825032230
         H           -2.900795090091    -0.894653504969    -0.000005078862     1.007825032230
         H           -2.252389090091     1.838815495031    -0.000007078862     1.007825032230

  Basis Set: AUG-CC-PVTZ
    Blend: AUG-CC-PVTZ
  Basis Set: (AUG-CC-PVTZ AUX)
    Blend: AUG-CC-PVTZ-JKFIT
	 Reference Energy          =    -322.8258981650576516 [Eh]
	 Singles Energy            =      -0.0000000000000000 [Eh]
	 Same-Spin Energy          =      -0.3348417923503429 [Eh]
	 Opposite-Spin Energy      =      -1.0604887709747031 [Eh]
	 Correlation Energy        =      -1.3953305633250459 [Eh]
	 Total Energy              =    -324.2212287283826981 [Eh]

	 ================> DF-SCS-MP2 Energies <==================
	-----------------------------------------------------------
	 SCS Same-Spin Scale       =       0.3333333333333333 [-]
	 SCS Opposite-Spin Scale   =       1.2000000000000000 [-]
	 SCS Same-Spin Energy      =      -0.1116139307834476 [Eh]
	 SCS Opposite-Spin Energy  =      -1.2725865251696435 [Eh]
	 SCS Correlation Energy    =      -1.3842004559530912 [Eh]
	 SCS Total Energy          =    -324.2100986210107294 [Eh]
	-----------------------------------------------------------

  Dipole Moment: [D]
     X:    -0.3543      Y:    -1.2065      Z:    -0.0000     Total:     1.2575

*** Psi4 exiting successfully. Buy a developer a beer!
