                               Psi4 1.3.2 release

  ==> Input File <==

--------------------------------------------------------------------------
#psi4
#
memory 32 gb

molecule  {
0 1
  O       -0.8874150    -1.1053680    -0.0000120
  N       -0.2975850     1.0586860     0.0000180
  C        1.5208660    -0.6926320     0.0000250
  C        0.2158401    -0.2139701     0.0000045
  C        2.5397680     0.4426120    -0.0000230
  C       -2.0377090    -0.3588510    -0.0000130
  C       -1.6838560     0.9546860     0.0000050
  H        1.6599850    -1.3368650     0.8764330
  H        1.6599860    -1.3369460    -0.8763220
  H        2.4145620     1.0741370    -0.8814520
  H        3.5546530     0.0364140    -0.0000210
  H        2.4145820     1.0741970     0.8813660
  H       -2.9679600    -0.9049730    -0.0000050
  H       -2.3195540     1.8284960    -0.0000070
units angstrom
no_reorient  #important for SAPT in psi4, default
symmetry c1  #important for SAPT in psi4, default
}

set PROPERTIES_ORIGIN ["COM"]
properties('MP2/aug-cc-pvtz', properties = ['dipole'])
--------------------------------------------------------------------------

    Molecular point group: c1
  Charge       = 0
  Multiplicity = 1
  Basis Set: AUG-CC-PVTZ
    Blend: AUG-CC-PVTZ
  Basis Set: (AUG-CC-PVTZ AUX)
    Blend: AUG-CC-PVTZ-JKFIT

    Orbital Energies [Eh]
    ---------------------

    Doubly Occupied:

       1A    -20.627094     2A    -15.564733     3A    -11.345283
       4A    -11.289753     5A    -11.257115     6A    -11.248482
       7A    -11.226415     8A     -1.451925     9A     -1.200943
      10A     -1.105317    11A     -0.993262    12A     -0.899919
      13A     -0.815293    14A     -0.771998    15A     -0.713917
      16A     -0.664543    17A     -0.640127    18A     -0.606954
      19A     -0.590785    20A     -0.560365    21A     -0.535027
      22A     -0.523918    23A     -0.512566    24A     -0.442401
      25A     -0.436533    26A     -0.321666

  @DF-RHF Final Energy:  -322.80285338058002

   => Energetics <=

    Nuclear Repulsion Energy =            291.4844629156439169
    One-Electron Energy =               -1015.8819650981740779
    Two-Electron Energy =                 401.5946488019501430
    Total Energy =                       -322.8028533805800180
  Basis Set: (AUG-CC-PVTZ AUX)
    Blend: AUG-CC-PVTZ-RI
    Molecular point group: c1

    Geometry (in Angstrom), charge = 0, multiplicity = 1:

       Center              X                  Y                   Z               Mass
    ------------   -----------------  -----------------  -----------------  -----------------
         O           -0.833466393771    -1.096760208927    -0.000012350879    15.994914619570
         N           -0.243636393771     1.067293791073     0.000017649121    14.003074004430
         C            1.574814606229    -0.684024208927     0.000024649121    12.000000000000
         C            0.269788706229    -0.205362308927     0.000004149121    12.000000000000
         C            2.593716606229     0.451219791073    -0.000023350879    12.000000000000
         C           -1.983760393771    -0.350243208927    -0.000013350879    12.000000000000
         C           -1.629907393771     0.963293791073     0.000004649121    12.000000000000
         H            1.713933606229    -1.328257208927     0.876432649121     1.007825032230
         H            1.713934606229    -1.328338208927    -0.876322350879     1.007825032230
         H            2.468510606229     1.082744791073    -0.881452350879     1.007825032230
         H            3.608601606229     0.045021791073    -0.000021350879     1.007825032230
         H            2.468530606229     1.082804791073     0.881365649121     1.007825032230
         H           -2.914011393771    -0.896365208927    -0.000005350879     1.007825032230
         H           -2.265605393771     1.837103791073    -0.000007350879     1.007825032230

  Basis Set: AUG-CC-PVTZ
    Blend: AUG-CC-PVTZ
  Basis Set: (AUG-CC-PVTZ AUX)
    Blend: AUG-CC-PVTZ-JKFIT
	 Reference Energy          =    -322.8028533805800180 [Eh]
	 Singles Energy            =      -0.0000000000000000 [Eh]
	 Same-Spin Energy          =      -0.3392290050615266 [Eh]
	 Opposite-Spin Energy      =      -1.0674188584013145 [Eh]
	 Correlation Energy        =      -1.4066478634628412 [Eh]
	 Total Energy              =    -324.2095012440428832 [Eh]

	 ================> DF-SCS-MP2 Energies <==================
	-----------------------------------------------------------
	 SCS Same-Spin Scale       =       0.3333333333333333 [-]
	 SCS Opposite-Spin Scale   =       1.2000000000000000 [-]
	 SCS Same-Spin Energy      =      -0.1130763350205089 [Eh]
	 SCS Opposite-Spin Energy  =      -1.2809026300815773 [Eh]
	 SCS Correlation Energy    =      -1.3939789651020862 [Eh]
	 SCS Total Energy          =    -324.1968323456820826 [Eh]
	-----------------------------------------------------------

  Dipole Moment: [D]
     X:    -0.0822      Y:    -1.2508      Z:    -0.0000     Total:     1.2535

*** Psi4 exiting successfully. Buy a developer a beer!
