                               Psi4 1.3.2 release

  ==> Input File <==

--------------------------------------------------------------------------
#psi4
#
memory 32 gb

molecule  {
0 1
  O       -0.8874150    -1.1053680    -0.0000120
  N       -0.2943082     0.9132115     0.0000164
  C        1.5208660    -0.6926320     0.0000250
  C        0.1219560    -0.1795350     0.0000030
  C        2.5397680     0.4426120    -0.0000230
  C       -2.0377090    -0.3588510    -0.0000130
  C       -1.6838560     0.9546860     0.0000050
  H        1.6599850    -1.3368650     0.8764330
  H        1.6599860    -1.3369460    -0.8763220
  H        2.4145620     1.0741370    -0.8814520
  H        3.5546530     0.0364140    -0.0000210
  H        2.4145820     1.0741970     0.8813660
  H       -2.9679600    -0.9049730    -0.0000050
  H       -2.3195540     1.8284960    -0.0000070
units angstrom
no_reorient  #important for SAPT in psi4, default
symmetry c1  #important for SAPT in psi4, default
}

set PROPERTIES_ORIGIN ["COM"]
properties('MP2/aug-cc-pvtz', properties = ['dipole'])
--------------------------------------------------------------------------

    Molecular point group: c1
  Charge       = 0
  Multiplicity = 1
  Basis Set: AUG-CC-PVTZ
    Blend: AUG-CC-PVTZ
  Basis Set: (AUG-CC-PVTZ AUX)
    Blend: AUG-CC-PVTZ-JKFIT

    Orbital Energies [Eh]
    ---------------------

    Doubly Occupied:

       1A    -20.615576     2A    -15.536564     3A    -11.307992
       4A    -11.294793     5A    -11.261211     6A    -11.242597
       7A    -11.218501     8A     -1.479282     9A     -1.257615
      10A     -1.081401    11A     -1.005536    12A     -0.882003
      13A     -0.838253    14A     -0.767550    15A     -0.722527
      16A     -0.671865    17A     -0.630765    18A     -0.607840
      19A     -0.605799    20A     -0.564850    21A     -0.523663
      22A     -0.514388    23A     -0.502098    24A     -0.461938
      25A     -0.434195    26A     -0.344012

  @DF-RHF Final Energy:  -322.81126598617936

   => Energetics <=

    Nuclear Repulsion Energy =            296.1399847622489574
    One-Electron Energy =               -1025.1568788144793416
    Two-Electron Energy =                 406.2056280660509628
    Total Energy =                       -322.8112659861793645
  Basis Set: (AUG-CC-PVTZ AUX)
    Blend: AUG-CC-PVTZ-RI
    Molecular point group: c1

    Geometry (in Angstrom), charge = 0, multiplicity = 1:

       Center              X                  Y                   Z               Mass
    ------------   -----------------  -----------------  -----------------  -----------------
         O           -0.822330967182    -1.080028392904    -0.000011934560    15.994914619570
         N           -0.229224167182     0.938551107096     0.000016465440    14.003074004430
         C            1.585950032818    -0.667292392904     0.000025065440    12.000000000000
         C            0.187040032818    -0.154195392904     0.000003065440    12.000000000000
         C            2.604852032818     0.467951607096    -0.000022934560    12.000000000000
         C           -1.972624967182    -0.333511392904    -0.000012934560    12.000000000000
         C           -1.618771967182     0.980025607096     0.000005065440    12.000000000000
         H            1.725069032818    -1.311525392904     0.876433065440     1.007825032230
         H            1.725070032818    -1.311606392904    -0.876321934560     1.007825032230
         H            2.479646032818     1.099476607096    -0.881451934560     1.007825032230
         H            3.619737032818     0.061753607096    -0.000020934560     1.007825032230
         H            2.479666032818     1.099536607096     0.881366065440     1.007825032230
         H           -2.902875967182    -0.879633392904    -0.000004934560     1.007825032230
         H           -2.254469967182     1.853835607096    -0.000006934560     1.007825032230

  Basis Set: AUG-CC-PVTZ
    Blend: AUG-CC-PVTZ
  Basis Set: (AUG-CC-PVTZ AUX)
    Blend: AUG-CC-PVTZ-JKFIT
	 Reference Energy          =    -322.8112659861793645 [Eh]
	 Singles Energy            =      -0.0000000000000000 [Eh]
	 Same-Spin Energy          =      -0.3331531366819666 [Eh]
	 Opposite-Spin Energy      =      -1.0560944888029984 [Eh]
	 Correlation Energy        =      -1.3892476254849648 [Eh]
	 Total Energy              =    -324.2005136116643484 [Eh]

	 ================> DF-SCS-MP2 Energies <==================
	-----------------------------------------------------------
	 SCS Same-Spin Scale       =       0.3333333333333333 [-]
	 SCS Opposite-Spin Scale   =       1.2000000000000000 [-]
	 SCS Same-Spin Energy      =      -0.1110510455606555 [Eh]
	 SCS Opposite-Spin Energy  =      -1.2673133865635979 [Eh]
	 SCS Correlation Energy    =      -1.3783644321242534 [Eh]
	 SCS Total Energy          =    -324.1896304183036364 [Eh]
	-----------------------------------------------------------

  Dipole Moment: [D]
     X:    -0.4074      Y:    -0.7738      Z:    -0.0000     Total:     0.8745

*** Psi4 exiting successfully. Buy a developer a beer!
