                               Psi4 1.3.2 release

  ==> Input File <==

--------------------------------------------------------------------------
#psi4
#
memory 32 gb

molecule  {
0 1
  O       -0.9717487    -1.2215170    -0.0000140
  N       -0.2975850     1.0586860     0.0000180
  C        1.5208660    -0.6926320     0.0000250
  C        0.1219560    -0.1795350     0.0000030
  C        2.5397680     0.4426120    -0.0000230
  C       -2.0377090    -0.3588510    -0.0000130
  C       -1.6838560     0.9546860     0.0000050
  H        1.6599850    -1.3368650     0.8764330
  H        1.6599860    -1.3369460    -0.8763220
  H        2.4145620     1.0741370    -0.8814520
  H        3.5546530     0.0364140    -0.0000210
  H        2.4145820     1.0741970     0.8813660
  H       -2.9679600    -0.9049730    -0.0000050
  H       -2.3195540     1.8284960    -0.0000070
units angstrom
no_reorient  #important for SAPT in psi4, default
symmetry c1  #important for SAPT in psi4, default
}

set PROPERTIES_ORIGIN ["COM"]
properties('MP2/aug-cc-pvtz', properties = ['dipole'])
--------------------------------------------------------------------------

    Molecular point group: c1
  Charge       = 0
  Multiplicity = 1
  Basis Set: AUG-CC-PVTZ
    Blend: AUG-CC-PVTZ
  Basis Set: (AUG-CC-PVTZ AUX)
    Blend: AUG-CC-PVTZ-JKFIT

    Orbital Energies [Eh]
    ---------------------

    Doubly Occupied:

       1A    -20.630239     2A    -15.577751     3A    -11.350264
       4A    -11.294026     5A    -11.259998     6A    -11.252201
       7A    -11.223835     8A     -1.434032     9A     -1.239722
      10A     -1.079242    11A     -0.988249    12A     -0.886935
      13A     -0.819268    14A     -0.771796    15A     -0.708117
      16A     -0.651447    17A     -0.615169    18A     -0.604175
      19A     -0.590741    20A     -0.574631    21A     -0.521686
      22A     -0.515716    23A     -0.507962    24A     -0.467443
      25A     -0.461044    26A     -0.327208

  @DF-RHF Final Energy:  -322.80356095738091

   => Energetics <=

    Nuclear Repulsion Energy =            288.6856296877946875
    One-Electron Energy =               -1010.2725870416483076
    Two-Electron Energy =                 398.7833963964727673
    Total Energy =                       -322.8035609573809097
  Basis Set: (AUG-CC-PVTZ AUX)
    Blend: AUG-CC-PVTZ-RI
    Molecular point group: c1

    Geometry (in Angstrom), charge = 0, multiplicity = 1:

       Center              X                  Y                   Z               Mass
    ------------   -----------------  -----------------  -----------------  -----------------
         O           -0.892293148550    -1.198024809134    -0.000013835800    15.994914619570
         N           -0.218129448550     1.082178190866     0.000018164200    14.003074004430
         C            1.600321551450    -0.669139809134     0.000025164200    12.000000000000
         C            0.201411551450    -0.156042809134     0.000003164200    12.000000000000
         C            2.619223551450     0.466104190866    -0.000022835800    12.000000000000
         C           -1.958253448550    -0.335358809134    -0.000012835800    12.000000000000
         C           -1.604400448550     0.978178190866     0.000005164200    12.000000000000
         H            1.739440551450    -1.313372809134     0.876433164200     1.007825032230
         H            1.739441551450    -1.313453809134    -0.876321835800     1.007825032230
         H            2.494017551450     1.097629190866    -0.881451835800     1.007825032230
         H            3.634108551450     0.059906190866    -0.000020835800     1.007825032230
         H            2.494037551450     1.097689190866     0.881366164200     1.007825032230
         H           -2.888504448550    -0.881480809134    -0.000004835800     1.007825032230
         H           -2.240098448550     1.851988190866    -0.000006835800     1.007825032230

  Basis Set: AUG-CC-PVTZ
    Blend: AUG-CC-PVTZ
  Basis Set: (AUG-CC-PVTZ AUX)
    Blend: AUG-CC-PVTZ-JKFIT
	 Reference Energy          =    -322.8035609573809097 [Eh]
	 Singles Energy            =      -0.0000000000000000 [Eh]
	 Same-Spin Energy          =      -0.3377956263887197 [Eh]
	 Opposite-Spin Energy      =      -1.0687586725418847 [Eh]
	 Correlation Energy        =      -1.4065542989306046 [Eh]
	 Total Energy              =    -324.2101152563114965 [Eh]

	 ================> DF-SCS-MP2 Energies <==================
	-----------------------------------------------------------
	 SCS Same-Spin Scale       =       0.3333333333333333 [-]
	 SCS Opposite-Spin Scale   =       1.2000000000000000 [-]
	 SCS Same-Spin Energy      =      -0.1125985421295732 [Eh]
	 SCS Opposite-Spin Energy  =      -1.2825104070502615 [Eh]
	 SCS Correlation Energy    =      -1.3951089491798347 [Eh]
	 SCS Total Energy          =    -324.1986699065607240 [Eh]
	-----------------------------------------------------------

  Dipole Moment: [D]
     X:    -0.0270      Y:    -0.7877      Z:     0.0000     Total:     0.7881

*** Psi4 exiting successfully. Buy a developer a beer!
