                               Psi4 1.4a3.dev225

  ==> Input File <==

--------------------------------------------------------------------------
#psi4
#
memory 32 gb

molecule  {
0 1
  O       -0.8874150    -1.1053680    -0.0000120
  N       -0.2975850     1.0586860     0.0000180
  C        1.5208660    -0.6926320     0.0000250
  C        0.0851088    -0.2133327     0.0000025
  C        2.5397680     0.4426120    -0.0000230
  C       -2.0377090    -0.3588510    -0.0000130
  C       -1.6838560     0.9546860     0.0000050
  H        1.6599850    -1.3368650     0.8764330
  H        1.6599860    -1.3369460    -0.8763220
  H        2.4145620     1.0741370    -0.8814520
  H        3.5546530     0.0364140    -0.0000210
  H        2.4145820     1.0741970     0.8813660
  H       -2.9679600    -0.9049730    -0.0000050
  H       -2.3195540     1.8284960    -0.0000070
units angstrom
no_reorient  #important for SAPT in psi4, default
symmetry c1  #important for SAPT in psi4, default
}

set PROPERTIES_ORIGIN ["COM"]
properties('MP2/aug-cc-pvtz', properties = ['dipole'])
--------------------------------------------------------------------------

    Molecular point group: c1
  Charge       = 0
  Multiplicity = 1
  Basis Set: AUG-CC-PVTZ
    Blend: AUG-CC-PVTZ
  Basis Set: (AUG-CC-PVTZ AUX)
    Blend: AUG-CC-PVTZ-JKFIT

    Orbital Energies [Eh]
    ---------------------

    Doubly Occupied:

       1A    -20.643701     2A    -15.558514     3A    -11.338993
       4A    -11.288969     5A    -11.262384     6A    -11.248766
       7A    -11.219917     8A     -1.499313     9A     -1.221945
      10A     -1.079533    11A     -0.998563    12A     -0.881431
      13A     -0.833364    14A     -0.786334    15A     -0.719288
      16A     -0.676140    17A     -0.630496    18A     -0.610587
      19A     -0.582702    20A     -0.574511    21A     -0.528161
      22A     -0.508002    23A     -0.503304    24A     -0.458075
      25A     -0.447382    26A     -0.331629

  @DF-RHF Final Energy:  -322.82566383625175

   => Energetics <=

    Nuclear Repulsion Energy =            292.6172446906316509
    One-Electron Energy =               -1018.0218109981680072
    Two-Electron Energy =                 402.5789024712846071
    Total Energy =                       -322.8256638362517492
  Basis Set: (AUG-CC-PVTZ AUX)
    Blend: AUG-CC-PVTZ-RI
    Molecular point group: c1

    Geometry (in Angstrom), charge = 0, multiplicity = 1:

       Center              X                  Y                   Z               Mass
    ------------   -----------------  -----------------  -----------------  -----------------
         O           -0.817302242048    -1.096839019666    -0.000012103591    15.994914619570
         N           -0.227472242048     1.067214980334     0.000017896409    14.003074004430
         C            1.590978757952    -0.684103019666     0.000024896409    12.000000000000
         C            0.155221557952    -0.204803719666     0.000002396409    12.000000000000
         C            2.609880757952     0.451140980334    -0.000023103591    12.000000000000
         C           -1.967596242048    -0.350322019666    -0.000013103591    12.000000000000
         C           -1.613743242048     0.963214980334     0.000004896409    12.000000000000
         H            1.730097757952    -1.328336019666     0.876432896409     1.007825032230
         H            1.730098757952    -1.328417019666    -0.876322103591     1.007825032230
         H            2.484674757952     1.082665980334    -0.881452103591     1.007825032230
         H            3.624765757952     0.044942980334    -0.000021103591     1.007825032230
         H            2.484694757952     1.082725980334     0.881365896409     1.007825032230
         H           -2.897847242048    -0.896444019666    -0.000005103591     1.007825032230
         H           -2.249441242048     1.837024980334    -0.000007103591     1.007825032230

  Basis Set: AUG-CC-PVTZ
    Blend: AUG-CC-PVTZ
  Basis Set: (AUG-CC-PVTZ AUX)
    Blend: AUG-CC-PVTZ-JKFIT
	 Reference Energy          =    -322.8256638362517492 [Eh]
	 Singles Energy            =      -0.0000000000000000 [Eh]
	 Same-Spin Energy          =      -0.3355371549407333 [Eh]
	 Opposite-Spin Energy      =      -1.0610642004884259 [Eh]
	 Correlation Energy        =      -1.3966013554291592 [Eh]
	 Total Energy              =    -324.2222651916808900 [Eh]

	 ================> DF-SCS-MP2 Energies <==================
	-----------------------------------------------------------
	 SCS Same-Spin Scale       =       0.3333333333333333 [-]
	 SCS Opposite-Spin Scale   =       1.2000000000000000 [-]
	 SCS Same-Spin Energy      =      -0.1118457183135778 [Eh]
	 SCS Opposite-Spin Energy  =      -1.2732770405861109 [Eh]
	 SCS Correlation Energy    =      -1.3851227588996886 [Eh]
	 SCS Total Energy          =    -324.2107865951514327 [Eh]
	-----------------------------------------------------------

  Dipole Moment: [D]
     X:    -0.4988      Y:    -1.2756      Z:    -0.0000     Total:     1.3697

*** Psi4 exiting successfully. Buy a developer a beer!
