                               Psi4 1.3.2 release

  ==> Input File <==

--------------------------------------------------------------------------
#psi4
#
memory 32 gb

molecule  {
0 1
  O       -0.8874150    -1.1053680    -0.0000120
  N       -0.2975850     1.0586860     0.0000180
  C        1.5208660    -0.6926320     0.0000250
  C        0.1002822    -0.1866684     0.0000027
  C        2.5397680     0.4426120    -0.0000230
  C       -2.0377090    -0.3588510    -0.0000130
  C       -1.6838560     0.9546860     0.0000050
  H        1.6599850    -1.3368650     0.8764330
  H        1.6599860    -1.3369460    -0.8763220
  H        2.4145620     1.0741370    -0.8814520
  H        3.5546530     0.0364140    -0.0000210
  H        2.4145820     1.0741970     0.8813660
  H       -2.9679600    -0.9049730    -0.0000050
  H       -2.3195540     1.8284960    -0.0000070
units angstrom
no_reorient  #important for SAPT in psi4, default
symmetry c1  #important for SAPT in psi4, default
}

set PROPERTIES_ORIGIN ["COM"]
properties('MP2/aug-cc-pvtz', properties = ['dipole'])
--------------------------------------------------------------------------

    Molecular point group: c1
  Charge       = 0
  Multiplicity = 1
  Basis Set: AUG-CC-PVTZ
    Blend: AUG-CC-PVTZ
  Basis Set: (AUG-CC-PVTZ AUX)
    Blend: AUG-CC-PVTZ-JKFIT

    Orbital Energies [Eh]
    ---------------------

    Doubly Occupied:

       1A    -20.638014     2A    -15.559635     3A    -11.337416
       4A    -11.290408     5A    -11.261628     6A    -11.248617
       7A    -11.219989     8A     -1.486249     9A     -1.227913
      10A     -1.079659    11A     -0.997771    12A     -0.881792
      13A     -0.830538    14A     -0.783247    15A     -0.718225
      16A     -0.670668    17A     -0.629833    18A     -0.609589
      19A     -0.582041    20A     -0.575817    21A     -0.526206
      22A     -0.511119    23A     -0.503659    24A     -0.458857
      25A     -0.450154    26A     -0.332965

  @DF-RHF Final Energy:  -322.82765374150182

   => Energetics <=

    Nuclear Repulsion Energy =            292.5311230209620703
    One-Electron Energy =               -1017.8935312726773645
    Two-Electron Energy =                 402.5347545102135314
    Total Energy =                       -322.8276537415018197
  Basis Set: (AUG-CC-PVTZ AUX)
    Blend: AUG-CC-PVTZ-RI
    Molecular point group: c1

    Geometry (in Angstrom), charge = 0, multiplicity = 1:

       Center              X                  Y                   Z               Mass
    ------------   -----------------  -----------------  -----------------  -----------------
         O           -0.819178343178    -1.100135902591    -0.000012128319    15.994914619570
         N           -0.229348343178     1.063918097409     0.000017871681    14.003074004430
         C            1.589102656822    -0.687399902591     0.000024871681    12.000000000000
         C            0.168518856822    -0.181436302591     0.000002571681    12.000000000000
         C            2.608004656822     0.447844097409    -0.000023128319    12.000000000000
         C           -1.969472343178    -0.353618902591    -0.000013128319    12.000000000000
         C           -1.615619343178     0.959918097409     0.000004871681    12.000000000000
         H            1.728221656822    -1.331632902591     0.876432871681     1.007825032230
         H            1.728222656822    -1.331713902591    -0.876322128319     1.007825032230
         H            2.482798656822     1.079369097409    -0.881452128319     1.007825032230
         H            3.622889656822     0.041646097409    -0.000021128319     1.007825032230
         H            2.482818656822     1.079429097409     0.881365871681     1.007825032230
         H           -2.899723343178    -0.899740902591    -0.000005128319     1.007825032230
         H           -2.251317343178     1.833728097409    -0.000007128319     1.007825032230

  Basis Set: AUG-CC-PVTZ
    Blend: AUG-CC-PVTZ
  Basis Set: (AUG-CC-PVTZ AUX)
    Blend: AUG-CC-PVTZ-JKFIT
	 Reference Energy          =    -322.8276537415018197 [Eh]
	 Singles Energy            =      -0.0000000000000000 [Eh]
	 Same-Spin Energy          =      -0.3354084146775327 [Eh]
	 Opposite-Spin Energy      =      -1.0611944922392995 [Eh]
	 Correlation Energy        =      -1.3966029069168322 [Eh]
	 Total Energy              =    -324.2242566484186455 [Eh]

	 ================> DF-SCS-MP2 Energies <==================
	-----------------------------------------------------------
	 SCS Same-Spin Scale       =       0.3333333333333333 [-]
	 SCS Opposite-Spin Scale   =       1.2000000000000000 [-]
	 SCS Same-Spin Energy      =      -0.1118028048925109 [Eh]
	 SCS Opposite-Spin Energy  =      -1.2734333906871593 [Eh]
	 SCS Correlation Energy    =      -1.3852361955796701 [Eh]
	 SCS Total Energy          =    -324.2128899370815134 [Eh]
	-----------------------------------------------------------

  Dipole Moment: [D]
     X:    -0.4412      Y:    -1.2039      Z:    -0.0000     Total:     1.2822

*** Psi4 exiting successfully. Buy a developer a beer!
