                               Psi4 1.3.2 release

  ==> Input File <==

--------------------------------------------------------------------------
#psi4
#
memory 32 gb

molecule  {
0 1
  O       -0.8874150    -1.1053680    -0.0000120
  N       -0.2975850     1.0586860     0.0000180
  C        1.5208660    -0.6926320     0.0000250
  C        0.1219560    -0.1795350     0.0000030
  C        2.5397680     0.4426120    -0.0000230
  C       -2.0377090    -0.3588510    -0.0000130
  C       -1.7299133     0.9662351     0.0000061
  H        1.6599850    -1.3368650     0.8764330
  H        1.6599860    -1.3369460    -0.8763220
  H        2.4145620     1.0741370    -0.8814520
  H        3.5546530     0.0364140    -0.0000210
  H        2.4145820     1.0741970     0.8813660
  H       -2.9679600    -0.9049730    -0.0000050
  H       -2.3195540     1.8284960    -0.0000070
units angstrom
no_reorient  #important for SAPT in psi4, default
symmetry c1  #important for SAPT in psi4, default
}

set PROPERTIES_ORIGIN ["COM"]
properties('MP2/aug-cc-pvtz', properties = ['dipole'])
--------------------------------------------------------------------------

    Molecular point group: c1
  Charge       = 0
  Multiplicity = 1
  Basis Set: AUG-CC-PVTZ
    Blend: AUG-CC-PVTZ
  Basis Set: (AUG-CC-PVTZ AUX)
    Blend: AUG-CC-PVTZ-JKFIT

    Orbital Energies [Eh]
    ---------------------

    Doubly Occupied:

       1A    -20.634124     2A    -15.561451     3A    -11.336935
       4A    -11.294801     5A    -11.261323     6A    -11.248682
       7A    -11.220364     8A     -1.474915     9A     -1.214261
      10A     -1.081795    11A     -0.998991    12A     -0.885274
      13A     -0.829366    14A     -0.775164    15A     -0.718355
      16A     -0.665961    17A     -0.631221    18A     -0.608823
      19A     -0.590902    20A     -0.572756    21A     -0.526278
      22A     -0.513974    23A     -0.504620    24A     -0.451388
      25A     -0.442313    26A     -0.336291

  @DF-RHF Final Energy:  -322.82441593947448

   => Energetics <=

    Nuclear Repulsion Energy =            291.4715973700237441
    One-Electron Energy =               -1015.8313682714416473
    Two-Electron Energy =                 401.5353549619434830
    Total Energy =                       -322.8244159394744770
  Basis Set: (AUG-CC-PVTZ AUX)
    Blend: AUG-CC-PVTZ-RI
    Molecular point group: c1

    Geometry (in Angstrom), charge = 0, multiplicity = 1:

       Center              X                  Y                   Z               Mass
    ------------   -----------------  -----------------  -----------------  -----------------
         O           -0.816163467678    -1.102445883174    -0.000012301421    15.994914619570
         N           -0.226333467678     1.061608116826     0.000017698579    14.003074004430
         C            1.592117532322    -0.689709883174     0.000024698579    12.000000000000
         C            0.193207532322    -0.176612883174     0.000002698579    12.000000000000
         C            2.611019532322     0.445534116826    -0.000023301421    12.000000000000
         C           -1.966457467678    -0.355928883174    -0.000013301421    12.000000000000
         C           -1.658661767678     0.969157216826     0.000005798579    12.000000000000
         H            1.731236532322    -1.333942883174     0.876432698579     1.007825032230
         H            1.731237532322    -1.334023883174    -0.876322301421     1.007825032230
         H            2.485813532322     1.077059116826    -0.881452301421     1.007825032230
         H            3.625904532322     0.039336116826    -0.000021301421     1.007825032230
         H            2.485833532322     1.077119116826     0.881365698579     1.007825032230
         H           -2.896708467678    -0.902050883174    -0.000005301421     1.007825032230
         H           -2.248302467678     1.831418116826    -0.000007301421     1.007825032230

  Basis Set: AUG-CC-PVTZ
    Blend: AUG-CC-PVTZ
  Basis Set: (AUG-CC-PVTZ AUX)
    Blend: AUG-CC-PVTZ-JKFIT
	 Reference Energy          =    -322.8244159394744770 [Eh]
	 Singles Energy            =      -0.0000000000000000 [Eh]
	 Same-Spin Energy          =      -0.3353018247880094 [Eh]
	 Opposite-Spin Energy      =      -1.0622738323273246 [Eh]
	 Correlation Energy        =      -1.3975756571153339 [Eh]
	 Total Energy              =    -324.2219915965898167 [Eh]

	 ================> DF-SCS-MP2 Energies <==================
	-----------------------------------------------------------
	 SCS Same-Spin Scale       =       0.3333333333333333 [-]
	 SCS Opposite-Spin Scale   =       1.2000000000000000 [-]
	 SCS Same-Spin Energy      =      -0.1117672749293364 [Eh]
	 SCS Opposite-Spin Energy  =      -1.2747285987927894 [Eh]
	 SCS Correlation Energy    =      -1.3864958737221258 [Eh]
	 SCS Total Energy          =    -324.2109118131966170 [Eh]
	-----------------------------------------------------------

  Dipole Moment: [D]
     X:    -0.3992      Y:    -1.1665      Z:    -0.0000     Total:     1.2330

*** Psi4 exiting successfully. Buy a developer a beer!
