                               Psi4 1.3.2 release

  ==> Input File <==

--------------------------------------------------------------------------
#psi4
#
memory 32 gb

molecule  {
0 1
  O       -0.8874150    -1.1053680    -0.0000120
  N       -0.2975850     1.0586860     0.0000180
  C        1.5208660    -0.6926320     0.0000250
  C        0.1435020    -0.1720244     0.0000033
  C        2.5397680     0.4426120    -0.0000230
  C       -2.0377090    -0.3588510    -0.0000130
  C       -1.6838560     0.9546860     0.0000050
  H        1.6599850    -1.3368650     0.8764330
  H        1.6599860    -1.3369460    -0.8763220
  H        2.4145620     1.0741370    -0.8814520
  H        3.5546530     0.0364140    -0.0000210
  H        2.4145820     1.0741970     0.8813660
  H       -2.9679600    -0.9049730    -0.0000050
  H       -2.3195540     1.8284960    -0.0000070
units angstrom
no_reorient  #important for SAPT in psi4, default
symmetry c1  #important for SAPT in psi4, default
}

set PROPERTIES_ORIGIN ["COM"]
properties('MP2/aug-cc-pvtz', properties = ['dipole'])
--------------------------------------------------------------------------

    Molecular point group: c1
  Charge       = 0
  Multiplicity = 1
  Basis Set: AUG-CC-PVTZ
    Blend: AUG-CC-PVTZ
  Basis Set: (AUG-CC-PVTZ AUX)
    Blend: AUG-CC-PVTZ-JKFIT

    Orbital Energies [Eh]
    ---------------------

    Doubly Occupied:

       1A    -20.630450     2A    -15.561852     3A    -11.338279
       4A    -11.291227     5A    -11.259729     6A    -11.248877
       7A    -11.221727     8A     -1.467307     9A     -1.224869
      10A     -1.085947    11A     -0.996463    12A     -0.886616
      13A     -0.825107    14A     -0.777338    15A     -0.716127
      16A     -0.664359    17A     -0.631468    18A     -0.608447
      19A     -0.588392    20A     -0.568270    21A     -0.527035
      22A     -0.517856    23A     -0.506272    24A     -0.455067
      25A     -0.448754    26A     -0.331080

  @DF-RHF Final Energy:  -322.82521844981159

   => Energetics <=

    Nuclear Repulsion Energy =            292.1680452160624668
    One-Electron Energy =               -1017.2286942261689546
    Two-Electron Energy =                 402.2354305602949580
    Total Energy =                       -322.8252184498115867
  Basis Set: (AUG-CC-PVTZ AUX)
    Blend: AUG-CC-PVTZ-RI
    Molecular point group: c1

    Geometry (in Angstrom), charge = 0, multiplicity = 1:

       Center              X                  Y                   Z               Mass
    ------------   -----------------  -----------------  -----------------  -----------------
         O           -0.824522215722    -1.101946546544    -0.000012202506    15.994914619570
         N           -0.234692215722     1.062107453456     0.000017797494    14.003074004430
         C            1.583758784278    -0.689210546544     0.000024797494    12.000000000000
         C            0.206394784278    -0.168602946544     0.000003097494    12.000000000000
         C            2.602660784278     0.446033453456    -0.000023202506    12.000000000000
         C           -1.974816215722    -0.355429546544    -0.000013202506    12.000000000000
         C           -1.620963215722     0.958107453456     0.000004797494    12.000000000000
         H            1.722877784278    -1.333443546544     0.876432797494     1.007825032230
         H            1.722878784278    -1.333524546544    -0.876322202506     1.007825032230
         H            2.477454784278     1.077558453456    -0.881452202506     1.007825032230
         H            3.617545784278     0.039835453456    -0.000021202506     1.007825032230
         H            2.477474784278     1.077618453456     0.881365797494     1.007825032230
         H           -2.905067215722    -0.901551546544    -0.000005202506     1.007825032230
         H           -2.256661215722     1.831917453456    -0.000007202506     1.007825032230

  Basis Set: AUG-CC-PVTZ
    Blend: AUG-CC-PVTZ
  Basis Set: (AUG-CC-PVTZ AUX)
    Blend: AUG-CC-PVTZ-JKFIT
	 Reference Energy          =    -322.8252184498115867 [Eh]
	 Singles Energy            =      -0.0000000000000000 [Eh]
	 Same-Spin Energy          =      -0.3361731540681186 [Eh]
	 Opposite-Spin Energy      =      -1.0626814378671274 [Eh]
	 Correlation Energy        =      -1.3988545919352460 [Eh]
	 Total Energy              =    -324.2240730417468058 [Eh]

	 ================> DF-SCS-MP2 Energies <==================
	-----------------------------------------------------------
	 SCS Same-Spin Scale       =       0.3333333333333333 [-]
	 SCS Opposite-Spin Scale   =       1.2000000000000000 [-]
	 SCS Same-Spin Energy      =      -0.1120577180227062 [Eh]
	 SCS Opposite-Spin Energy  =      -1.2752177254405528 [Eh]
	 SCS Correlation Energy    =      -1.3872754434632590 [Eh]
	 SCS Total Energy          =    -324.2124938932748250 [Eh]
	-----------------------------------------------------------

  Dipole Moment: [D]
     X:    -0.2912      Y:    -1.1599      Z:    -0.0000     Total:     1.1959

*** Psi4 exiting successfully. Buy a developer a beer!
