                               Psi4 1.3.2 release

  ==> Input File <==

--------------------------------------------------------------------------
#psi4
#
memory 32 gb

molecule  {
0 1
  O       -0.8874150    -1.1053680    -0.0000120
  N       -0.3082166     1.1551340     0.0000190
  C        1.5208660    -0.6926320     0.0000250
  C        0.1219560    -0.1795350     0.0000030
  C        2.5397680     0.4426120    -0.0000230
  C       -2.0377090    -0.3588510    -0.0000130
  C       -1.6838560     0.9546860     0.0000050
  H        1.6599850    -1.3368650     0.8764330
  H        1.6599860    -1.3369460    -0.8763220
  H        2.4145620     1.0741370    -0.8814520
  H        3.5546530     0.0364140    -0.0000210
  H        2.4145820     1.0741970     0.8813660
  H       -2.9679600    -0.9049730    -0.0000050
  H       -2.3195540     1.8284960    -0.0000070
units angstrom
no_reorient  #important for SAPT in psi4, default
symmetry c1  #important for SAPT in psi4, default
}

set PROPERTIES_ORIGIN ["COM"]
properties('MP2/aug-cc-pvtz', properties = ['dipole'])
--------------------------------------------------------------------------

    Molecular point group: c1
  Charge       = 0
  Multiplicity = 1
  Basis Set: AUG-CC-PVTZ
    Blend: AUG-CC-PVTZ
  Basis Set: (AUG-CC-PVTZ AUX)
    Blend: AUG-CC-PVTZ-JKFIT

    Orbital Energies [Eh]
    ---------------------

    Doubly Occupied:

       1A    -20.645218     2A    -15.574402     3A    -11.355466
       4A    -11.287704     5A    -11.260967     6A    -11.252583
       7A    -11.222626     8A     -1.477991     9A     -1.207319
      10A     -1.084323    11A     -0.992892    12A     -0.886468
      13A     -0.819737    14A     -0.787437    15A     -0.714732
      16A     -0.666493    17A     -0.630900    18A     -0.611634
      19A     -0.576093    20A     -0.568436    21A     -0.529300
      22A     -0.515873    23A     -0.507117    24A     -0.466244
      25A     -0.443798    26A     -0.323418

  @DF-RHF Final Energy:  -322.80859333364526

   => Energetics <=

    Nuclear Repulsion Energy =            290.0528078949265591
    One-Electron Energy =               -1012.9044663905297057
    Two-Electron Energy =                 400.0430651619578839
    Total Energy =                       -322.8085933336452626
  Basis Set: (AUG-CC-PVTZ AUX)
    Blend: AUG-CC-PVTZ-RI
    Molecular point group: c1

    Geometry (in Angstrom), charge = 0, multiplicity = 1:

       Center              X                  Y                   Z               Mass
    ------------   -----------------  -----------------  -----------------  -----------------
         O           -0.820324220060    -1.114933722093    -0.000012309696    15.994914619570
         N           -0.241125820060     1.145568277907     0.000018690304    14.003074004430
         C            1.587956779940    -0.702197722093     0.000024690304    12.000000000000
         C            0.189046779940    -0.189100722093     0.000002690304    12.000000000000
         C            2.606858779940     0.433046277907    -0.000023309696    12.000000000000
         C           -1.970618220060    -0.368416722093    -0.000013309696    12.000000000000
         C           -1.616765220060     0.945120277907     0.000004690304    12.000000000000
         H            1.727075779940    -1.346430722093     0.876432690304     1.007825032230
         H            1.727076779940    -1.346511722093    -0.876322309696     1.007825032230
         H            2.481652779940     1.064571277907    -0.881452309696     1.007825032230
         H            3.621743779940     0.026848277907    -0.000021309696     1.007825032230
         H            2.481672779940     1.064631277907     0.881365690304     1.007825032230
         H           -2.900869220060    -0.914538722093    -0.000005309696     1.007825032230
         H           -2.252463220060     1.818930277907    -0.000007309696     1.007825032230

  Basis Set: AUG-CC-PVTZ
    Blend: AUG-CC-PVTZ
  Basis Set: (AUG-CC-PVTZ AUX)
    Blend: AUG-CC-PVTZ-JKFIT
	 Reference Energy          =    -322.8085933336452626 [Eh]
	 Singles Energy            =      -0.0000000000000000 [Eh]
	 Same-Spin Energy          =      -0.3382904623616729 [Eh]
	 Opposite-Spin Energy      =      -1.0671444850582836 [Eh]
	 Correlation Energy        =      -1.4054349474199566 [Eh]
	 Total Energy              =    -324.2140282810652252 [Eh]

	 ================> DF-SCS-MP2 Energies <==================
	-----------------------------------------------------------
	 SCS Same-Spin Scale       =       0.3333333333333333 [-]
	 SCS Opposite-Spin Scale   =       1.2000000000000000 [-]
	 SCS Same-Spin Energy      =      -0.1127634874538910 [Eh]
	 SCS Opposite-Spin Energy  =      -1.2805733820699403 [Eh]
	 SCS Correlation Energy    =      -1.3933368695238313 [Eh]
	 SCS Total Energy          =    -324.2019302031690700 [Eh]
	-----------------------------------------------------------

  Dipole Moment: [D]
     X:    -0.3544      Y:    -1.3822      Z:    -0.0000     Total:     1.4269

*** Psi4 exiting successfully. Buy a developer a beer!
