                               Psi4 1.3.2 release

  ==> Input File <==

--------------------------------------------------------------------------
#psi4
#
memory 32 gb

molecule  {
0 1
  O       -0.8874150    -1.1053680    -0.0000120
  N       -0.2975850     1.0586860     0.0000180
  C        1.5208660    -0.6926320     0.0000250
  C        0.1219560    -0.1795350     0.0000030
  C        2.5397680     0.4426120    -0.0000230
  C       -2.0377090    -0.3588510    -0.0000130
  C       -1.6609855     0.9483104     0.0000044
  H        1.6599850    -1.3368650     0.8764330
  H        1.6599860    -1.3369460    -0.8763220
  H        2.4145620     1.0741370    -0.8814520
  H        3.5546530     0.0364140    -0.0000210
  H        2.4145820     1.0741970     0.8813660
  H       -2.9679600    -0.9049730    -0.0000050
  H       -2.3195540     1.8284960    -0.0000070
units angstrom
no_reorient  #important for SAPT in psi4, default
symmetry c1  #important for SAPT in psi4, default
}

set PROPERTIES_ORIGIN ["COM"]
properties('MP2/aug-cc-pvtz', properties = ['dipole'])
--------------------------------------------------------------------------

    Molecular point group: c1
  Charge       = 0
  Multiplicity = 1
  Basis Set: AUG-CC-PVTZ
    Blend: AUG-CC-PVTZ
  Basis Set: (AUG-CC-PVTZ AUX)
    Blend: AUG-CC-PVTZ-JKFIT

    Orbital Energies [Eh]
    ---------------------

    Doubly Occupied:

       1A    -20.634460     2A    -15.560323     3A    -11.338334
       4A    -11.288917     5A    -11.260454     6A    -11.248853
       7A    -11.221123     8A     -1.477647     9A     -1.232967
      10A     -1.083179    11A     -0.996244    12A     -0.883726
      13A     -0.827262    14A     -0.783367    15A     -0.716501
      16A     -0.667990    17A     -0.630578    18A     -0.609472
      19A     -0.584781    20A     -0.568535    21A     -0.527055
      22A     -0.514991    23A     -0.505176    24A     -0.459435
      25A     -0.453287    26A     -0.329950

  @DF-RHF Final Energy:  -322.82622404125425

   => Energetics <=

    Nuclear Repulsion Energy =            292.7983130142706614
    One-Electron Energy =               -1018.4398633069213247
    Two-Electron Energy =                 402.8153262513964137
    Total Energy =                       -322.8262240412542496
  Basis Set: (AUG-CC-PVTZ AUX)
    Blend: AUG-CC-PVTZ-RI
    Molecular point group: c1

    Geometry (in Angstrom), charge = 0, multiplicity = 1:

       Center              X                  Y                   Z               Mass
    ------------   -----------------  -----------------  -----------------  -----------------
         O           -0.824685982310    -1.100229600077    -0.000012091226    15.994914619570
         N           -0.234855982310     1.063824399923     0.000017908774    14.003074004430
         C            1.583595017690    -0.687493600077     0.000024908774    12.000000000000
         C            0.184685017690    -0.174396600077     0.000002908774    12.000000000000
         C            2.602497017690     0.447750399923    -0.000023091226    12.000000000000
         C           -1.974979982310    -0.353712600077    -0.000013091226    12.000000000000
         C           -1.598256482310     0.953448799923     0.000004308774    12.000000000000
         H            1.722714017690    -1.331726600077     0.876432908774     1.007825032230
         H            1.722715017690    -1.331807600077    -0.876322091226     1.007825032230
         H            2.477291017690     1.079275399923    -0.881452091226     1.007825032230
         H            3.617382017690     0.041552399923    -0.000021091226     1.007825032230
         H            2.477311017690     1.079335399923     0.881365908774     1.007825032230
         H           -2.905230982310    -0.899834600077    -0.000005091226     1.007825032230
         H           -2.256824982310     1.833634399923    -0.000007091226     1.007825032230

  Basis Set: AUG-CC-PVTZ
    Blend: AUG-CC-PVTZ
  Basis Set: (AUG-CC-PVTZ AUX)
    Blend: AUG-CC-PVTZ-JKFIT
	 Reference Energy          =    -322.8262240412542496 [Eh]
	 Singles Energy            =      -0.0000000000000000 [Eh]
	 Same-Spin Energy          =      -0.3360566451385273 [Eh]
	 Opposite-Spin Energy      =      -1.0618400841648978 [Eh]
	 Correlation Energy        =      -1.3978967293034250 [Eh]
	 Total Energy              =    -324.2241207705576471 [Eh]

	 ================> DF-SCS-MP2 Energies <==================
	-----------------------------------------------------------
	 SCS Same-Spin Scale       =       0.3333333333333333 [-]
	 SCS Opposite-Spin Scale   =       1.2000000000000000 [-]
	 SCS Same-Spin Energy      =      -0.1120188817128424 [Eh]
	 SCS Opposite-Spin Energy  =      -1.2742081009978774 [Eh]
	 SCS Correlation Energy    =      -1.3862269827107199 [Eh]
	 SCS Total Energy          =    -324.2124510239649453 [Eh]
	-----------------------------------------------------------

  Dipole Moment: [D]
     X:    -0.3467      Y:    -1.1935      Z:    -0.0000     Total:     1.2428

*** Psi4 exiting successfully. Buy a developer a beer!
