                               Psi4 1.3.2 release

  ==> Input File <==

--------------------------------------------------------------------------
#psi4
#
memory 32 gb

molecule  {
0 1
  O       -0.8381427    -1.0233091    -0.0000106
  N       -0.2975850     1.0586860     0.0000180
  C        1.5208660    -0.6926320     0.0000250
  C        0.1219560    -0.1795350     0.0000030
  C        2.5397680     0.4426120    -0.0000230
  C       -2.0377090    -0.3588510    -0.0000130
  C       -1.6838560     0.9546860     0.0000050
  H        1.6599850    -1.3368650     0.8764330
  H        1.6599860    -1.3369460    -0.8763220
  H        2.4145620     1.0741370    -0.8814520
  H        3.5546530     0.0364140    -0.0000210
  H        2.4145820     1.0741970     0.8813660
  H       -2.9679600    -0.9049730    -0.0000050
  H       -2.3195540     1.8284960    -0.0000070
units angstrom
no_reorient  #important for SAPT in psi4, default
symmetry c1  #important for SAPT in psi4, default
}

set PROPERTIES_ORIGIN ["COM"]
properties('MP2/aug-cc-pvtz', properties = ['dipole'])
--------------------------------------------------------------------------

    Molecular point group: c1
  Charge       = 0
  Multiplicity = 1
  Basis Set: AUG-CC-PVTZ
    Blend: AUG-CC-PVTZ
  Basis Set: (AUG-CC-PVTZ AUX)
    Blend: AUG-CC-PVTZ-JKFIT

    Orbital Energies [Eh]
    ---------------------

    Doubly Occupied:

       1A    -20.635482     2A    -15.547977     3A    -11.329083
       4A    -11.288676     5A    -11.260987     6A    -11.247197
       7A    -11.219258     8A     -1.513150     9A     -1.216911
      10A     -1.088022    11A     -1.005737    12A     -0.883236
      13A     -0.836951    14A     -0.783016    15A     -0.725276
      16A     -0.684246    17A     -0.640870    18A     -0.611061
      19A     -0.584444    20A     -0.566675    21A     -0.526261
      22A     -0.512612    23A     -0.503535    24A     -0.448049
      25A     -0.441108    26A     -0.335363

  @DF-RHF Final Energy:  -322.82568659248739

   => Energetics <=

    Nuclear Repulsion Energy =            295.0372703685383726
    One-Electron Energy =               -1022.8555484391215487
    Two-Electron Energy =                 404.9925914780957328
    Total Energy =                       -322.8256865924873864
  Basis Set: (AUG-CC-PVTZ AUX)
    Blend: AUG-CC-PVTZ-RI
    Molecular point group: c1

    Geometry (in Angstrom), charge = 0, multiplicity = 1:

       Center              X                  Y                   Z               Mass
    ------------   -----------------  -----------------  -----------------  -----------------
         O           -0.780706269674    -1.032482835499    -0.000010996142    15.994914619570
         N           -0.240148569674     1.049512264501     0.000017603858    14.003074004430
         C            1.578302430326    -0.701805735499     0.000024603858    12.000000000000
         C            0.179392430326    -0.188708735499     0.000002603858    12.000000000000
         C            2.597204430326     0.433438264501    -0.000023396142    12.000000000000
         C           -1.980272569674    -0.368024735499    -0.000013396142    12.000000000000
         C           -1.626419569674     0.945512264501     0.000004603858    12.000000000000
         H            1.717421430326    -1.346038735499     0.876432603858     1.007825032230
         H            1.717422430326    -1.346119735499    -0.876322396142     1.007825032230
         H            2.471998430326     1.064963264501    -0.881452396142     1.007825032230
         H            3.612089430326     0.027240264501    -0.000021396142     1.007825032230
         H            2.472018430326     1.065023264501     0.881365603858     1.007825032230
         H           -2.910523569674    -0.914146735499    -0.000005396142     1.007825032230
         H           -2.262117569674     1.819322264501    -0.000007396142     1.007825032230

  Basis Set: AUG-CC-PVTZ
    Blend: AUG-CC-PVTZ
  Basis Set: (AUG-CC-PVTZ AUX)
    Blend: AUG-CC-PVTZ-JKFIT
	 Reference Energy          =    -322.8256865924873864 [Eh]
	 Singles Energy            =      -0.0000000000000000 [Eh]
	 Same-Spin Energy          =      -0.3348820058626268 [Eh]
	 Opposite-Spin Energy      =      -1.0581675658956409 [Eh]
	 Correlation Energy        =      -1.3930495717582676 [Eh]
	 Total Energy              =    -324.2187361642456267 [Eh]

	 ================> DF-SCS-MP2 Energies <==================
	-----------------------------------------------------------
	 SCS Same-Spin Scale       =       0.3333333333333333 [-]
	 SCS Opposite-Spin Scale   =       1.2000000000000000 [-]
	 SCS Same-Spin Energy      =      -0.1116273352875423 [Eh]
	 SCS Opposite-Spin Energy  =      -1.2698010790747689 [Eh]
	 SCS Correlation Energy    =      -1.3814284143623112 [Eh]
	 SCS Total Energy          =    -324.2071150068496763 [Eh]
	-----------------------------------------------------------

  Dipole Moment: [D]
     X:    -0.5370      Y:    -1.4683      Z:    -0.0000     Total:     1.5634

*** Psi4 exiting successfully. Buy a developer a beer!
