                               Psi4 1.3.2 release

  ==> Input File <==

--------------------------------------------------------------------------
#psi4
#
memory 32 gb

molecule  {
0 1
  O       -0.8156842    -0.9810400    -0.0000100
  N       -0.2975850     1.0586860     0.0000180
  C        1.5208660    -0.6926320     0.0000250
  C        0.1219560    -0.1795350     0.0000030
  C        2.5397680     0.4426120    -0.0000230
  C       -2.0377090    -0.3588510    -0.0000130
  C       -1.6838560     0.9546860     0.0000050
  H        1.6599850    -1.3368650     0.8764330
  H        1.6599860    -1.3369460    -0.8763220
  H        2.4145620     1.0741370    -0.8814520
  H        3.5546530     0.0364140    -0.0000210
  H        2.4145820     1.0741970     0.8813660
  H       -2.9679600    -0.9049730    -0.0000050
  H       -2.3195540     1.8284960    -0.0000070
units angstrom
no_reorient  #important for SAPT in psi4, default
symmetry c1  #important for SAPT in psi4, default
}

set PROPERTIES_ORIGIN ["COM"]
properties('MP2/aug-cc-pvtz', properties = ['dipole'])
--------------------------------------------------------------------------

    Molecular point group: c1
  Charge       = 0
  Multiplicity = 1
  Basis Set: AUG-CC-PVTZ
    Blend: AUG-CC-PVTZ
  Basis Set: (AUG-CC-PVTZ AUX)
    Blend: AUG-CC-PVTZ-JKFIT

    Orbital Energies [Eh]
    ---------------------

    Doubly Occupied:

       1A    -20.635663     2A    -15.541190     3A    -11.324707
       4A    -11.287682     5A    -11.261104     6A    -11.246562
       7A    -11.218560     8A     -1.534094     9A     -1.212227
      10A     -1.091845    11A     -1.010705    12A     -0.883071
      13A     -0.842064    14A     -0.783586    15A     -0.729840
      16A     -0.694829    17A     -0.645515    18A     -0.611715
      19A     -0.585128    20A     -0.563450    21A     -0.524735
      22A     -0.510964    23A     -0.502974    24A     -0.442879
      25A     -0.437009    26A     -0.336906

  @DF-RHF Final Energy:  -322.81702382479955

   => Energetics <=

    Nuclear Repulsion Energy =            296.4628010016510302
    One-Electron Energy =               -1025.6416447952553881
    Two-Electron Energy =                 406.3618199688047525
    Total Energy =                       -322.8170238247995485
  Basis Set: (AUG-CC-PVTZ AUX)
    Blend: AUG-CC-PVTZ-RI
    Molecular point group: c1

    Geometry (in Angstrom), charge = 0, multiplicity = 1:

       Center              X                  Y                   Z               Mass
    ------------   -----------------  -----------------  -----------------  -----------------
         O           -0.761949073746    -0.997179952830    -0.000010495025    15.994914619570
         N           -0.243849873746     1.042546047170     0.000017504975    14.003074004430
         C            1.574601126254    -0.708771952830     0.000024504975    12.000000000000
         C            0.175691126254    -0.195674952830     0.000002504975    12.000000000000
         C            2.593503126254     0.426472047170    -0.000023495025    12.000000000000
         C           -1.983973873746    -0.374990952830    -0.000013495025    12.000000000000
         C           -1.630120873746     0.938546047170     0.000004504975    12.000000000000
         H            1.713720126254    -1.353004952830     0.876432504975     1.007825032230
         H            1.713721126254    -1.353085952830    -0.876322495025     1.007825032230
         H            2.468297126254     1.057997047170    -0.881452495025     1.007825032230
         H            3.608388126254     0.020274047170    -0.000021495025     1.007825032230
         H            2.468317126254     1.058057047170     0.881365504975     1.007825032230
         H           -2.914224873746    -0.921112952830    -0.000005495025     1.007825032230
         H           -2.265818873746     1.812356047170    -0.000007495025     1.007825032230

  Basis Set: AUG-CC-PVTZ
    Blend: AUG-CC-PVTZ
  Basis Set: (AUG-CC-PVTZ AUX)
    Blend: AUG-CC-PVTZ-JKFIT
	 Reference Energy          =    -322.8170238247995485 [Eh]
	 Singles Energy            =      -0.0000000000000000 [Eh]
	 Same-Spin Energy          =      -0.3345600734711122 [Eh]
	 Opposite-Spin Energy      =      -1.0565691584195132 [Eh]
	 Correlation Energy        =      -1.3911292318906252 [Eh]
	 Total Energy              =    -324.2081530566901506 [Eh]

	 ================> DF-SCS-MP2 Energies <==================
	-----------------------------------------------------------
	 SCS Same-Spin Scale       =       0.3333333333333333 [-]
	 SCS Opposite-Spin Scale   =       1.2000000000000000 [-]
	 SCS Same-Spin Energy      =      -0.1115200244903707 [Eh]
	 SCS Opposite-Spin Energy  =      -1.2678829901034157 [Eh]
	 SCS Correlation Energy    =      -1.3794030145937863 [Eh]
	 SCS Total Energy          =    -324.1964268393933253 [Eh]
	-----------------------------------------------------------

  Dipole Moment: [D]
     X:    -0.6041      Y:    -1.6202      Z:    -0.0000     Total:     1.7292

*** Psi4 exiting successfully. Buy a developer a beer!
