                               Psi4 1.3.2 release

  ==> Input File <==

--------------------------------------------------------------------------
#psi4
#
memory 32 gb

molecule  {
0 1
  O       -0.8874150    -1.1053680    -0.0000120
  N       -0.2975850     1.0586860     0.0000180
  C        1.5208660    -0.6926320     0.0000250
  C        0.1049014    -0.2286688     0.0000051
  C        2.5397680     0.4426120    -0.0000230
  C       -2.0377090    -0.3588510    -0.0000130
  C       -1.6838560     0.9546860     0.0000050
  H        1.6599850    -1.3368650     0.8764330
  H        1.6599860    -1.3369460    -0.8763220
  H        2.4145620     1.0741370    -0.8814520
  H        3.5546530     0.0364140    -0.0000210
  H        2.4145820     1.0741970     0.8813660
  H       -2.9679600    -0.9049730    -0.0000050
  H       -2.3195540     1.8284960    -0.0000070
units angstrom
no_reorient  #important for SAPT in psi4, default
symmetry c1  #important for SAPT in psi4, default
}

set PROPERTIES_ORIGIN ["COM"]
properties('MP2/aug-cc-pvtz', properties = ['dipole'])
--------------------------------------------------------------------------

    Molecular point group: c1
  Charge       = 0
  Multiplicity = 1
  Basis Set: AUG-CC-PVTZ
    Blend: AUG-CC-PVTZ
  Basis Set: (AUG-CC-PVTZ AUX)
    Blend: AUG-CC-PVTZ-JKFIT

    Orbital Energies [Eh]
    ---------------------

    Doubly Occupied:

       1A    -20.643463     2A    -15.558973     3A    -11.340977
       4A    -11.288285     5A    -11.261577     6A    -11.249122
       7A    -11.221175     8A     -1.495774     9A     -1.213837
      10A     -1.084103    11A     -0.998257    12A     -0.884806
      13A     -0.831215    14A     -0.784806    15A     -0.718594
      16A     -0.675020    17A     -0.632437    18A     -0.611483
      19A     -0.582737    20A     -0.572336    21A     -0.531660
      22A     -0.510878    23A     -0.505038    24A     -0.454245
      25A     -0.443677    26A     -0.328852

  @DF-RHF Final Energy:  -322.82359271097658

   => Energetics <=

    Nuclear Repulsion Energy =            292.3917617108230615
    One-Electron Energy =               -1017.5840512278670076
    Two-Electron Energy =                 402.3686968060673621
    Total Energy =                       -322.8235927109765839
  Basis Set: (AUG-CC-PVTZ AUX)
    Blend: AUG-CC-PVTZ-RI
    Molecular point group: c1

    Geometry (in Angstrom), charge = 0, multiplicity = 1:

       Center              X                  Y                   Z               Mass
    ------------   -----------------  -----------------  -----------------  -----------------
         O           -0.819749479927    -1.094942801643    -0.000012425065    15.994914619570
         N           -0.229919479927     1.069111198357     0.000017574935    14.003074004430
         C            1.588531520073    -0.682206801643     0.000024574935    12.000000000000
         C            0.172566920073    -0.218243601643     0.000004674935    12.000000000000
         C            2.607433520073     0.453037198357    -0.000023425065    12.000000000000
         C           -1.970043479927    -0.348425801643    -0.000013425065    12.000000000000
         C           -1.616190479927     0.965111198357     0.000004574935    12.000000000000
         H            1.727650520073    -1.326439801643     0.876432574935     1.007825032230
         H            1.727651520073    -1.326520801643    -0.876322425065     1.007825032230
         H            2.482227520073     1.084562198357    -0.881452425065     1.007825032230
         H            3.622318520073     0.046839198357    -0.000021425065     1.007825032230
         H            2.482247520073     1.084622198357     0.881365574935     1.007825032230
         H           -2.900294479927    -0.894547801643    -0.000005425065     1.007825032230
         H           -2.251888479927     1.838921198357    -0.000007425065     1.007825032230

  Basis Set: AUG-CC-PVTZ
    Blend: AUG-CC-PVTZ
  Basis Set: (AUG-CC-PVTZ AUX)
    Blend: AUG-CC-PVTZ-JKFIT
	 Reference Energy          =    -322.8235927109765839 [Eh]
	 Singles Energy            =      -0.0000000000000000 [Eh]
	 Same-Spin Energy          =      -0.3362256102760364 [Eh]
	 Opposite-Spin Energy      =      -1.0620443432476665 [Eh]
	 Correlation Energy        =      -1.3982699535237029 [Eh]
	 Total Energy              =    -324.2218626645002928 [Eh]

	 ================> DF-SCS-MP2 Energies <==================
	-----------------------------------------------------------
	 SCS Same-Spin Scale       =       0.3333333333333333 [-]
	 SCS Opposite-Spin Scale   =       1.2000000000000000 [-]
	 SCS Same-Spin Energy      =      -0.1120752034253455 [Eh]
	 SCS Opposite-Spin Energy  =      -1.2744532118971998 [Eh]
	 SCS Correlation Energy    =      -1.3865284153225452 [Eh]
	 SCS Total Energy          =    -324.2101211262991569 [Eh]
	-----------------------------------------------------------

  Dipole Moment: [D]
     X:    -0.4440      Y:    -1.3111      Z:    -0.0000     Total:     1.3842

*** Psi4 exiting successfully. Buy a developer a beer!
