                               Psi4 1.3.2 release

  ==> Input File <==

--------------------------------------------------------------------------
#psi4
#
memory 32 gb

molecule  {
0 1
  O       -0.8874150    -1.1053680    -0.0000120
  N       -0.2975850     1.0586860     0.0000180
  C        1.5208660    -0.6926320     0.0000250
  C        0.1132035    -0.2060320     0.0438926
  C        2.5397680     0.4426120    -0.0000230
  C       -2.0377090    -0.3588510    -0.0000130
  C       -1.6838560     0.9546860     0.0000050
  H        1.6599850    -1.3368650     0.8764330
  H        1.6599860    -1.3369460    -0.8763220
  H        2.4145620     1.0741370    -0.8814520
  H        3.5546530     0.0364140    -0.0000210
  H        2.4145820     1.0741970     0.8813660
  H       -2.9679600    -0.9049730    -0.0000050
  H       -2.3195540     1.8284960    -0.0000070
units angstrom
no_reorient  #important for SAPT in psi4, default
symmetry c1  #important for SAPT in psi4, default
}

set PROPERTIES_ORIGIN ["COM"]
properties('MP2/aug-cc-pvtz', properties = ['dipole'])
--------------------------------------------------------------------------

    Molecular point group: c1
  Charge       = 0
  Multiplicity = 1
  Basis Set: AUG-CC-PVTZ
    Blend: AUG-CC-PVTZ
  Basis Set: (AUG-CC-PVTZ AUX)
    Blend: AUG-CC-PVTZ-JKFIT

    Orbital Energies [Eh]
    ---------------------

    Doubly Occupied:

       1A    -20.639208     2A    -15.560179     3A    -11.339605
       4A    -11.289643     5A    -11.261167     6A    -11.248868
       7A    -11.220964     8A     -1.486206     9A     -1.219269
      10A     -1.083368    11A     -0.997537    12A     -0.884473
      13A     -0.829054    14A     -0.782890    15A     -0.717875
      16A     -0.670946    17A     -0.631713    18A     -0.610388
      19A     -0.582013    20A     -0.573723    21A     -0.529326
      22A     -0.512946    23A     -0.504569    24A     -0.456128
      25A     -0.445636    26A     -0.330421

  @DF-RHF Final Energy:  -322.82497650514665

   => Energetics <=

    Nuclear Repulsion Energy =            292.3309021075618830
    One-Electron Energy =               -1017.4955283188387511
    Two-Electron Energy =                 402.3396497061302171
    Total Energy =                       -322.8249765051466511
  Basis Set: (AUG-CC-PVTZ AUX)
    Blend: AUG-CC-PVTZ-RI
    Molecular point group: c1

    Geometry (in Angstrom), charge = 0, multiplicity = 1:

       Center              X                  Y                   Z               Mass
    ------------   -----------------  -----------------  -----------------  -----------------
         O           -0.820775985470    -1.097741708023    -0.005438854763    15.994914619570
         N           -0.230945985470     1.066312291977    -0.005408854763    14.003074004430
         C            1.587505014530    -0.685005708023    -0.005401854763    12.000000000000
         C            0.179842514530    -0.198405708023     0.038465745237    12.000000000000
         C            2.606407014530     0.450238291977    -0.005449854763    12.000000000000
         C           -1.971069985470    -0.351224708023    -0.005439854763    12.000000000000
         C           -1.617216985470     0.962312291977    -0.005421854763    12.000000000000
         H            1.726624014530    -1.329238708023     0.871006145237     1.007825032230
         H            1.726625014530    -1.329319708023    -0.881748854763     1.007825032230
         H            2.481201014530     1.081763291977    -0.886878854763     1.007825032230
         H            3.621292014530     0.044040291977    -0.005447854763     1.007825032230
         H            2.481221014530     1.081823291977     0.875939145237     1.007825032230
         H           -2.901320985470    -0.897346708023    -0.005431854763     1.007825032230
         H           -2.252914985470     1.836122291977    -0.005433854763     1.007825032230

  Basis Set: AUG-CC-PVTZ
    Blend: AUG-CC-PVTZ
  Basis Set: (AUG-CC-PVTZ AUX)
    Blend: AUG-CC-PVTZ-JKFIT
	 Reference Energy          =    -322.8249765051466511 [Eh]
	 Singles Energy            =      -0.0000000000000000 [Eh]
	 Same-Spin Energy          =      -0.3360868698239615 [Eh]
	 Opposite-Spin Energy      =      -1.0621470919059797 [Eh]
	 Correlation Energy        =      -1.3982339617299411 [Eh]
	 Total Energy              =    -324.2232104668765942 [Eh]

	 ================> DF-SCS-MP2 Energies <==================
	-----------------------------------------------------------
	 SCS Same-Spin Scale       =       0.3333333333333333 [-]
	 SCS Opposite-Spin Scale   =       1.2000000000000000 [-]
	 SCS Same-Spin Energy      =      -0.1120289566079871 [Eh]
	 SCS Opposite-Spin Energy  =      -1.2745765102871756 [Eh]
	 SCS Correlation Energy    =      -1.3866054668951626 [Eh]
	 SCS Total Energy          =    -324.2115819720418131 [Eh]
	-----------------------------------------------------------

  Dipole Moment: [D]
     X:    -0.4174      Y:    -1.2494      Z:     0.0126     Total:     1.3173

*** Psi4 exiting successfully. Buy a developer a beer!
