                               Psi4 1.3.2 release

  ==> Input File <==

--------------------------------------------------------------------------
#psi4
#
memory 32 gb

molecule  {
0 1
  O       -0.8874150    -1.1053680    -0.0000120
  N       -0.3829369     1.0264041     0.0000154
  C        1.5208660    -0.6926320     0.0000250
  C        0.1219560    -0.1795350     0.0000030
  C        2.5397680     0.4426120    -0.0000230
  C       -2.0377090    -0.3588510    -0.0000130
  C       -1.6838560     0.9546860     0.0000050
  H        1.6599850    -1.3368650     0.8764330
  H        1.6599860    -1.3369460    -0.8763220
  H        2.4145620     1.0741370    -0.8814520
  H        3.5546530     0.0364140    -0.0000210
  H        2.4145820     1.0741970     0.8813660
  H       -2.9679600    -0.9049730    -0.0000050
  H       -2.3195540     1.8284960    -0.0000070
units angstrom
no_reorient  #important for SAPT in psi4, default
symmetry c1  #important for SAPT in psi4, default
}

set PROPERTIES_ORIGIN ["COM"]
properties('MP2/aug-cc-pvtz', properties = ['dipole'])
--------------------------------------------------------------------------

    Molecular point group: c1
  Charge       = 0
  Multiplicity = 1
  Basis Set: AUG-CC-PVTZ
    Blend: AUG-CC-PVTZ
  Basis Set: (AUG-CC-PVTZ AUX)
    Blend: AUG-CC-PVTZ-JKFIT

    Orbital Energies [Eh]
    ---------------------

    Doubly Occupied:

       1A    -20.633698     2A    -15.550105     3A    -11.335244
       4A    -11.285232     5A    -11.251705     6A    -11.251670
       7A    -11.222872     8A     -1.478838     9A     -1.243265
      10A     -1.085741    11A     -0.996200    12A     -0.883754
      13A     -0.833096    14A     -0.787586    15A     -0.719171
      16A     -0.668573    17A     -0.629552    18A     -0.610653
      19A     -0.599629    20A     -0.571801    21A     -0.528075
      22A     -0.519069    23A     -0.506691    24A     -0.460255
      25A     -0.443106    26A     -0.322661

  @DF-RHF Final Energy:  -322.82034922200450

   => Energetics <=

    Nuclear Repulsion Energy =            293.7661609536118021
    One-Electron Energy =               -1020.3365346546925139
    Two-Electron Energy =                 403.7500244790762167
    Total Energy =                       -322.8203492220044950
  Basis Set: (AUG-CC-PVTZ AUX)
    Blend: AUG-CC-PVTZ-RI
    Molecular point group: c1

    Geometry (in Angstrom), charge = 0, multiplicity = 1:

       Center              X                  Y                   Z               Mass
    ------------   -----------------  -----------------  -----------------  -----------------
         O           -0.809543343256    -1.096360172564    -0.000011790277    15.994914619570
         N           -0.305065243256     1.035411927436     0.000015609723    14.003074004430
         C            1.598737656744    -0.683624172564     0.000025209723    12.000000000000
         C            0.199827656744    -0.170527172564     0.000003209723    12.000000000000
         C            2.617639656744     0.451619827436    -0.000022790277    12.000000000000
         C           -1.959837343256    -0.349843172564    -0.000012790277    12.000000000000
         C           -1.605984343256     0.963693827436     0.000005209723    12.000000000000
         H            1.737856656744    -1.327857172564     0.876433209723     1.007825032230
         H            1.737857656744    -1.327938172564    -0.876321790277     1.007825032230
         H            2.492433656744     1.083144827436    -0.881451790277     1.007825032230
         H            3.632524656744     0.045421827436    -0.000020790277     1.007825032230
         H            2.492453656744     1.083204827436     0.881366209723     1.007825032230
         H           -2.890088343256    -0.895965172564    -0.000004790277     1.007825032230
         H           -2.241682343256     1.837503827436    -0.000006790277     1.007825032230

  Basis Set: AUG-CC-PVTZ
    Blend: AUG-CC-PVTZ
  Basis Set: (AUG-CC-PVTZ AUX)
    Blend: AUG-CC-PVTZ-JKFIT
	 Reference Energy          =    -322.8203492220044950 [Eh]
	 Singles Energy            =      -0.0000000000000000 [Eh]
	 Same-Spin Energy          =      -0.3369639365050766 [Eh]
	 Opposite-Spin Energy      =      -1.0614156672226698 [Eh]
	 Correlation Energy        =      -1.3983796037277463 [Eh]
	 Total Energy              =    -324.2187288257322280 [Eh]

	 ================> DF-SCS-MP2 Energies <==================
	-----------------------------------------------------------
	 SCS Same-Spin Scale       =       0.3333333333333333 [-]
	 SCS Opposite-Spin Scale   =       1.2000000000000000 [-]
	 SCS Same-Spin Energy      =      -0.1123213121683589 [Eh]
	 SCS Opposite-Spin Energy  =      -1.2736988006672036 [Eh]
	 SCS Correlation Energy    =      -1.3860201128355625 [Eh]
	 SCS Total Energy          =    -324.2063693348400761 [Eh]
	-----------------------------------------------------------

  Dipole Moment: [D]
     X:    -0.1994      Y:    -1.1023      Z:     0.0000     Total:     1.1202

*** Psi4 exiting successfully. Buy a developer a beer!
