                               Psi4 1.3.2 release

  ==> Input File <==

--------------------------------------------------------------------------
#psi4
#
memory 32 gb

molecule  {
0 1
  O       -0.8874150    -1.1053680    -0.0000120
  N       -0.2975850     1.0586860     0.0000180
  C        1.5208660    -0.6926320     0.0000250
  C        0.1132143    -0.2040275     0.0000040
  C        2.5397680     0.4426120    -0.0000230
  C       -2.0377090    -0.3588510    -0.0000130
  C       -1.6838560     0.9546860     0.0000050
  H        1.6599850    -1.3368650     0.8764330
  H        1.6599860    -1.3369460    -0.8763220
  H        2.4145620     1.0741370    -0.8814520
  H        3.5546530     0.0364140    -0.0000210
  H        2.4145820     1.0741970     0.8813660
  H       -2.9679600    -0.9049730    -0.0000050
  H       -2.3195540     1.8284960    -0.0000070
units angstrom
no_reorient  #important for SAPT in psi4, default
symmetry c1  #important for SAPT in psi4, default
}

set PROPERTIES_ORIGIN ["COM"]
properties('MP2/aug-cc-pvtz', properties = ['dipole'])
--------------------------------------------------------------------------

    Molecular point group: c1
  Charge       = 0
  Multiplicity = 1
  Basis Set: AUG-CC-PVTZ
    Blend: AUG-CC-PVTZ
  Basis Set: (AUG-CC-PVTZ AUX)
    Blend: AUG-CC-PVTZ-JKFIT

    Orbital Energies [Eh]
    ---------------------

    Doubly Occupied:

       1A    -20.638943     2A    -15.559935     3A    -11.339371
       4A    -11.289615     5A    -11.261133     6A    -11.248873
       7A    -11.220971     8A     -1.485961     9A     -1.220052
      10A     -1.083341    11A     -0.997573    12A     -0.884478
      13A     -0.829209    14A     -0.782788    15A     -0.717898
      16A     -0.670904    17A     -0.631525    18A     -0.610383
      19A     -0.582241    20A     -0.573886    21A     -0.529170
      22A     -0.512889    23A     -0.504963    24A     -0.455881
      25A     -0.446426    26A     -0.330571

  @DF-RHF Final Energy:  -322.82605733275170

   => Energetics <=

    Nuclear Repulsion Energy =            292.3657157765904344
    One-Electron Energy =               -1017.5655881457450960
    Two-Electron Energy =                 402.3738150364030162
    Total Energy =                       -322.8260573327517022
  Basis Set: (AUG-CC-PVTZ AUX)
    Blend: AUG-CC-PVTZ-RI
    Molecular point group: c1

    Geometry (in Angstrom), charge = 0, multiplicity = 1:

       Center              X                  Y                   Z               Mass
    ------------   -----------------  -----------------  -----------------  -----------------
         O           -0.820777320826    -1.097989552588    -0.000012289057    15.994914619570
         N           -0.230947320826     1.066064447412     0.000017710943    14.003074004430
         C            1.587503679174    -0.685253552588     0.000024710943    12.000000000000
         C            0.179851979174    -0.196649052588     0.000003710943    12.000000000000
         C            2.606405679174     0.449990447412    -0.000023289057    12.000000000000
         C           -1.971071320826    -0.351472552588    -0.000013289057    12.000000000000
         C           -1.617218320826     0.962064447412     0.000004710943    12.000000000000
         H            1.726622679174    -1.329486552588     0.876432710943     1.007825032230
         H            1.726623679174    -1.329567552588    -0.876322289057     1.007825032230
         H            2.481199679174     1.081515447412    -0.881452289057     1.007825032230
         H            3.621290679174     0.043792447412    -0.000021289057     1.007825032230
         H            2.481219679174     1.081575447412     0.881365710943     1.007825032230
         H           -2.901322320826    -0.897594552588    -0.000005289057     1.007825032230
         H           -2.252916320826     1.835874447412    -0.000007289057     1.007825032230

  Basis Set: AUG-CC-PVTZ
    Blend: AUG-CC-PVTZ
  Basis Set: (AUG-CC-PVTZ AUX)
    Blend: AUG-CC-PVTZ-JKFIT
	 Reference Energy          =    -322.8260573327517022 [Eh]
	 Singles Energy            =      -0.0000000000000000 [Eh]
	 Same-Spin Energy          =      -0.3359853577769635 [Eh]
	 Opposite-Spin Energy      =      -1.0619526843591376 [Eh]
	 Correlation Energy        =      -1.3979380421361012 [Eh]
	 Total Energy              =    -324.2239953748878065 [Eh]

	 ================> DF-SCS-MP2 Energies <==================
	-----------------------------------------------------------
	 SCS Same-Spin Scale       =       0.3333333333333333 [-]
	 SCS Opposite-Spin Scale   =       1.2000000000000000 [-]
	 SCS Same-Spin Energy      =      -0.1119951192589878 [Eh]
	 SCS Opposite-Spin Energy  =      -1.2743432212309651 [Eh]
	 SCS Correlation Energy    =      -1.3863383404899530 [Eh]
	 SCS Total Energy          =    -324.2123956732416445 [Eh]
	-----------------------------------------------------------

  Dipole Moment: [D]
     X:    -0.4089      Y:    -1.2475      Z:    -0.0000     Total:     1.3128

*** Psi4 exiting successfully. Buy a developer a beer!
