                               Psi4 1.3.2 release

  ==> Input File <==

--------------------------------------------------------------------------
#psi4
#
memory 32 gb

molecule  {
0 1
  O       -0.9191112    -1.0695775    -0.0000125
  N       -0.2975850     1.0586860     0.0000180
  C        1.5208660    -0.6926320     0.0000250
  C        0.1219560    -0.1795350     0.0000030
  C        2.5397680     0.4426120    -0.0000230
  C       -2.0377090    -0.3588510    -0.0000130
  C       -1.6838560     0.9546860     0.0000050
  H        1.6599850    -1.3368650     0.8764330
  H        1.6599860    -1.3369460    -0.8763220
  H        2.4145620     1.0741370    -0.8814520
  H        3.5546530     0.0364140    -0.0000210
  H        2.4145820     1.0741970     0.8813660
  H       -2.9679600    -0.9049730    -0.0000050
  H       -2.3195540     1.8284960    -0.0000070
units angstrom
no_reorient  #important for SAPT in psi4, default
symmetry c1  #important for SAPT in psi4, default
}

set PROPERTIES_ORIGIN ["COM"]
properties('MP2/aug-cc-pvtz', properties = ['dipole'])
--------------------------------------------------------------------------

    Molecular point group: c1
  Charge       = 0
  Multiplicity = 1
  Basis Set: AUG-CC-PVTZ
    Blend: AUG-CC-PVTZ
  Basis Set: (AUG-CC-PVTZ AUX)
    Blend: AUG-CC-PVTZ-JKFIT

    Orbital Energies [Eh]
    ---------------------

    Doubly Occupied:

       1A    -20.634417     2A    -15.560382     3A    -11.335585
       4A    -11.288067     5A    -11.254812     6A    -11.250351
       7A    -11.221785     8A     -1.492151     9A     -1.225502
      10A     -1.083919    11A     -0.999471    12A     -0.884300
      13A     -0.832838    14A     -0.781900    15A     -0.722152
      16A     -0.672859    17A     -0.635269    18A     -0.612962
      19A     -0.583390    20A     -0.565450    21A     -0.529879
      22A     -0.515400    23A     -0.506145    24A     -0.456548
      25A     -0.447273    26A     -0.328855

  @DF-RHF Final Energy:  -322.82684055253446

   => Energetics <=

    Nuclear Repulsion Energy =            293.2526127389186286
    One-Electron Energy =               -1019.3155798139811168
    Two-Electron Energy =                 403.2361265225280249
    Total Energy =                       -322.8268405525344633
  Basis Set: (AUG-CC-PVTZ AUX)
    Blend: AUG-CC-PVTZ-RI
    Molecular point group: c1

    Geometry (in Angstrom), charge = 0, multiplicity = 1:

       Center              X                  Y                   Z               Mass
    ------------   -----------------  -----------------  -----------------  -----------------
         O           -0.848330644345    -1.071125908015    -0.000012583009    15.994914619570
         N           -0.226804444345     1.057137591985     0.000017916991    14.003074004430
         C            1.591646555655    -0.694180408015     0.000024916991    12.000000000000
         C            0.192736555655    -0.181083408015     0.000002916991    12.000000000000
         C            2.610548555655     0.441063591985    -0.000023083009    12.000000000000
         C           -1.966928444345    -0.360399408015    -0.000013083009    12.000000000000
         C           -1.613075444345     0.953137591985     0.000004916991    12.000000000000
         H            1.730765555655    -1.338413408015     0.876432916991     1.007825032230
         H            1.730766555655    -1.338494408015    -0.876322083009     1.007825032230
         H            2.485342555655     1.072588591985    -0.881452083009     1.007825032230
         H            3.625433555655     0.034865591985    -0.000021083009     1.007825032230
         H            2.485362555655     1.072648591985     0.881365916991     1.007825032230
         H           -2.897179444345    -0.906521408015    -0.000005083009     1.007825032230
         H           -2.248773444345     1.826947591985    -0.000007083009     1.007825032230

  Basis Set: AUG-CC-PVTZ
    Blend: AUG-CC-PVTZ
  Basis Set: (AUG-CC-PVTZ AUX)
    Blend: AUG-CC-PVTZ-JKFIT
	 Reference Energy          =    -322.8268405525344633 [Eh]
	 Singles Energy            =      -0.0000000000000000 [Eh]
	 Same-Spin Energy          =      -0.3358908166073579 [Eh]
	 Opposite-Spin Energy      =      -1.0607660434860857 [Eh]
	 Correlation Energy        =      -1.3966568600934437 [Eh]
	 Total Energy              =    -324.2234974126279212 [Eh]

	 ================> DF-SCS-MP2 Energies <==================
	-----------------------------------------------------------
	 SCS Same-Spin Scale       =       0.3333333333333333 [-]
	 SCS Opposite-Spin Scale   =       1.2000000000000000 [-]
	 SCS Same-Spin Energy      =      -0.1119636055357860 [Eh]
	 SCS Opposite-Spin Energy  =      -1.2729192521833028 [Eh]
	 SCS Correlation Energy    =      -1.3848828577190888 [Eh]
	 SCS Total Energy          =    -324.2117234102535690 [Eh]
	-----------------------------------------------------------

  Dipole Moment: [D]
     X:    -0.2850      Y:    -1.3185      Z:    -0.0000     Total:     1.3489

*** Psi4 exiting successfully. Buy a developer a beer!
