                               Psi4 1.4a3.dev225

  ==> Input File <==

--------------------------------------------------------------------------
#psi4
#
memory 32 gb

molecule  {
0 1
  O       -0.8874150    -1.1053680    -0.0000120
  N       -0.2975850     1.0586860     0.0000180
  C        1.5208660    -0.6926320     0.0000250
  C        0.1219560    -0.1795350     0.0000030
  C        2.5397680     0.4426120    -0.0000230
  C       -2.0377090    -0.3588510    -0.0000130
  C       -1.6890583     0.9353745     0.0000047
  H        1.6599850    -1.3368650     0.8764330
  H        1.6599860    -1.3369460    -0.8763220
  H        2.4145620     1.0741370    -0.8814520
  H        3.5546530     0.0364140    -0.0000210
  H        2.4145820     1.0741970     0.8813660
  H       -2.9679600    -0.9049730    -0.0000050
  H       -2.3195540     1.8284960    -0.0000070
units angstrom
no_reorient  #important for SAPT in psi4, default
symmetry c1  #important for SAPT in psi4, default
}

set PROPERTIES_ORIGIN ["COM"]
properties('MP2/aug-cc-pvtz', properties = ['dipole'])
--------------------------------------------------------------------------

    Molecular point group: c1
  Charge       = 0
  Multiplicity = 1
  Basis Set: AUG-CC-PVTZ
    Blend: AUG-CC-PVTZ
  Basis Set: (AUG-CC-PVTZ AUX)
    Blend: AUG-CC-PVTZ-JKFIT

    Orbital Energies [Eh]
    ---------------------

    Doubly Occupied:

       1A    -20.632802     2A    -15.560629     3A    -11.338000
       4A    -11.288228     5A    -11.258948     6A    -11.248764
       7A    -11.220878     8A     -1.476641     9A     -1.224908
      10A     -1.083605    11A     -0.999859    12A     -0.885104
      13A     -0.825422    14A     -0.780564    15A     -0.716751
      16A     -0.667446    17A     -0.629060    18A     -0.609456
      19A     -0.580957    20A     -0.572973    21A     -0.526777
      22A     -0.514245    23A     -0.505065    24A     -0.458382
      25A     -0.448479    26A     -0.336165

  @DF-RHF Final Energy:  -322.82754008456567

   => Energetics <=

    Nuclear Repulsion Energy =            292.5654707518687019
    One-Electron Energy =               -1018.0058070135147545
    Two-Electron Energy =                 402.6127961770803836
    Total Energy =                       -322.8275400845656691
  Basis Set: (AUG-CC-PVTZ AUX)
    Blend: AUG-CC-PVTZ-RI
    Molecular point group: c1

    Geometry (in Angstrom), charge = 0, multiplicity = 1:

       Center              X                  Y                   Z               Mass
    ------------   -----------------  -----------------  -----------------  -----------------
         O           -0.821214946693    -1.098630152583    -0.000012128319    15.994914619570
         N           -0.231384946693     1.065423847417     0.000017871681    14.003074004430
         C            1.587066053307    -0.685894152583     0.000024871681    12.000000000000
         C            0.188156053307    -0.172797152583     0.000002871681    12.000000000000
         C            2.605968053307     0.449349847417    -0.000023128319    12.000000000000
         C           -1.971508946693    -0.352113152583    -0.000013128319    12.000000000000
         C           -1.622858246693     0.942112347417     0.000004571681    12.000000000000
         H            1.726185053307    -1.330127152583     0.876432871681     1.007825032230
         H            1.726186053307    -1.330208152583    -0.876322128319     1.007825032230
         H            2.480762053307     1.080874847417    -0.881452128319     1.007825032230
         H            3.620853053307     0.043151847417    -0.000021128319     1.007825032230
         H            2.480782053307     1.080934847417     0.881365871681     1.007825032230
         H           -2.901759946693    -0.898235152583    -0.000005128319     1.007825032230
         H           -2.253353946693     1.835233847417    -0.000007128319     1.007825032230

  Basis Set: AUG-CC-PVTZ
    Blend: AUG-CC-PVTZ
  Basis Set: (AUG-CC-PVTZ AUX)
    Blend: AUG-CC-PVTZ-JKFIT
	 Reference Energy          =    -322.8275400845656691 [Eh]
	 Singles Energy            =      -0.0000000000000000 [Eh]
	 Same-Spin Energy          =      -0.3353746706637520 [Eh]
	 Opposite-Spin Energy      =      -1.0612902916901112 [Eh]
	 Correlation Energy        =      -1.3966649623538632 [Eh]
	 Total Energy              =    -324.2242050469195078 [Eh]

	 ================> DF-SCS-MP2 Energies <==================
	-----------------------------------------------------------
	 SCS Same-Spin Scale       =       0.3333333333333333 [-]
	 SCS Opposite-Spin Scale   =       1.2000000000000000 [-]
	 SCS Same-Spin Energy      =      -0.1117915568879173 [Eh]
	 SCS Opposite-Spin Energy  =      -1.2735483500281335 [Eh]
	 SCS Correlation Energy    =      -1.3853399069160508 [Eh]
	 SCS Total Energy          =    -324.2128799914817137 [Eh]
	-----------------------------------------------------------

  Dipole Moment: [D]
     X:    -0.3626      Y:    -1.1927      Z:    -0.0000     Total:     1.2466

*** Psi4 exiting successfully. Buy a developer a beer!
