                               Psi4 1.3.2 release

  ==> Input File <==

--------------------------------------------------------------------------
#psi4
#
memory 32 gb

molecule  {
0 1
  O       -0.8874150    -1.1053680    -0.0000120
  N       -0.2975850     1.0586860     0.0000180
  C        1.5208660    -0.6926320     0.0000250
  C        0.1445614    -0.1284479    -0.0877226
  C        2.5397680     0.4426120    -0.0000230
  C       -2.0377090    -0.3588510    -0.0000130
  C       -1.6838560     0.9546860     0.0000050
  H        1.6599850    -1.3368650     0.8764330
  H        1.6599860    -1.3369460    -0.8763220
  H        2.4145620     1.0741370    -0.8814520
  H        3.5546530     0.0364140    -0.0000210
  H        2.4145820     1.0741970     0.8813660
  H       -2.9679600    -0.9049730    -0.0000050
  H       -2.3195540     1.8284960    -0.0000070
units angstrom
no_reorient  #important for SAPT in psi4, default
symmetry c1  #important for SAPT in psi4, default
}

set PROPERTIES_ORIGIN ["COM"]
properties('MP2/aug-cc-pvtz', properties = ['dipole'])
--------------------------------------------------------------------------

    Molecular point group: c1
  Charge       = 0
  Multiplicity = 1
  Basis Set: AUG-CC-PVTZ
    Blend: AUG-CC-PVTZ
  Basis Set: (AUG-CC-PVTZ AUX)
    Blend: AUG-CC-PVTZ-JKFIT

    Orbital Energies [Eh]
    ---------------------

    Doubly Occupied:

       1A    -20.623516     2A    -15.563198     3A    -11.335219
       4A    -11.293398     5A    -11.259588     6A    -11.249027
       7A    -11.220793     8A     -1.456568     9A     -1.238190
      10A     -1.081752    11A     -0.996636    12A     -0.883409
      13A     -0.825368    14A     -0.773488    15A     -0.715236
      16A     -0.660009    17A     -0.628936    18A     -0.606499
      19A     -0.593266    20A     -0.564527    21A     -0.522605
      22A     -0.517698    23A     -0.504027    24A     -0.459987
      25A     -0.452982    26A     -0.334219

  @DF-RHF Final Energy:  -322.82086168686419

   => Energetics <=

    Nuclear Repulsion Energy =            292.1662372510236310
    One-Electron Energy =               -1017.2539150461326471
    Two-Electron Energy =                 402.2668161082448250
    Total Energy =                       -322.8208616868641911
  Basis Set: (AUG-CC-PVTZ AUX)
    Blend: AUG-CC-PVTZ-RI
    Molecular point group: c1

    Geometry (in Angstrom), charge = 0, multiplicity = 1:

       Center              X                  Y                   Z               Mass
    ------------   -----------------  -----------------  -----------------  -----------------
         O           -0.824653204264    -1.107334522932     0.010834585965    15.994914619570
         N           -0.234823204264     1.056719477068     0.010864585965    14.003074004430
         C            1.583627795736    -0.694598522932     0.010871585965    12.000000000000
         C            0.207323195736    -0.130414422932    -0.076876014035    12.000000000000
         C            2.602529795736     0.440645477068     0.010823585965    12.000000000000
         C           -1.974947204264    -0.360817522932     0.010833585965    12.000000000000
         C           -1.621094204264     0.952719477068     0.010851585965    12.000000000000
         H            1.722746795736    -1.338831522932     0.887279585965     1.007825032230
         H            1.722747795736    -1.338912522932    -0.865475414035     1.007825032230
         H            2.477323795736     1.072170477068    -0.870605414035     1.007825032230
         H            3.617414795736     0.034447477068     0.010825585965     1.007825032230
         H            2.477343795736     1.072230477068     0.892212585965     1.007825032230
         H           -2.905198204264    -0.906939522932     0.010841585965     1.007825032230
         H           -2.256792204264     1.826529477068     0.010839585965     1.007825032230

  Basis Set: AUG-CC-PVTZ
    Blend: AUG-CC-PVTZ
  Basis Set: (AUG-CC-PVTZ AUX)
    Blend: AUG-CC-PVTZ-JKFIT
	 Reference Energy          =    -322.8208616868641911 [Eh]
	 Singles Energy            =      -0.0000000000000000 [Eh]
	 Same-Spin Energy          =      -0.3357534500284250 [Eh]
	 Opposite-Spin Energy      =      -1.0626654948015779 [Eh]
	 Correlation Energy        =      -1.3984189448300031 [Eh]
	 Total Energy              =    -324.2192806316941756 [Eh]

	 ================> DF-SCS-MP2 Energies <==================
	-----------------------------------------------------------
	 SCS Same-Spin Scale       =       0.3333333333333333 [-]
	 SCS Opposite-Spin Scale   =       1.2000000000000000 [-]
	 SCS Same-Spin Energy      =      -0.1119178166761417 [Eh]
	 SCS Opposite-Spin Energy  =      -1.2751985937618935 [Eh]
	 SCS Correlation Energy    =      -1.3871164104380351 [Eh]
	 SCS Total Energy          =    -324.2079780973022025 [Eh]
	-----------------------------------------------------------

  Dipole Moment: [D]
     X:    -0.2773      Y:    -1.0276      Z:    -0.0316     Total:     1.0649

*** Psi4 exiting successfully. Buy a developer a beer!
