                               Psi4 1.3.2 release

  ==> Input File <==

--------------------------------------------------------------------------
#psi4
#
memory 32 gb

molecule  {
0 1
  O       -0.8874150    -1.1053680    -0.0000120
  N       -0.2975850     1.0586860     0.0000180
  C        1.5208660    -0.6926320     0.0000250
  C        0.0759861    -0.3285717     0.0000093
  C        2.5397680     0.4426120    -0.0000230
  C       -2.0377090    -0.3588510    -0.0000130
  C       -1.6838560     0.9546860     0.0000050
  H        1.6599850    -1.3368650     0.8764330
  H        1.6599860    -1.3369460    -0.8763220
  H        2.4145620     1.0741370    -0.8814520
  H        3.5546530     0.0364140    -0.0000210
  H        2.4145820     1.0741970     0.8813660
  H       -2.9679600    -0.9049730    -0.0000050
  H       -2.3195540     1.8284960    -0.0000070
units angstrom
no_reorient  #important for SAPT in psi4, default
symmetry c1  #important for SAPT in psi4, default
}

set PROPERTIES_ORIGIN ["COM"]
properties('MP2/aug-cc-pvtz', properties = ['dipole'])
--------------------------------------------------------------------------

    Molecular point group: c1
  Charge       = 0
  Multiplicity = 1
  Basis Set: AUG-CC-PVTZ
    Blend: AUG-CC-PVTZ
  Basis Set: (AUG-CC-PVTZ AUX)
    Blend: AUG-CC-PVTZ-JKFIT

    Orbital Energies [Eh]
    ---------------------

    Doubly Occupied:

       1A    -20.660459     2A    -15.553154     3A    -11.347381
       4A    -11.281928     5A    -11.263010     6A    -11.251439
       7A    -11.222633     8A     -1.539051     9A     -1.190380
      10A     -1.088266    11A     -1.003430    12A     -0.886380
      13A     -0.842868    14A     -0.790003    15A     -0.720437
      16A     -0.695369    17A     -0.635882    18A     -0.615433
      19A     -0.594282    20A     -0.557385    21A     -0.541518
      22A     -0.506003    23A     -0.500503    24A     -0.442709
      25A     -0.435599    26A     -0.319813

  @DF-RHF Final Energy:  -322.79868804331863

   => Energetics <=

    Nuclear Repulsion Energy =            292.5412972928876911
    One-Electron Energy =               -1017.7093369868930495
    Two-Electron Energy =                 402.3693516506866672
    Total Energy =                       -322.7986880433186343
  Basis Set: (AUG-CC-PVTZ AUX)
    Blend: AUG-CC-PVTZ-RI
    Molecular point group: c1

    Geometry (in Angstrom), charge = 0, multiplicity = 1:

       Center              X                  Y                   Z               Mass
    ------------   -----------------  -----------------  -----------------  -----------------
         O           -0.816174274171    -1.082590399172    -0.000012944370    15.994914619570
         N           -0.226344274171     1.081463600828     0.000017055630    14.003074004430
         C            1.592106725829    -0.669854399172     0.000024055630    12.000000000000
         C            0.147226825829    -0.305794099172     0.000008355630    12.000000000000
         C            2.611008725829     0.465389600828    -0.000023944370    12.000000000000
         C           -1.966468274171    -0.336073399172    -0.000013944370    12.000000000000
         C           -1.612615274171     0.977463600828     0.000004055630    12.000000000000
         H            1.731225725829    -1.314087399172     0.876432055630     1.007825032230
         H            1.731226725829    -1.314168399172    -0.876322944370     1.007825032230
         H            2.485802725829     1.096914600828    -0.881452944370     1.007825032230
         H            3.625893725829     0.059191600828    -0.000021944370     1.007825032230
         H            2.485822725829     1.096974600828     0.881365055630     1.007825032230
         H           -2.896719274171    -0.882195399172    -0.000005944370     1.007825032230
         H           -2.248313274171     1.851273600828    -0.000007944370     1.007825032230

  Basis Set: AUG-CC-PVTZ
    Blend: AUG-CC-PVTZ
  Basis Set: (AUG-CC-PVTZ AUX)
    Blend: AUG-CC-PVTZ-JKFIT
	 Reference Energy          =    -322.7986880433186343 [Eh]
	 Singles Energy            =      -0.0000000000000000 [Eh]
	 Same-Spin Energy          =      -0.3372485407902175 [Eh]
	 Opposite-Spin Energy      =      -1.0626514225589139 [Eh]
	 Correlation Energy        =      -1.3998999633491314 [Eh]
	 Total Energy              =    -324.1985880066677623 [Eh]

	 ================> DF-SCS-MP2 Energies <==================
	-----------------------------------------------------------
	 SCS Same-Spin Scale       =       0.3333333333333333 [-]
	 SCS Opposite-Spin Scale   =       1.2000000000000000 [-]
	 SCS Same-Spin Energy      =      -0.1124161802634058 [Eh]
	 SCS Opposite-Spin Energy  =      -1.2751817070706966 [Eh]
	 SCS Correlation Energy    =      -1.3875978873341024 [Eh]
	 SCS Total Energy          =    -324.1862859306527298 [Eh]
	-----------------------------------------------------------

  Dipole Moment: [D]
     X:    -0.5127      Y:    -1.5657      Z:    -0.0000     Total:     1.6475

*** Psi4 exiting successfully. Buy a developer a beer!
