                               Psi4 1.3.2 release

  ==> Input File <==

--------------------------------------------------------------------------
#psi4
#
memory 32 gb

molecule  {
0 1
  O       -0.8874150    -1.1053680    -0.0000120
  N       -0.2975850     1.0586860     0.0000180
  C        1.5208660    -0.6926320     0.0000250
  C        0.0196507    -0.0790988     0.0000032
  C        2.5397680     0.4426120    -0.0000230
  C       -2.0377090    -0.3588510    -0.0000130
  C       -1.6838560     0.9546860     0.0000050
  H        1.6599850    -1.3368650     0.8764330
  H        1.6599860    -1.3369460    -0.8763220
  H        2.4145620     1.0741370    -0.8814520
  H        3.5546530     0.0364140    -0.0000210
  H        2.4145820     1.0741970     0.8813660
  H       -2.9679600    -0.9049730    -0.0000050
  H       -2.3195540     1.8284960    -0.0000070
units angstrom
no_reorient  #important for SAPT in psi4, default
symmetry c1  #important for SAPT in psi4, default
}

set PROPERTIES_ORIGIN ["COM"]
properties('MP2/aug-cc-pvtz', properties = ['dipole'])
--------------------------------------------------------------------------

    Molecular point group: c1
  Charge       = 0
  Multiplicity = 1
  Basis Set: AUG-CC-PVTZ
    Blend: AUG-CC-PVTZ
  Basis Set: (AUG-CC-PVTZ AUX)
    Blend: AUG-CC-PVTZ-JKFIT

    Orbital Energies [Eh]
    ---------------------

    Doubly Occupied:

       1A    -20.631538     2A    -15.555826     3A    -11.325443
       4A    -11.295978     5A    -11.265883     6A    -11.245062
       7A    -11.214126     8A     -1.487475     9A     -1.284437
      10A     -1.060608    11A     -0.998782    12A     -0.867681
      13A     -0.836994    14A     -0.784354    15A     -0.720511
      16A     -0.672573    17A     -0.623948    18A     -0.603763
      19A     -0.590405    20A     -0.574806    21A     -0.514676
      22A     -0.502287    23A     -0.495860    24A     -0.478861
      25A     -0.458719    26A     -0.345534

  @DF-RHF Final Energy:  -322.80095209917374

   => Energetics <=

    Nuclear Repulsion Energy =            293.7417256534399144
    One-Electron Energy =               -1020.2130963798239236
    Two-Electron Energy =                 403.6704186272103243
    Total Energy =                       -322.8009520991737418
  Basis Set: (AUG-CC-PVTZ AUX)
    Blend: AUG-CC-PVTZ-RI
    Molecular point group: c1

    Geometry (in Angstrom), charge = 0, multiplicity = 1:

       Center              X                  Y                   Z               Mass
    ------------   -----------------  -----------------  -----------------  -----------------
         O           -0.809208735291    -1.113436247154    -0.000012190141    15.994914619570
         N           -0.219378735291     1.050617752846     0.000017809859    14.003074004430
         C            1.599072264709    -0.700700247154     0.000024809859    12.000000000000
         C            0.097856964709    -0.087167047154     0.000003009859    12.000000000000
         C            2.617974264709     0.434543752846    -0.000023190141    12.000000000000
         C           -1.959502735291    -0.366919247154    -0.000013190141    12.000000000000
         C           -1.605649735291     0.946617752846     0.000004809859    12.000000000000
         H            1.738191264709    -1.344933247154     0.876432809859     1.007825032230
         H            1.738192264709    -1.345014247154    -0.876322190141     1.007825032230
         H            2.492768264709     1.066068752846    -0.881452190141     1.007825032230
         H            3.632859264709     0.028345752846    -0.000021190141     1.007825032230
         H            2.492788264709     1.066128752846     0.881365809859     1.007825032230
         H           -2.889753735291    -0.913041247154    -0.000005190141     1.007825032230
         H           -2.241347735291     1.820427752846    -0.000007190141     1.007825032230

  Basis Set: AUG-CC-PVTZ
    Blend: AUG-CC-PVTZ
  Basis Set: (AUG-CC-PVTZ AUX)
    Blend: AUG-CC-PVTZ-JKFIT
	 Reference Energy          =    -322.8009520991737418 [Eh]
	 Singles Energy            =      -0.0000000000000000 [Eh]
	 Same-Spin Energy          =      -0.3329523344137439 [Eh]
	 Opposite-Spin Energy      =      -1.0584501030612150 [Eh]
	 Correlation Energy        =      -1.3914024374749590 [Eh]
	 Total Energy              =    -324.1923545366486792 [Eh]

	 ================> DF-SCS-MP2 Energies <==================
	-----------------------------------------------------------
	 SCS Same-Spin Scale       =       0.3333333333333333 [-]
	 SCS Opposite-Spin Scale   =       1.2000000000000000 [-]
	 SCS Same-Spin Energy      =      -0.1109841114712480 [Eh]
	 SCS Opposite-Spin Energy  =      -1.2701401236734580 [Eh]
	 SCS Correlation Energy    =      -1.3811242351447059 [Eh]
	 SCS Total Energy          =    -324.1820763343184240 [Eh]
	-----------------------------------------------------------

  Dipole Moment: [D]
     X:    -0.6825      Y:    -0.8756      Z:    -0.0000     Total:     1.1102

*** Psi4 exiting successfully. Buy a developer a beer!
