                               Psi4 1.3.2 release

  ==> Input File <==

--------------------------------------------------------------------------
#psi4
#
memory 32 gb

molecule  {
0 1
  O       -0.8874150    -1.1053680    -0.0000120
  N       -0.2975850     1.0586860     0.0000180
  C        1.5208660    -0.6926320     0.0000250
  C        0.1219560    -0.1795350     0.0000030
  C        2.5397680     0.4426120    -0.0000230
  C       -2.1730726    -0.3146676    -0.0000164
  C       -1.6838560     0.9546860     0.0000050
  H        1.6599850    -1.3368650     0.8764330
  H        1.6599860    -1.3369460    -0.8763220
  H        2.4145620     1.0741370    -0.8814520
  H        3.5546530     0.0364140    -0.0000210
  H        2.4145820     1.0741970     0.8813660
  H       -2.9679600    -0.9049730    -0.0000050
  H       -2.3195540     1.8284960    -0.0000070
units angstrom
no_reorient  #important for SAPT in psi4, default
symmetry c1  #important for SAPT in psi4, default
}

set PROPERTIES_ORIGIN ["COM"]
properties('MP2/aug-cc-pvtz', properties = ['dipole'])
--------------------------------------------------------------------------

    Molecular point group: c1
  Charge       = 0
  Multiplicity = 1
  Basis Set: AUG-CC-PVTZ
    Blend: AUG-CC-PVTZ
  Basis Set: (AUG-CC-PVTZ AUX)
    Blend: AUG-CC-PVTZ-JKFIT

    Orbital Energies [Eh]
    ---------------------

    Doubly Occupied:

       1A    -20.615208     2A    -15.559107     3A    -11.343518
       4A    -11.291245     5A    -11.275134     6A    -11.249659
       7A    -11.221427     8A     -1.431755     9A     -1.218273
      10A     -1.081687    11A     -1.003379    12A     -0.884994
      13A     -0.832107    14A     -0.766462    15A     -0.712661
      16A     -0.652788    17A     -0.647699    18A     -0.597466
      19A     -0.587443    20A     -0.553082    21A     -0.520913
      22A     -0.515256    23A     -0.504460    24A     -0.456958
      25A     -0.445021    26A     -0.342865

  @DF-RHF Final Energy:  -322.80483775930793

   => Energetics <=

    Nuclear Repulsion Energy =            289.6986715922728877
    One-Electron Energy =               -1012.3858798224292741
    Two-Electron Energy =                 399.8823704708484001
    Total Energy =                       -322.8048377593079294
  Basis Set: (AUG-CC-PVTZ AUX)
    Blend: AUG-CC-PVTZ-RI
    Molecular point group: c1

    Geometry (in Angstrom), charge = 0, multiplicity = 1:

       Center              X                  Y                   Z               Mass
    ------------   -----------------  -----------------  -----------------  -----------------
         O           -0.805121272098    -1.106480921276    -0.000011745023    15.994914619570
         N           -0.215291272098     1.057573078724     0.000018254977    14.003074004430
         C            1.603159727902    -0.693744921276     0.000025254977    12.000000000000
         C            0.204249727902    -0.180647921276     0.000003254977    12.000000000000
         C            2.622061727902     0.441499078724    -0.000022745023    12.000000000000
         C           -2.090778872098    -0.315780521276    -0.000016145023    12.000000000000
         C           -1.601562272098     0.953573078724     0.000005254977    12.000000000000
         H            1.742278727902    -1.337977921276     0.876433254977     1.007825032230
         H            1.742279727902    -1.338058921276    -0.876321745023     1.007825032230
         H            2.496855727902     1.073024078724    -0.881451745023     1.007825032230
         H            3.636946727902     0.035301078724    -0.000020745023     1.007825032230
         H            2.496875727902     1.073084078724     0.881366254977     1.007825032230
         H           -2.885666272098    -0.906085921276    -0.000004745023     1.007825032230
         H           -2.237260272098     1.827383078724    -0.000006745023     1.007825032230

  Basis Set: AUG-CC-PVTZ
    Blend: AUG-CC-PVTZ
  Basis Set: (AUG-CC-PVTZ AUX)
    Blend: AUG-CC-PVTZ-JKFIT
	 Reference Energy          =    -322.8048377593079294 [Eh]
	 Singles Energy            =      -0.0000000000000000 [Eh]
	 Same-Spin Energy          =      -0.3354418597581061 [Eh]
	 Opposite-Spin Energy      =      -1.0640185833699394 [Eh]
	 Correlation Energy        =      -1.3994604431280455 [Eh]
	 Total Energy              =    -324.2042982024359503 [Eh]

	 ================> DF-SCS-MP2 Energies <==================
	-----------------------------------------------------------
	 SCS Same-Spin Scale       =       0.3333333333333333 [-]
	 SCS Opposite-Spin Scale   =       1.2000000000000000 [-]
	 SCS Same-Spin Energy      =      -0.1118139532527020 [Eh]
	 SCS Opposite-Spin Energy  =      -1.2768223000439272 [Eh]
	 SCS Correlation Energy    =      -1.3886362532966292 [Eh]
	 SCS Total Energy          =    -324.1934740126045540 [Eh]
	-----------------------------------------------------------

  Dipole Moment: [D]
     X:    -0.4560      Y:    -1.0581      Z:     0.0000     Total:     1.1522

*** Psi4 exiting successfully. Buy a developer a beer!
