                               Psi4 1.3.2 release

  ==> Input File <==

--------------------------------------------------------------------------
#psi4
#
memory 32 gb

molecule  {
0 1
  O       -0.9141688    -1.1450579    -0.0000116
  N       -0.2975850     1.0586860     0.0000180
  C        1.5208660    -0.6926320     0.0000250
  C        0.1219560    -0.1795350     0.0000030
  C        2.5397680     0.4426120    -0.0000230
  C       -2.0377090    -0.3588510    -0.0000130
  C       -1.6838560     0.9546860     0.0000050
  H        1.6599850    -1.3368650     0.8764330
  H        1.6599860    -1.3369460    -0.8763220
  H        2.4145620     1.0741370    -0.8814520
  H        3.5546530     0.0364140    -0.0000210
  H        2.4145820     1.0741970     0.8813660
  H       -2.9679600    -0.9049730    -0.0000050
  H       -2.3195540     1.8284960    -0.0000070
units angstrom
no_reorient  #important for SAPT in psi4, default
symmetry c1  #important for SAPT in psi4, default
}

set PROPERTIES_ORIGIN ["COM"]
properties('MP2/aug-cc-pvtz', properties = ['dipole'])
--------------------------------------------------------------------------

    Molecular point group: c1
  Charge       = 0
  Multiplicity = 1
  Basis Set: AUG-CC-PVTZ
    Blend: AUG-CC-PVTZ
  Basis Set: (AUG-CC-PVTZ AUX)
    Blend: AUG-CC-PVTZ-JKFIT

    Orbital Energies [Eh]
    ---------------------

    Doubly Occupied:

       1A    -20.633245     2A    -15.566655     3A    -11.342057
       4A    -11.291917     5A    -11.260464     6A    -11.249754
       7A    -11.221750     8A     -1.460878     9A     -1.230922
      10A     -1.081033    11A     -0.993626    12A     -0.884913
      13A     -0.824102    14A     -0.778038    15A     -0.713702
      16A     -0.660690    17A     -0.625169    18A     -0.607882
      19A     -0.586786    20A     -0.573539    21A     -0.525617
      22A     -0.515426    23A     -0.505845    24A     -0.460876
      25A     -0.453480    26A     -0.330375

  @DF-RHF Final Energy:  -322.82183188726071

   => Energetics <=

    Nuclear Repulsion Energy =            291.0750412464699934
    One-Electron Energy =               -1015.0362642548453778
    Two-Electron Energy =                 401.1393911211146133
    Total Energy =                       -322.8218318872607142
  Basis Set: (AUG-CC-PVTZ AUX)
    Blend: AUG-CC-PVTZ-RI
    Molecular point group: c1

    Geometry (in Angstrom), charge = 0, multiplicity = 1:

       Center              X                  Y                   Z               Mass
    ------------   -----------------  -----------------  -----------------  -----------------
         O           -0.844202783394    -1.134166656577    -0.000011831335    15.994914619570
         N           -0.227618983394     1.069577243423     0.000017768665    14.003074004430
         C            1.590832016606    -0.681740756577     0.000024768665    12.000000000000
         C            0.191922016606    -0.168643756577     0.000002768665    12.000000000000
         C            2.609734016606     0.453503243423    -0.000023231335    12.000000000000
         C           -1.967742983394    -0.347959756577    -0.000013231335    12.000000000000
         C           -1.613889983394     0.965577243423     0.000004768665    12.000000000000
         H            1.729951016606    -1.325973756577     0.876432768665     1.007825032230
         H            1.729952016606    -1.326054756577    -0.876322231335     1.007825032230
         H            2.484528016606     1.085028243423    -0.881452231335     1.007825032230
         H            3.624619016606     0.047305243423    -0.000021231335     1.007825032230
         H            2.484548016606     1.085088243423     0.881365768665     1.007825032230
         H           -2.897993983394    -0.894081756577    -0.000005231335     1.007825032230
         H           -2.249587983394     1.839387243423    -0.000007231335     1.007825032230

  Basis Set: AUG-CC-PVTZ
    Blend: AUG-CC-PVTZ
  Basis Set: (AUG-CC-PVTZ AUX)
    Blend: AUG-CC-PVTZ-JKFIT
	 Reference Energy          =    -322.8218318872607142 [Eh]
	 Singles Energy            =      -0.0000000000000000 [Eh]
	 Same-Spin Energy          =      -0.3363492485014725 [Eh]
	 Opposite-Spin Energy      =      -1.0640287720319419 [Eh]
	 Correlation Energy        =      -1.4003780205334144 [Eh]
	 Total Energy              =    -324.2222099077941380 [Eh]

	 ================> DF-SCS-MP2 Energies <==================
	-----------------------------------------------------------
	 SCS Same-Spin Scale       =       0.3333333333333333 [-]
	 SCS Opposite-Spin Scale   =       1.2000000000000000 [-]
	 SCS Same-Spin Energy      =      -0.1121164161671575 [Eh]
	 SCS Opposite-Spin Energy  =      -1.2768345264383303 [Eh]
	 SCS Correlation Energy    =      -1.3889509426054878 [Eh]
	 SCS Total Energy          =    -324.2107828298662184 [Eh]
	-----------------------------------------------------------

  Dipole Moment: [D]
     X:    -0.2648      Y:    -1.0472      Z:    -0.0000     Total:     1.0801

*** Psi4 exiting successfully. Buy a developer a beer!
