                               Psi4 1.3.2 release

  ==> Input File <==

--------------------------------------------------------------------------
#psi4
#
memory 32 gb

molecule  {
0 1
  O       -0.8874150    -1.1053680    -0.0000120
  N       -0.2975850     1.0586860     0.0000180
  C        1.5208660    -0.6926320     0.0000250
  C        0.1061659    -0.2331219     0.0877287
  C        2.5397680     0.4426120    -0.0000230
  C       -2.0377090    -0.3588510    -0.0000130
  C       -1.6838560     0.9546860     0.0000050
  H        1.6599850    -1.3368650     0.8764330
  H        1.6599860    -1.3369460    -0.8763220
  H        2.4145620     1.0741370    -0.8814520
  H        3.5546530     0.0364140    -0.0000210
  H        2.4145820     1.0741970     0.8813660
  H       -2.9679600    -0.9049730    -0.0000050
  H       -2.3195540     1.8284960    -0.0000070
units angstrom
no_reorient  #important for SAPT in psi4, default
symmetry c1  #important for SAPT in psi4, default
}

set PROPERTIES_ORIGIN ["COM"]
properties('MP2/aug-cc-pvtz', properties = ['dipole'])
--------------------------------------------------------------------------

    Molecular point group: c1
  Charge       = 0
  Multiplicity = 1
  Basis Set: AUG-CC-PVTZ
    Blend: AUG-CC-PVTZ
  Basis Set: (AUG-CC-PVTZ AUX)
    Blend: AUG-CC-PVTZ-JKFIT

    Orbital Energies [Eh]
    ---------------------

    Doubly Occupied:

       1A    -20.643823     2A    -15.560022     3A    -11.341636
       4A    -11.288601     5A    -11.261649     6A    -11.249072
       7A    -11.221122     8A     -1.495283     9A     -1.211727
      10A     -1.084110    11A     -0.998045    12A     -0.884753
      13A     -0.830347    14A     -0.784825    15A     -0.718388
      16A     -0.674602    17A     -0.633083    18A     -0.611260
      19A     -0.582403    20A     -0.571305    21A     -0.531916
      22A     -0.511550    23A     -0.503265    24A     -0.455129
      25A     -0.441287    26A     -0.328459

  @DF-RHF Final Energy:  -322.81929314814295

   => Energetics <=

    Nuclear Repulsion Energy =            292.2496551258025193
    One-Electron Energy =               -1017.3025710979502492
    Two-Electron Energy =                 402.2336228240047831
    Total Energy =                       -322.8192931481429468
  Basis Set: (AUG-CC-PVTZ AUX)
    Blend: AUG-CC-PVTZ-RI
    Molecular point group: c1

    Geometry (in Angstrom), charge = 0, multiplicity = 1:

       Center              X                  Y                   Z               Mass
    ------------   -----------------  -----------------  -----------------  -----------------
         O           -0.819905827870    -1.094392202176    -0.010858929155    15.994914619570
         N           -0.230075827870     1.069661797824    -0.010828929155    14.003074004430
         C            1.588375172130    -0.681656202176    -0.010821929155    12.000000000000
         C            0.173675072130    -0.222146102176     0.076881770845    12.000000000000
         C            2.607277172130     0.453587797824    -0.010869929155    12.000000000000
         C           -1.970199827870    -0.347875202176    -0.010859929155    12.000000000000
         C           -1.616346827870     0.965661797824    -0.010841929155    12.000000000000
         H            1.727494172130    -1.325889202176     0.865586070845     1.007825032230
         H            1.727495172130    -1.325970202176    -0.887168929155     1.007825032230
         H            2.482071172130     1.085112797824    -0.892298929155     1.007825032230
         H            3.622162172130     0.047389797824    -0.010867929155     1.007825032230
         H            2.482091172130     1.085172797824     0.870519070845     1.007825032230
         H           -2.900450827870    -0.893997202176    -0.010851929155     1.007825032230
         H           -2.252044827870     1.839471797824    -0.010853929155     1.007825032230

  Basis Set: AUG-CC-PVTZ
    Blend: AUG-CC-PVTZ
  Basis Set: (AUG-CC-PVTZ AUX)
    Blend: AUG-CC-PVTZ-JKFIT
	 Reference Energy          =    -322.8192931481429468 [Eh]
	 Singles Energy            =      -0.0000000000000000 [Eh]
	 Same-Spin Energy          =      -0.3366075689932105 [Eh]
	 Opposite-Spin Energy      =      -1.0628329484889032 [Eh]
	 Correlation Energy        =      -1.3994405174821138 [Eh]
	 Total Energy              =    -324.2187336656250523 [Eh]

	 ================> DF-SCS-MP2 Energies <==================
	-----------------------------------------------------------
	 SCS Same-Spin Scale       =       0.3333333333333333 [-]
	 SCS Opposite-Spin Scale   =       1.2000000000000000 [-]
	 SCS Same-Spin Energy      =      -0.1122025229977368 [Eh]
	 SCS Opposite-Spin Energy  =      -1.2753995381866838 [Eh]
	 SCS Correlation Energy    =      -1.3876020611844206 [Eh]
	 SCS Total Energy          =    -324.2068952093273424 [Eh]
	-----------------------------------------------------------

  Dipole Moment: [D]
     X:    -0.4730      Y:    -1.3082      Z:     0.0215     Total:     1.3913

*** Psi4 exiting successfully. Buy a developer a beer!
