                               Psi4 1.4a3.dev225

  ==> Input File <==

--------------------------------------------------------------------------
#psi4
#
memory 32 gb

molecule  {
0 1
  O       -0.8874150    -1.1053680    -0.0000120
  N       -0.2975850     1.0586860     0.0000180
  C        1.5208660    -0.6926320     0.0000250
  C        0.1219560    -0.1795350     0.0000030
  C        2.5397680     0.4426120    -0.0000230
  C       -2.0377090    -0.3588510    -0.0000130
  C       -1.6838560     0.9546860     0.0000050
  H        1.6599850    -1.3368650     0.8764330
  H        1.6599860    -1.3369460    -0.8763220
  H        2.4145620     1.0741370    -0.8814520
  H        3.5546530     0.0364140    -0.0000210
  H        2.4145820     1.0741970     0.8813660
  H       -2.9507125    -0.8948475    -0.0000051
  H       -2.3195540     1.8284960    -0.0000070
units angstrom
no_reorient  #important for SAPT in psi4, default
symmetry c1  #important for SAPT in psi4, default
}

set PROPERTIES_ORIGIN ["COM"]
properties('MP2/aug-cc-pvtz', properties = ['dipole'])
--------------------------------------------------------------------------

    Molecular point group: c1
  Charge       = 0
  Multiplicity = 1
  Basis Set: AUG-CC-PVTZ
    Blend: AUG-CC-PVTZ
  Basis Set: (AUG-CC-PVTZ AUX)
    Blend: AUG-CC-PVTZ-JKFIT

    Orbital Energies [Eh]
    ---------------------

    Doubly Occupied:

       1A    -20.634134     2A    -15.560633     3A    -11.337759
       4A    -11.288653     5A    -11.260623     6A    -11.248742
       7A    -11.220823     8A     -1.476483     9A     -1.226269
      10A     -1.082828    11A     -0.997834    12A     -0.884217
      13A     -0.829373    14A     -0.780277    15A     -0.718825
      16A     -0.667136    17A     -0.633269    18A     -0.609166
      19A     -0.585120    20A     -0.572552    21A     -0.526901
      22A     -0.514656    23A     -0.504942    24A     -0.457011
      25A     -0.449363    26A     -0.332046

  @DF-RHF Final Energy:  -322.82717422190387

   => Energetics <=

    Nuclear Repulsion Energy =            292.4469415966930228
    One-Electron Energy =               -1017.7489591981061494
    Two-Electron Energy =                 402.4748433795092524
    Total Energy =                       -322.8271742219038742
  Basis Set: (AUG-CC-PVTZ AUX)
    Blend: AUG-CC-PVTZ-RI
    Molecular point group: c1

    Geometry (in Angstrom), charge = 0, multiplicity = 1:

       Center              X                  Y                   Z               Mass
    ------------   -----------------  -----------------  -----------------  -----------------
         O           -0.822037283524    -1.101123051525    -0.000012164374    15.994914619570
         N           -0.232207283524     1.062930948475     0.000017835626    14.003074004430
         C            1.586243716476    -0.688387051525     0.000024835626    12.000000000000
         C            0.187333716476    -0.175290051525     0.000002835626    12.000000000000
         C            2.605145716476     0.446856948475    -0.000023164374    12.000000000000
         C           -1.972331283524    -0.354606051525    -0.000013164374    12.000000000000
         C           -1.618478283524     0.958930948475     0.000004835626    12.000000000000
         H            1.725362716476    -1.332620051525     0.876432835626     1.007825032230
         H            1.725363716476    -1.332701051525    -0.876322164374     1.007825032230
         H            2.479939716476     1.078381948475    -0.881452164374     1.007825032230
         H            3.620030716476     0.040658948475    -0.000021164374     1.007825032230
         H            2.479959716476     1.078441948475     0.881365835626     1.007825032230
         H           -2.885334783524    -0.890602551525    -0.000005264374     1.007825032230
         H           -2.254176283524     1.832740948475    -0.000007164374     1.007825032230

  Basis Set: AUG-CC-PVTZ
    Blend: AUG-CC-PVTZ
  Basis Set: (AUG-CC-PVTZ AUX)
    Blend: AUG-CC-PVTZ-JKFIT
	 Reference Energy          =    -322.8271742219038742 [Eh]
	 Singles Energy            =      -0.0000000000000000 [Eh]
	 Same-Spin Energy          =      -0.3357274914913522 [Eh]
	 Opposite-Spin Energy      =      -1.0617672866732570 [Eh]
	 Correlation Energy        =      -1.3974947781646092 [Eh]
	 Total Energy              =    -324.2246690000685021 [Eh]

	 ================> DF-SCS-MP2 Energies <==================
	-----------------------------------------------------------
	 SCS Same-Spin Scale       =       0.3333333333333333 [-]
	 SCS Opposite-Spin Scale   =       1.2000000000000000 [-]
	 SCS Same-Spin Energy      =      -0.1119091638304507 [Eh]
	 SCS Opposite-Spin Energy  =      -1.2741207440079083 [Eh]
	 SCS Correlation Energy    =      -1.3860299078383591 [Eh]
	 SCS Total Energy          =    -324.2132041297422234 [Eh]
	-----------------------------------------------------------

  Dipole Moment: [D]
     X:    -0.3657      Y:    -1.1793      Z:    -0.0000     Total:     1.2347

*** Psi4 exiting successfully. Buy a developer a beer!
