                               Psi4 1.3.2 release

  ==> Input File <==

--------------------------------------------------------------------------
#psi4
#
memory 32 gb

molecule  {
0 1
  O       -0.8874150    -1.1053680    -0.0000120
  N       -0.2975850     1.0586860     0.0000180
  C        1.5208660    -0.6926320     0.0000250
  C        0.1219560    -0.1795350     0.0000030
  C        2.5397680     0.4426120    -0.0000230
  C       -1.8984686    -0.3886430    -0.0000094
  C       -1.6838560     0.9546860     0.0000050
  H        1.6599850    -1.3368650     0.8764330
  H        1.6599860    -1.3369460    -0.8763220
  H        2.4145620     1.0741370    -0.8814520
  H        3.5546530     0.0364140    -0.0000210
  H        2.4145820     1.0741970     0.8813660
  H       -2.9679600    -0.9049730    -0.0000050
  H       -2.3195540     1.8284960    -0.0000070
units angstrom
no_reorient  #important for SAPT in psi4, default
symmetry c1  #important for SAPT in psi4, default
}

set PROPERTIES_ORIGIN ["COM"]
properties('MP2/aug-cc-pvtz', properties = ['dipole'])
--------------------------------------------------------------------------

    Molecular point group: c1
  Charge       = 0
  Multiplicity = 1
  Basis Set: AUG-CC-PVTZ
    Blend: AUG-CC-PVTZ
  Basis Set: (AUG-CC-PVTZ AUX)
    Blend: AUG-CC-PVTZ-JKFIT

    Orbital Energies [Eh]
    ---------------------

    Doubly Occupied:

       1A    -20.652886     2A    -15.564298     3A    -11.331112
       4A    -11.297763     5A    -11.248474     6A    -11.247655
       7A    -11.220150     8A     -1.541158     9A     -1.237935
      10A     -1.084211    11A     -0.993278    12A     -0.887362
      13A     -0.839652    14A     -0.795446    15A     -0.722335
      16A     -0.696320    17A     -0.635948    18A     -0.617131
      19A     -0.585578    20A     -0.559779    21A     -0.521432
      22A     -0.513452    23A     -0.505529    24A     -0.455277
      25A     -0.454588    26A     -0.321596

  @DF-RHF Final Energy:  -322.80201439481635

   => Energetics <=

    Nuclear Repulsion Energy =            295.4451401881624975
    One-Electron Energy =               -1023.4336152144279595
    Two-Electron Energy =                 405.1864606314490516
    Total Energy =                       -322.8020143948163536
  Basis Set: (AUG-CC-PVTZ AUX)
    Blend: AUG-CC-PVTZ-RI
    Molecular point group: c1

    Geometry (in Angstrom), charge = 0, multiplicity = 1:

       Center              X                  Y                   Z               Mass
    ------------   -----------------  -----------------  -----------------  -----------------
         O           -0.839074431898    -1.097334300770    -0.000012610531    15.994914619570
         N           -0.249244431898     1.066719699230     0.000017389469    14.003074004430
         C            1.569206568102    -0.684598300770     0.000024389469    12.000000000000
         C            0.170296568102    -0.171501300770     0.000002389469    12.000000000000
         C            2.588108568102     0.450645699230    -0.000023610531    12.000000000000
         C           -1.850128031898    -0.380609300770    -0.000010010531    12.000000000000
         C           -1.635515431898     0.962719699230     0.000004389469    12.000000000000
         H            1.708325568102    -1.328831300770     0.876432389469     1.007825032230
         H            1.708326568102    -1.328912300770    -0.876322610531     1.007825032230
         H            2.462902568102     1.082170699230    -0.881452610531     1.007825032230
         H            3.602993568102     0.044447699230    -0.000021610531     1.007825032230
         H            2.462922568102     1.082230699230     0.881365389469     1.007825032230
         H           -2.919619431898    -0.896939300770    -0.000005610531     1.007825032230
         H           -2.271213431898     1.836529699230    -0.000007610531     1.007825032230

  Basis Set: AUG-CC-PVTZ
    Blend: AUG-CC-PVTZ
  Basis Set: (AUG-CC-PVTZ AUX)
    Blend: AUG-CC-PVTZ-JKFIT
	 Reference Energy          =    -322.8020143948163536 [Eh]
	 Singles Energy            =      -0.0000000000000000 [Eh]
	 Same-Spin Energy          =      -0.3367410647740067 [Eh]
	 Opposite-Spin Energy      =      -1.0613165097565829 [Eh]
	 Correlation Energy        =      -1.3980575745305894 [Eh]
	 Total Energy              =    -324.2000719693469364 [Eh]

	 ================> DF-SCS-MP2 Energies <==================
	-----------------------------------------------------------
	 SCS Same-Spin Scale       =       0.3333333333333333 [-]
	 SCS Opposite-Spin Scale   =       1.2000000000000000 [-]
	 SCS Same-Spin Energy      =      -0.1122470215913356 [Eh]
	 SCS Opposite-Spin Energy  =      -1.2735798117078994 [Eh]
	 SCS Correlation Energy    =      -1.3858268332992350 [Eh]
	 SCS Total Energy          =    -324.1878412281155875 [Eh]
	-----------------------------------------------------------

  Dipole Moment: [D]
     X:    -0.1969      Y:    -1.2946      Z:    -0.0000     Total:     1.3095

*** Psi4 exiting successfully. Buy a developer a beer!
