                               Psi4 1.3.2 release

  ==> Input File <==

--------------------------------------------------------------------------
#psi4
#
memory 32 gb

molecule  {
0 1
  O       -0.8874150    -1.1053680    -0.0000120
  N       -0.2975850     1.0586860     0.0000180
  C        1.5208660    -0.6926320     0.0000250
  C        0.1056443    -0.1620601     0.0000030
  C        2.5397680     0.4426120    -0.0000230
  C       -2.0377090    -0.3588510    -0.0000130
  C       -1.6838560     0.9546860     0.0000050
  H        1.6599850    -1.3368650     0.8764330
  H        1.6599860    -1.3369460    -0.8763220
  H        2.4145620     1.0741370    -0.8814520
  H        3.5546530     0.0364140    -0.0000210
  H        2.4145820     1.0741970     0.8813660
  H       -2.9679600    -0.9049730    -0.0000050
  H       -2.3195540     1.8284960    -0.0000070
units angstrom
no_reorient  #important for SAPT in psi4, default
symmetry c1  #important for SAPT in psi4, default
}

set PROPERTIES_ORIGIN ["COM"]
properties('MP2/aug-cc-pvtz', properties = ['dipole'])
--------------------------------------------------------------------------

    Molecular point group: c1
  Charge       = 0
  Multiplicity = 1
  Basis Set: AUG-CC-PVTZ
    Blend: AUG-CC-PVTZ
  Basis Set: (AUG-CC-PVTZ AUX)
    Blend: AUG-CC-PVTZ-JKFIT

    Orbital Energies [Eh]
    ---------------------

    Doubly Occupied:

       1A    -20.633706     2A    -15.560084     3A    -11.335613
       4A    -11.291578     5A    -11.261309     6A    -11.248529
       7A    -11.219719     8A     -1.478076     9A     -1.235137
      10A     -1.078439    11A     -0.997526    12A     -0.880992
      13A     -0.829632    14A     -0.780974    15A     -0.717611
      16A     -0.667361    17A     -0.628729    18A     -0.608524
      19A     -0.585410    20A     -0.573568    21A     -0.523956
      22A     -0.512148    23A     -0.503447    24A     -0.459993
      25A     -0.453768    26A     -0.334555

  @DF-RHF Final Energy:  -322.82787487613132

   => Energetics <=

    Nuclear Repulsion Energy =            292.5462275262211733
    One-Electron Energy =               -1017.9474346015567789
    Two-Electron Energy =                 402.5733321992042875
    Total Energy =                       -322.8278748761313182
  Basis Set: (AUG-CC-PVTZ AUX)
    Blend: AUG-CC-PVTZ-RI
    Molecular point group: c1

    Geometry (in Angstrom), charge = 0, multiplicity = 1:

       Center              X                  Y                   Z               Mass
    ------------   -----------------  -----------------  -----------------  -----------------
         O           -0.819841335117    -1.103178573282    -0.000012165413    15.994914619570
         N           -0.230011335117     1.060875426718     0.000017834587    14.003074004430
         C            1.588439664883    -0.690442573282     0.000024834587    12.000000000000
         C            0.173217964883    -0.159870673282     0.000002834587    12.000000000000
         C            2.607341664883     0.444801426718    -0.000023165413    12.000000000000
         C           -1.970135335117    -0.356661573282    -0.000013165413    12.000000000000
         C           -1.616282335117     0.956875426718     0.000004834587    12.000000000000
         H            1.727558664883    -1.334675573282     0.876432834587     1.007825032230
         H            1.727559664883    -1.334756573282    -0.876322165413     1.007825032230
         H            2.482135664883     1.076326426718    -0.881452165413     1.007825032230
         H            3.622226664883     0.038603426718    -0.000021165413     1.007825032230
         H            2.482155664883     1.076386426718     0.881365834587     1.007825032230
         H           -2.900386335117    -0.902783573282    -0.000005165413     1.007825032230
         H           -2.251980335117     1.830685426718    -0.000007165413     1.007825032230

  Basis Set: AUG-CC-PVTZ
    Blend: AUG-CC-PVTZ
  Basis Set: (AUG-CC-PVTZ AUX)
    Blend: AUG-CC-PVTZ-JKFIT
	 Reference Energy          =    -322.8278748761313182 [Eh]
	 Singles Energy            =      -0.0000000000000000 [Eh]
	 Same-Spin Energy          =      -0.3351286399969868 [Eh]
	 Opposite-Spin Energy      =      -1.0610376196247928 [Eh]
	 Correlation Energy        =      -1.3961662596217796 [Eh]
	 Total Energy              =    -324.2240411357531116 [Eh]

	 ================> DF-SCS-MP2 Energies <==================
	-----------------------------------------------------------
	 SCS Same-Spin Scale       =       0.3333333333333333 [-]
	 SCS Opposite-Spin Scale   =       1.2000000000000000 [-]
	 SCS Same-Spin Energy      =      -0.1117095466656623 [Eh]
	 SCS Opposite-Spin Energy  =      -1.2732451435497514 [Eh]
	 SCS Correlation Energy    =      -1.3849546902154137 [Eh]
	 SCS Total Energy          =    -324.2128295663467270 [Eh]
	-----------------------------------------------------------

  Dipole Moment: [D]
     X:    -0.4100      Y:    -1.1368      Z:    -0.0000     Total:     1.2084

*** Psi4 exiting successfully. Buy a developer a beer!
