                               Psi4 1.3.2 release

  ==> Input File <==

--------------------------------------------------------------------------
#psi4
#
memory 32 gb

molecule  {
0 1
  O       -0.8874150    -1.1053680    -0.0000120
  N       -0.2947999     1.0102425     0.0000183
  C        1.5208660    -0.6926320     0.0000250
  C        0.1219560    -0.1795350     0.0000030
  C        2.5397680     0.4426120    -0.0000230
  C       -2.0377090    -0.3588510    -0.0000130
  C       -1.6838560     0.9546860     0.0000050
  H        1.6599850    -1.3368650     0.8764330
  H        1.6599860    -1.3369460    -0.8763220
  H        2.4145620     1.0741370    -0.8814520
  H        3.5546530     0.0364140    -0.0000210
  H        2.4145820     1.0741970     0.8813660
  H       -2.9679600    -0.9049730    -0.0000050
  H       -2.3195540     1.8284960    -0.0000070
units angstrom
no_reorient  #important for SAPT in psi4, default
symmetry c1  #important for SAPT in psi4, default
}

set PROPERTIES_ORIGIN ["COM"]
properties('MP2/aug-cc-pvtz', properties = ['dipole'])
--------------------------------------------------------------------------

    Molecular point group: c1
  Charge       = 0
  Multiplicity = 1
  Basis Set: AUG-CC-PVTZ
    Blend: AUG-CC-PVTZ
  Basis Set: (AUG-CC-PVTZ AUX)
    Blend: AUG-CC-PVTZ-JKFIT

    Orbital Energies [Eh]
    ---------------------

    Doubly Occupied:

       1A    -20.628372     2A    -15.553067     3A    -11.328198
       4A    -11.292236     5A    -11.260703     6A    -11.246786
       7A    -11.220010     8A     -1.476666     9A     -1.236669
      10A     -1.082104    11A     -0.999685    12A     -0.883264
      13A     -0.831623    14A     -0.776223    15A     -0.718688
      16A     -0.668159    17A     -0.630594    18A     -0.608026
      19A     -0.593118    20A     -0.569842    21A     -0.525594
      22A     -0.514409    23A     -0.503948    24A     -0.453123
      25A     -0.450473    26A     -0.336239

  @DF-RHF Final Energy:  -322.82899838414585

   => Energetics <=

    Nuclear Repulsion Energy =            293.5600386367893293
    One-Electron Energy =               -1020.0024366623237029
    Two-Electron Energy =                 403.6133996413885825
    Total Energy =                       -322.8289983841458479
  Basis Set: (AUG-CC-PVTZ AUX)
    Blend: AUG-CC-PVTZ-RI
    Molecular point group: c1

    Geometry (in Angstrom), charge = 0, multiplicity = 1:

       Center              X                  Y                   Z               Mass
    ------------   -----------------  -----------------  -----------------  -----------------
         O           -0.822260023180    -1.094028326753    -0.000012208698    15.994914619570
         N           -0.229644923180     1.021582173247     0.000018091302    14.003074004430
         C            1.586020976820    -0.681292326753     0.000024791302    12.000000000000
         C            0.187110976820    -0.168195326753     0.000002791302    12.000000000000
         C            2.604922976820     0.453951673247    -0.000023208698    12.000000000000
         C           -1.972554023180    -0.347511326753    -0.000013208698    12.000000000000
         C           -1.618701023180     0.966025673247     0.000004791302    12.000000000000
         H            1.725139976820    -1.325525326753     0.876432791302     1.007825032230
         H            1.725140976820    -1.325606326753    -0.876322208698     1.007825032230
         H            2.479716976820     1.085476673247    -0.881452208698     1.007825032230
         H            3.619807976820     0.047753673247    -0.000021208698     1.007825032230
         H            2.479736976820     1.085536673247     0.881365791302     1.007825032230
         H           -2.902805023180    -0.893633326753    -0.000005208698     1.007825032230
         H           -2.254399023180     1.839835673247    -0.000007208698     1.007825032230

  Basis Set: AUG-CC-PVTZ
    Blend: AUG-CC-PVTZ
  Basis Set: (AUG-CC-PVTZ AUX)
    Blend: AUG-CC-PVTZ-JKFIT
	 Reference Energy          =    -322.8289983841458479 [Eh]
	 Singles Energy            =      -0.0000000000000000 [Eh]
	 Same-Spin Energy          =      -0.3347116644959379 [Eh]
	 Opposite-Spin Energy      =      -1.0596583799734784 [Eh]
	 Correlation Energy        =      -1.3943700444694163 [Eh]
	 Total Energy              =    -324.2233684286152879 [Eh]

	 ================> DF-SCS-MP2 Energies <==================
	-----------------------------------------------------------
	 SCS Same-Spin Scale       =       0.3333333333333333 [-]
	 SCS Opposite-Spin Scale   =       1.2000000000000000 [-]
	 SCS Same-Spin Energy      =      -0.1115705548319793 [Eh]
	 SCS Opposite-Spin Energy  =      -1.2715900559681741 [Eh]
	 SCS Correlation Energy    =      -1.3831606108001533 [Eh]
	 SCS Total Energy          =    -324.2121589949459803 [Eh]
	-----------------------------------------------------------

  Dipole Moment: [D]
     X:    -0.3794      Y:    -1.0611      Z:    -0.0000     Total:     1.1269

*** Psi4 exiting successfully. Buy a developer a beer!
