                               Psi4 1.3.2 release

  ==> Input File <==

--------------------------------------------------------------------------
#psi4
#
memory 32 gb

molecule  {
0 1
  O       -0.8874150    -1.1053680    -0.0000120
  N       -0.2975850     1.0586860     0.0000180
  C        1.5208660    -0.6926320     0.0000250
  C        0.0784871    -0.1934225     0.0000024
  C        2.5397680     0.4426120    -0.0000230
  C       -2.0377090    -0.3588510    -0.0000130
  C       -1.6838560     0.9546860     0.0000050
  H        1.6599850    -1.3368650     0.8764330
  H        1.6599860    -1.3369460    -0.8763220
  H        2.4145620     1.0741370    -0.8814520
  H        3.5546530     0.0364140    -0.0000210
  H        2.4145820     1.0741970     0.8813660
  H       -2.9679600    -0.9049730    -0.0000050
  H       -2.3195540     1.8284960    -0.0000070
units angstrom
no_reorient  #important for SAPT in psi4, default
symmetry c1  #important for SAPT in psi4, default
}

set PROPERTIES_ORIGIN ["COM"]
properties('MP2/aug-cc-pvtz', properties = ['dipole'])
--------------------------------------------------------------------------

    Molecular point group: c1
  Charge       = 0
  Multiplicity = 1
  Basis Set: AUG-CC-PVTZ
    Blend: AUG-CC-PVTZ
  Basis Set: (AUG-CC-PVTZ AUX)
    Blend: AUG-CC-PVTZ-JKFIT

    Orbital Energies [Eh]
    ---------------------

    Doubly Occupied:

       1A    -20.641649     2A    -15.558610     3A    -11.337134
       4A    -11.289988     5A    -11.262626     6A    -11.248412
       7A    -11.219157     8A     -1.496295     9A     -1.229635
      10A     -1.076822    11A     -0.998393    12A     -0.879552
      13A     -0.833466    14A     -0.786090    15A     -0.719325
      16A     -0.674703    17A     -0.629164    18A     -0.609639
      19A     -0.581407    20A     -0.577291    21A     -0.525405
      22A     -0.507125    23A     -0.502359    24A     -0.460623
      25A     -0.450927    26A     -0.333849

  @DF-RHF Final Energy:  -322.82694333193308

   => Energetics <=

    Nuclear Repulsion Energy =            292.7291471668293639
    One-Electron Energy =               -1018.2528850701264673
    Two-Electron Energy =                 402.6967945713640802
    Total Energy =                       -322.8269433319330801
  Basis Set: (AUG-CC-PVTZ AUX)
    Blend: AUG-CC-PVTZ-RI
    Molecular point group: c1

    Geometry (in Angstrom), charge = 0, multiplicity = 1:

       Center              X                  Y                   Z               Mass
    ------------   -----------------  -----------------  -----------------  -----------------
         O           -0.816483508023    -1.099300798089    -0.000012091226    15.994914619570
         N           -0.226653508023     1.064753201911     0.000017908774    14.003074004430
         C            1.591797491977    -0.686564798089     0.000024908774    12.000000000000
         C            0.149418591977    -0.187355298089     0.000002308774    12.000000000000
         C            2.610699491977     0.448679201911    -0.000023091226    12.000000000000
         C           -1.966777508023    -0.352783798089    -0.000013091226    12.000000000000
         C           -1.612924508023     0.960753201911     0.000004908774    12.000000000000
         H            1.730916491977    -1.330797798089     0.876432908774     1.007825032230
         H            1.730917491977    -1.330878798089    -0.876322091226     1.007825032230
         H            2.485493491977     1.080204201911    -0.881452091226     1.007825032230
         H            3.625584491977     0.042481201911    -0.000021091226     1.007825032230
         H            2.485513491977     1.080264201911     0.881365908774     1.007825032230
         H           -2.897028508023    -0.898905798089    -0.000005091226     1.007825032230
         H           -2.248622508023     1.834563201911    -0.000007091226     1.007825032230

  Basis Set: AUG-CC-PVTZ
    Blend: AUG-CC-PVTZ
  Basis Set: (AUG-CC-PVTZ AUX)
    Blend: AUG-CC-PVTZ-JKFIT
	 Reference Energy          =    -322.8269433319330801 [Eh]
	 Singles Energy            =      -0.0000000000000000 [Eh]
	 Same-Spin Energy          =      -0.3350890664161319 [Eh]
	 Opposite-Spin Energy      =      -1.0605635646939275 [Eh]
	 Correlation Energy        =      -1.3956526311100594 [Eh]
	 Total Energy              =    -324.2225959630431475 [Eh]

	 ================> DF-SCS-MP2 Energies <==================
	-----------------------------------------------------------
	 SCS Same-Spin Scale       =       0.3333333333333333 [-]
	 SCS Opposite-Spin Scale   =       1.2000000000000000 [-]
	 SCS Same-Spin Energy      =      -0.1116963554720440 [Eh]
	 SCS Opposite-Spin Energy  =      -1.2726762776327130 [Eh]
	 SCS Correlation Energy    =      -1.3843726331047570 [Eh]
	 SCS Total Energy          =    -324.2113159650378407 [Eh]
	-----------------------------------------------------------

  Dipole Moment: [D]
     X:    -0.5131      Y:    -1.2241      Z:    -0.0000     Total:     1.3273

*** Psi4 exiting successfully. Buy a developer a beer!
