                               Psi4 1.3.2 release

  ==> Input File <==

--------------------------------------------------------------------------
#psi4
#
memory 32 gb

molecule  {
0 1
  O       -0.8874150    -1.1053680    -0.0000120
  N       -0.2975850     1.0586860     0.0000180
  C        1.5208660    -0.6926320     0.0000250
  C        0.1219560    -0.1795350     0.0000030
  C        2.5397680     0.4426120    -0.0000230
  C       -2.1284747    -0.3309678    -0.0000153
  C       -1.6838560     0.9546860     0.0000050
  H        1.6599850    -1.3368650     0.8764330
  H        1.6599860    -1.3369460    -0.8763220
  H        2.4145620     1.0741370    -0.8814520
  H        3.5546530     0.0364140    -0.0000210
  H        2.4145820     1.0741970     0.8813660
  H       -2.9679600    -0.9049730    -0.0000050
  H       -2.3195540     1.8284960    -0.0000070
units angstrom
no_reorient  #important for SAPT in psi4, default
symmetry c1  #important for SAPT in psi4, default
}

set PROPERTIES_ORIGIN ["COM"]
properties('MP2/aug-cc-pvtz', properties = ['dipole'])
--------------------------------------------------------------------------

    Molecular point group: c1
  Charge       = 0
  Multiplicity = 1
  Basis Set: AUG-CC-PVTZ
    Blend: AUG-CC-PVTZ
  Basis Set: (AUG-CC-PVTZ AUX)
    Blend: AUG-CC-PVTZ-JKFIT

    Orbital Energies [Eh]
    ---------------------

    Doubly Occupied:

       1A    -20.621801     2A    -15.559505     3A    -11.341832
       4A    -11.290323     5A    -11.270083     6A    -11.249460
       7A    -11.221295     8A     -1.444901     9A     -1.220683
      10A     -1.082005    11A     -1.001076    12A     -0.884560
      13A     -0.828916    14A     -0.770518    15A     -0.714177
      16A     -0.656441    17A     -0.642130    18A     -0.601664
      19A     -0.586760    20A     -0.559749    21A     -0.524514
      22A     -0.515338    23A     -0.504668    24A     -0.457160
      25A     -0.446434    26A     -0.339240

  @DF-RHF Final Energy:  -322.81618053028069

   => Energetics <=

    Nuclear Repulsion Energy =            290.5348741489419240
    One-Electron Energy =               -1014.0316404450369419
    Two-Electron Energy =                 400.6805857658143850
    Total Energy =                       -322.8161805302806897
  Basis Set: (AUG-CC-PVTZ AUX)
    Blend: AUG-CC-PVTZ-RI
    Molecular point group: c1

    Geometry (in Angstrom), charge = 0, multiplicity = 1:

       Center              X                  Y                   Z               Mass
    ------------   -----------------  -----------------  -----------------  -----------------
         O           -0.810635538552    -1.104465497992    -0.000011881031    15.994914619570
         N           -0.220805538552     1.059588502008     0.000018118969    14.003074004430
         C            1.597645461448    -0.691729497992     0.000025118969    12.000000000000
         C            0.198735461448    -0.178632497992     0.000003118969    12.000000000000
         C            2.616547461448     0.443514502008    -0.000022881031    12.000000000000
         C           -2.051695238552    -0.330065297992    -0.000015181031    12.000000000000
         C           -1.607076538552     0.955588502008     0.000005118969    12.000000000000
         H            1.736764461448    -1.335962497992     0.876433118969     1.007825032230
         H            1.736765461448    -1.336043497992    -0.876321881031     1.007825032230
         H            2.491341461448     1.075039502008    -0.881451881031     1.007825032230
         H            3.631432461448     0.037316502008    -0.000020881031     1.007825032230
         H            2.491361461448     1.075099502008     0.881366118969     1.007825032230
         H           -2.891180538552    -0.904070497992    -0.000004881031     1.007825032230
         H           -2.242774538552     1.829398502008    -0.000006881031     1.007825032230

  Basis Set: AUG-CC-PVTZ
    Blend: AUG-CC-PVTZ
  Basis Set: (AUG-CC-PVTZ AUX)
    Blend: AUG-CC-PVTZ-JKFIT
	 Reference Energy          =    -322.8161805302806897 [Eh]
	 Singles Energy            =      -0.0000000000000000 [Eh]
	 Same-Spin Energy          =      -0.3354794433825292 [Eh]
	 Opposite-Spin Energy      =      -1.0631859886414732 [Eh]
	 Correlation Energy        =      -1.3986654320240024 [Eh]
	 Total Energy              =    -324.2148459623047074 [Eh]

	 ================> DF-SCS-MP2 Energies <==================
	-----------------------------------------------------------
	 SCS Same-Spin Scale       =       0.3333333333333333 [-]
	 SCS Opposite-Spin Scale   =       1.2000000000000000 [-]
	 SCS Same-Spin Energy      =      -0.1118264811275097 [Eh]
	 SCS Opposite-Spin Energy  =      -1.2758231863697678 [Eh]
	 SCS Correlation Energy    =      -1.3876496674972776 [Eh]
	 SCS Total Energy          =    -324.2038301977779611 [Eh]
	-----------------------------------------------------------

  Dipole Moment: [D]
     X:    -0.4302      Y:    -1.1000      Z:     0.0000     Total:     1.1812

*** Psi4 exiting successfully. Buy a developer a beer!
