                               Psi4 1.3.2 release

  ==> Input File <==

--------------------------------------------------------------------------
#psi4
#
memory 32 gb

molecule  {
0 1
  O       -0.8874150    -1.1053680    -0.0000120
  N       -0.2975850     1.0586860     0.0000180
  C        1.5208660    -0.6926320     0.0000250
  C        0.1956505    -0.1119397     0.0000041
  C        2.5397680     0.4426120    -0.0000230
  C       -2.0377090    -0.3588510    -0.0000130
  C       -1.6838560     0.9546860     0.0000050
  H        1.6599850    -1.3368650     0.8764330
  H        1.6599860    -1.3369460    -0.8763220
  H        2.4145620     1.0741370    -0.8814520
  H        3.5546530     0.0364140    -0.0000210
  H        2.4145820     1.0741970     0.8813660
  H       -2.9679600    -0.9049730    -0.0000050
  H       -2.3195540     1.8284960    -0.0000070
units angstrom
no_reorient  #important for SAPT in psi4, default
symmetry c1  #important for SAPT in psi4, default
}

set PROPERTIES_ORIGIN ["COM"]
properties('MP2/aug-cc-pvtz', properties = ['dipole'])
--------------------------------------------------------------------------

    Molecular point group: c1
  Charge       = 0
  Multiplicity = 1
  Basis Set: AUG-CC-PVTZ
    Blend: AUG-CC-PVTZ
  Basis Set: (AUG-CC-PVTZ AUX)
    Blend: AUG-CC-PVTZ-JKFIT

    Orbital Energies [Eh]
    ---------------------

    Doubly Occupied:

       1A    -20.613983     2A    -15.564984     3A    -11.336880
       4A    -11.293402     5A    -11.257273     6A    -11.249700
       7A    -11.223463     8A     -1.438563     9A     -1.234379
      10A     -1.090903    11A     -0.995694    12A     -0.889999
      13A     -0.821786    14A     -0.765834    15A     -0.713321
      16A     -0.657520    17A     -0.631644    18A     -0.602707
      19A     -0.601248    20A     -0.556651    21A     -0.525272
      22A     -0.521004    23A     -0.508680    24A     -0.454052
      25A     -0.451622    26A     -0.331225

  @DF-RHF Final Energy:  -322.81551164115490

   => Energetics <=

    Nuclear Repulsion Energy =            291.8963579857826858
    One-Electron Energy =               -1016.7601639991953562
    Two-Electron Energy =                 402.0482943722577147
    Total Energy =                       -322.8155116411548988
  Basis Set: (AUG-CC-PVTZ AUX)
    Blend: AUG-CC-PVTZ-RI
    Molecular point group: c1

    Geometry (in Angstrom), charge = 0, multiplicity = 1:

       Center              X                  Y                   Z               Mass
    ------------   -----------------  -----------------  -----------------  -----------------
         O           -0.830970069190    -1.109375664185    -0.000012301421    15.994914619570
         N           -0.241140069190     1.054678335815     0.000017698579    14.003074004430
         C            1.577310930810    -0.696639664185     0.000024698579    12.000000000000
         C            0.252095430810    -0.115947364185     0.000003798579    12.000000000000
         C            2.596212930810     0.438604335815    -0.000023301421    12.000000000000
         C           -1.981264069190    -0.362858664185    -0.000013301421    12.000000000000
         C           -1.627411069190     0.950678335815     0.000004698579    12.000000000000
         H            1.716429930810    -1.340872664185     0.876432698579     1.007825032230
         H            1.716430930810    -1.340953664185    -0.876322301421     1.007825032230
         H            2.471006930810     1.070129335815    -0.881452301421     1.007825032230
         H            3.611097930810     0.032406335815    -0.000021301421     1.007825032230
         H            2.471026930810     1.070189335815     0.881365698579     1.007825032230
         H           -2.911515069190    -0.908980664185    -0.000005301421     1.007825032230
         H           -2.263109069190     1.824488335815    -0.000007301421     1.007825032230

  Basis Set: AUG-CC-PVTZ
    Blend: AUG-CC-PVTZ
  Basis Set: (AUG-CC-PVTZ AUX)
    Blend: AUG-CC-PVTZ-JKFIT
	 Reference Energy          =    -322.8155116411548988 [Eh]
	 Singles Energy            =      -0.0000000000000000 [Eh]
	 Same-Spin Energy          =      -0.3366810091665058 [Eh]
	 Opposite-Spin Energy      =      -1.0641780717770444 [Eh]
	 Correlation Energy        =      -1.4008590809435502 [Eh]
	 Total Energy              =    -324.2163707220984747 [Eh]

	 ================> DF-SCS-MP2 Energies <==================
	-----------------------------------------------------------
	 SCS Same-Spin Scale       =       0.3333333333333333 [-]
	 SCS Opposite-Spin Scale   =       1.2000000000000000 [-]
	 SCS Same-Spin Energy      =      -0.1122270030555019 [Eh]
	 SCS Opposite-Spin Energy  =      -1.2770136861324533 [Eh]
	 SCS Correlation Energy    =      -1.3892406891879552 [Eh]
	 SCS Total Energy          =    -324.2047523303428420 [Eh]
	-----------------------------------------------------------

  Dipole Moment: [D]
     X:    -0.0455      Y:    -0.9837      Z:     0.0000     Total:     0.9847

*** Psi4 exiting successfully. Buy a developer a beer!
