                               Psi4 1.4a3.dev225

  ==> Input File <==

--------------------------------------------------------------------------
#psi4
#
memory 32 gb

molecule  {
0 1
  O       -0.8874150    -1.1053680    -0.0000120
  N       -0.2975850     1.0586860     0.0000180
  C        1.5208660    -0.6926320     0.0000250
  C        0.1219560    -0.1795350     0.0000030
  C        2.5397680     0.4426120    -0.0000230
  C       -2.0377090    -0.3588510    -0.0000130
  C       -1.6838560     0.9546860     0.0000050
  H        1.6599850    -1.3368650     0.8764330
  H        1.6599860    -1.3369460    -0.8763220
  H        2.4145620     1.0741370    -0.8814520
  H        3.5546530     0.0364140    -0.0000210
  H        2.4145820     1.0741970     0.8813660
  H       -2.9679600    -0.9049730    -0.0000050
  H       -2.3313199     1.8446690    -0.0000072
units angstrom
no_reorient  #important for SAPT in psi4, default
symmetry c1  #important for SAPT in psi4, default
}

set PROPERTIES_ORIGIN ["COM"]
properties('MP2/aug-cc-pvtz', properties = ['dipole'])
--------------------------------------------------------------------------

    Molecular point group: c1
  Charge       = 0
  Multiplicity = 1
  Basis Set: AUG-CC-PVTZ
    Blend: AUG-CC-PVTZ
  Basis Set: (AUG-CC-PVTZ AUX)
    Blend: AUG-CC-PVTZ-JKFIT

    Orbital Energies [Eh]
    ---------------------

    Doubly Occupied:

       1A    -20.634384     2A    -15.560900     3A    -11.337937
       4A    -11.290908     5A    -11.262856     6A    -11.248834
       7A    -11.220885     8A     -1.476696     9A     -1.226398
      10A     -1.082644    11A     -0.996834    12A     -0.883911
      13A     -0.826367    14A     -0.780187    15A     -0.715934
      16A     -0.667301    17A     -0.629860    18A     -0.609270
      19A     -0.583367    20A     -0.571114    21A     -0.526818
      22A     -0.514636    23A     -0.505010    24A     -0.457044
      25A     -0.449542    26A     -0.332101

  @DF-RHF Final Energy:  -322.82640125717171

   => Energetics <=

    Nuclear Repulsion Energy =            292.2451150491325507
    One-Electron Energy =               -1017.3595531277014743
    Two-Electron Energy =                 402.2880368213972133
    Total Energy =                       -322.8264012571717103
  Basis Set: (AUG-CC-PVTZ AUX)
    Blend: AUG-CC-PVTZ-RI
    Molecular point group: c1

    Geometry (in Angstrom), charge = 0, multiplicity = 1:

       Center              X                  Y                   Z               Mass
    ------------   -----------------  -----------------  -----------------  -----------------
         O           -0.821735999670    -1.101185850580    -0.000012163336    15.994914619570
         N           -0.231905999670     1.062868149420     0.000017836664    14.003074004430
         C            1.586545000330    -0.688449850580     0.000024836664    12.000000000000
         C            0.187635000330    -0.175352850580     0.000002836664    12.000000000000
         C            2.605447000330     0.446794149420    -0.000023163336    12.000000000000
         C           -1.972029999670    -0.354668850580    -0.000013163336    12.000000000000
         C           -1.618176999670     0.958868149420     0.000004836664    12.000000000000
         H            1.725664000330    -1.332682850580     0.876432836664     1.007825032230
         H            1.725665000330    -1.332763850580    -0.876322163336     1.007825032230
         H            2.480241000330     1.078319149420    -0.881452163336     1.007825032230
         H            3.620332000330     0.040596149420    -0.000021163336     1.007825032230
         H            2.480261000330     1.078379149420     0.881365836664     1.007825032230
         H           -2.902280999670    -0.900790850580    -0.000005163336     1.007825032230
         H           -2.265640899670     1.848851149420    -0.000007363336     1.007825032230

  Basis Set: AUG-CC-PVTZ
    Blend: AUG-CC-PVTZ
  Basis Set: (AUG-CC-PVTZ AUX)
    Blend: AUG-CC-PVTZ-JKFIT
	 Reference Energy          =    -322.8264012571717103 [Eh]
	 Singles Energy            =      -0.0000000000000000 [Eh]
	 Same-Spin Energy          =      -0.3358066928009952 [Eh]
	 Opposite-Spin Energy      =      -1.0620318534795954 [Eh]
	 Correlation Energy        =      -1.3978385462805907 [Eh]
	 Total Energy              =    -324.2242398034522921 [Eh]

	 ================> DF-SCS-MP2 Energies <==================
	-----------------------------------------------------------
	 SCS Same-Spin Scale       =       0.3333333333333333 [-]
	 SCS Opposite-Spin Scale   =       1.2000000000000000 [-]
	 SCS Same-Spin Energy      =      -0.1119355642669984 [Eh]
	 SCS Opposite-Spin Energy  =      -1.2744382241755143 [Eh]
	 SCS Correlation Energy    =      -1.3863737884425127 [Eh]
	 SCS Total Energy          =    -324.2127750456142508 [Eh]
	-----------------------------------------------------------

  Dipole Moment: [D]
     X:    -0.3633      Y:    -1.1809      Z:    -0.0000     Total:     1.2355

*** Psi4 exiting successfully. Buy a developer a beer!
