                               Psi4 1.3.2 release

  ==> Input File <==

--------------------------------------------------------------------------
#psi4
#
memory 32 gb

molecule  {
0 1
  O       -0.8874150    -1.1053680    -0.0000120
  N       -0.1658574     1.0957569     0.0000218
  C        1.5208660    -0.6926320     0.0000250
  C        0.1219560    -0.1795350     0.0000030
  C        2.5397680     0.4426120    -0.0000230
  C       -2.0377090    -0.3588510    -0.0000130
  C       -1.6838560     0.9546860     0.0000050
  H        1.6599850    -1.3368650     0.8764330
  H        1.6599860    -1.3369460    -0.8763220
  H        2.4145620     1.0741370    -0.8814520
  H        3.5546530     0.0364140    -0.0000210
  H        2.4145820     1.0741970     0.8813660
  H       -2.9679600    -0.9049730    -0.0000050
  H       -2.3195540     1.8284960    -0.0000070
units angstrom
no_reorient  #important for SAPT in psi4, default
symmetry c1  #important for SAPT in psi4, default
}

set PROPERTIES_ORIGIN ["COM"]
properties('MP2/aug-cc-pvtz', properties = ['dipole'])
--------------------------------------------------------------------------

    Molecular point group: c1
  Charge       = 0
  Multiplicity = 1
  Basis Set: AUG-CC-PVTZ
    Blend: AUG-CC-PVTZ
  Basis Set: (AUG-CC-PVTZ AUX)
    Blend: AUG-CC-PVTZ-JKFIT

    Orbital Energies [Eh]
    ---------------------

    Doubly Occupied:

       1A    -20.635838     2A    -15.574928     3A    -11.341132
       4A    -11.299305     5A    -11.272091     6A    -11.244054
       7A    -11.217596     8A     -1.475530     9A     -1.209239
      10A     -1.076676    11A     -0.998786    12A     -0.884897
      13A     -0.828429    14A     -0.763754    15A     -0.715742
      16A     -0.666447    17A     -0.631611    18A     -0.607470
      19A     -0.574715    20A     -0.566496    21A     -0.524342
      22A     -0.505278    23A     -0.502221    24A     -0.467369
      25A     -0.437466    26A     -0.344749

  @DF-RHF Final Energy:  -322.81089683411085

   => Energetics <=

    Nuclear Repulsion Energy =            290.6154450902809572
    One-Electron Energy =               -1014.1203661830583087
    Two-Electron Energy =                 400.6940242586664453
    Total Energy =                       -322.8108968341108493
  Basis Set: (AUG-CC-PVTZ AUX)
    Blend: AUG-CC-PVTZ-RI
    Molecular point group: c1

    Geometry (in Angstrom), charge = 0, multiplicity = 1:

       Center              X                  Y                   Z               Mass
    ------------   -----------------  -----------------  -----------------  -----------------
         O           -0.840864247296    -1.106366609808    -0.000012713688    15.994914619570
         N           -0.119306647296     1.094758290192     0.000021086312    14.003074004430
         C            1.567416752704    -0.693630609808     0.000024286312    12.000000000000
         C            0.168506752704    -0.180533609808     0.000002286312    12.000000000000
         C            2.586318752704     0.441613390192    -0.000023713688    12.000000000000
         C           -1.991158247296    -0.359849609808    -0.000013713688    12.000000000000
         C           -1.637305247296     0.953687390192     0.000004286312    12.000000000000
         H            1.706535752704    -1.337863609808     0.876432286312     1.007825032230
         H            1.706536752704    -1.337944609808    -0.876322713688     1.007825032230
         H            2.461112752704     1.073138390192    -0.881452713688     1.007825032230
         H            3.601203752704     0.035415390192    -0.000021713688     1.007825032230
         H            2.461132752704     1.073198390192     0.881365286312     1.007825032230
         H           -2.921409247296    -0.905971609808    -0.000005713688     1.007825032230
         H           -2.273003247296     1.827497390192    -0.000007713688     1.007825032230

  Basis Set: AUG-CC-PVTZ
    Blend: AUG-CC-PVTZ
  Basis Set: (AUG-CC-PVTZ AUX)
    Blend: AUG-CC-PVTZ-JKFIT
	 Reference Energy          =    -322.8108968341108493 [Eh]
	 Singles Energy            =      -0.0000000000000000 [Eh]
	 Same-Spin Energy          =      -0.3352023302583599 [Eh]
	 Opposite-Spin Energy      =      -1.0647614053576033 [Eh]
	 Correlation Energy        =      -1.3999637356159633 [Eh]
	 Total Energy              =    -324.2108605697268331 [Eh]

	 ================> DF-SCS-MP2 Energies <==================
	-----------------------------------------------------------
	 SCS Same-Spin Scale       =       0.3333333333333333 [-]
	 SCS Opposite-Spin Scale   =       1.2000000000000000 [-]
	 SCS Same-Spin Energy      =      -0.1117341100861200 [Eh]
	 SCS Opposite-Spin Energy  =      -1.2777136864291239 [Eh]
	 SCS Correlation Energy    =      -1.3894477965152439 [Eh]
	 SCS Total Energy          =    -324.2003446306260912 [Eh]
	-----------------------------------------------------------

  Dipole Moment: [D]
     X:    -0.6122      Y:    -1.2389      Z:    -0.0000     Total:     1.3819

*** Psi4 exiting successfully. Buy a developer a beer!
