                               Psi4 1.3.2 release

  ==> Input File <==

--------------------------------------------------------------------------
#psi4
#
memory 32 gb

molecule  {
0 1
  O       -0.8874150    -1.1053680    -0.0000120
  N       -0.2975850     1.0586860     0.0000180
  C        1.5208660    -0.6926320     0.0000250
  C        0.1219560    -0.1795350     0.0000030
  C        2.5397680     0.4426120    -0.0000230
  C       -2.0377090    -0.3588510    -0.0000130
  C       -1.6838560     0.9546860     0.0000050
  H        1.6599850    -1.3368650     0.8764330
  H        1.6599860    -1.3369460    -0.8763220
  H        2.4145620     1.0741370    -0.8814520
  H        3.5546530     0.0364140    -0.0000210
  H        2.4145820     1.0741970     0.8813660
  H       -2.8817227    -0.8543457    -0.0000057
  H       -2.3195540     1.8284960    -0.0000070
units angstrom
no_reorient  #important for SAPT in psi4, default
symmetry c1  #important for SAPT in psi4, default
}

set PROPERTIES_ORIGIN ["COM"]
properties('MP2/aug-cc-pvtz', properties = ['dipole'])
--------------------------------------------------------------------------

    Molecular point group: c1
  Charge       = 0
  Multiplicity = 1
  Basis Set: AUG-CC-PVTZ
    Blend: AUG-CC-PVTZ
  Basis Set: (AUG-CC-PVTZ AUX)
    Blend: AUG-CC-PVTZ-JKFIT

    Orbital Energies [Eh]
    ---------------------

    Doubly Occupied:

       1A    -20.633604     2A    -15.560362     3A    -11.337664
       4A    -11.279730     5A    -11.260570     6A    -11.248676
       7A    -11.220773     8A     -1.476121     9A     -1.226110
      10A     -1.083536    11A     -1.001390    12A     -0.884610
      13A     -0.837350    14A     -0.780082    15A     -0.726294
      16A     -0.666900    17A     -0.643143    18A     -0.609044
      19A     -0.585241    20A     -0.573889    21A     -0.527349
      22A     -0.514614    23A     -0.504896    24A     -0.457052
      25A     -0.449136    26A     -0.332158

  @DF-RHF Final Energy:  -322.82073671806734

   => Energetics <=

    Nuclear Repulsion Energy =            292.8861958471812841
    One-Electron Energy =               -1018.5732778948080295
    Two-Electron Energy =                 402.8663453295594081
    Total Energy =                       -322.8207367180673373
  Basis Set: (AUG-CC-PVTZ AUX)
    Blend: AUG-CC-PVTZ-RI
    Molecular point group: c1

    Geometry (in Angstrom), charge = 0, multiplicity = 1:

       Center              X                  Y                   Z               Mass
    ------------   -----------------  -----------------  -----------------  -----------------
         O           -0.822753694316    -1.101543634374    -0.000012158144    15.994914619570
         N           -0.232923694316     1.062510365626     0.000017841856    14.003074004430
         C            1.585527305684    -0.688807634374     0.000024841856    12.000000000000
         C            0.186617305684    -0.175710634374     0.000002841856    12.000000000000
         C            2.604429305684     0.446436365626    -0.000023158144    12.000000000000
         C           -1.973047694316    -0.355026634374    -0.000013158144    12.000000000000
         C           -1.619194694316     0.958510365626     0.000004841856    12.000000000000
         H            1.724646305684    -1.333040634374     0.876432841856     1.007825032230
         H            1.724647305684    -1.333121634374    -0.876322158144     1.007825032230
         H            2.479223305684     1.077961365626    -0.881452158144     1.007825032230
         H            3.619314305684     0.040238365626    -0.000021158144     1.007825032230
         H            2.479243305684     1.078021365626     0.881365841856     1.007825032230
         H           -2.817061394316    -0.850521334374    -0.000005858144     1.007825032230
         H           -2.254892694316     1.832320365626    -0.000007158144     1.007825032230

  Basis Set: AUG-CC-PVTZ
    Blend: AUG-CC-PVTZ
  Basis Set: (AUG-CC-PVTZ AUX)
    Blend: AUG-CC-PVTZ-JKFIT
	 Reference Energy          =    -322.8207367180673373 [Eh]
	 Singles Energy            =      -0.0000000000000000 [Eh]
	 Same-Spin Energy          =      -0.3355978400902297 [Eh]
	 Opposite-Spin Energy      =      -1.0614242915071030 [Eh]
	 Correlation Energy        =      -1.3970221315973328 [Eh]
	 Total Energy              =    -324.2177588496646763 [Eh]

	 ================> DF-SCS-MP2 Energies <==================
	-----------------------------------------------------------
	 SCS Same-Spin Scale       =       0.3333333333333333 [-]
	 SCS Opposite-Spin Scale   =       1.2000000000000000 [-]
	 SCS Same-Spin Energy      =      -0.1118659466967432 [Eh]
	 SCS Opposite-Spin Energy  =      -1.2737091498085236 [Eh]
	 SCS Correlation Energy    =      -1.3855750965052669 [Eh]
	 SCS Total Energy          =    -324.2063118145725866 [Eh]
	-----------------------------------------------------------

  Dipole Moment: [D]
     X:    -0.3554      Y:    -1.1648      Z:    -0.0000     Total:     1.2178

*** Psi4 exiting successfully. Buy a developer a beer!
