                               Psi4 1.3.2 release

  ==> Input File <==

--------------------------------------------------------------------------
#psi4
#
memory 32 gb

molecule  {
0 1
  O       -0.8874150    -1.1053680    -0.0000120
  N       -0.2975850     1.0586860     0.0000180
  C        1.5208660    -0.6926320     0.0000250
  C        0.1219560    -0.1795350     0.0000030
  C        2.5397680     0.4426120    -0.0000230
  C       -2.0377090    -0.3588510    -0.0000130
  C       -1.6838560     0.9546860     0.0000050
  H        1.6599850    -1.3368650     0.8764330
  H        1.6599860    -1.3369460    -0.8763220
  H        2.4145620     1.0741370    -0.8814520
  H        3.5546530     0.0364140    -0.0000210
  H        2.4145820     1.0741970     0.8813660
  H       -2.9679600    -0.9049730    -0.0000050
  H       -2.2018955     1.6667664    -0.0000048
units angstrom
no_reorient  #important for SAPT in psi4, default
symmetry c1  #important for SAPT in psi4, default
}

set PROPERTIES_ORIGIN ["COM"]
properties('MP2/aug-cc-pvtz', properties = ['dipole'])
--------------------------------------------------------------------------

    Molecular point group: c1
  Charge       = 0
  Multiplicity = 1
  Basis Set: AUG-CC-PVTZ
    Blend: AUG-CC-PVTZ
  Basis Set: (AUG-CC-PVTZ AUX)
    Blend: AUG-CC-PVTZ-JKFIT

    Orbital Energies [Eh]
    ---------------------

    Doubly Occupied:

       1A    -20.633760     2A    -15.559464     3A    -11.336799
       4A    -11.290771     5A    -11.248303     6A    -11.238121
       7A    -11.220553     8A     -1.475943     9A     -1.226459
      10A     -1.084453    11A     -1.002657    12A     -0.890668
      13A     -0.847385    14A     -0.782478    15A     -0.731140
      16A     -0.666627    17A     -0.641293    18A     -0.608805
      19A     -0.601302    20A     -0.574620    21A     -0.526414
      22A     -0.514874    23A     -0.504638    24A     -0.456718
      25A     -0.448823    26A     -0.331972

  @DF-RHF Final Energy:  -322.79049516010008

   => Energetics <=

    Nuclear Repulsion Energy =            293.4981299449596577
    One-Electron Energy =               -1019.6871668186491888
    Two-Electron Energy =                 403.3985417135893954
    Total Energy =                       -322.7904951601000789
  Basis Set: (AUG-CC-PVTZ AUX)
    Blend: AUG-CC-PVTZ-RI
    Molecular point group: c1

    Geometry (in Angstrom), charge = 0, multiplicity = 1:

       Center              X                  Y                   Z               Mass
    ------------   -----------------  -----------------  -----------------  -----------------
         O           -0.823079981489    -1.099338456581    -0.000012188258    15.994914619570
         N           -0.233249981489     1.064715543419     0.000017811742    14.003074004430
         C            1.585201018511    -0.686602456581     0.000024811742    12.000000000000
         C            0.186291018511    -0.173505456581     0.000002811742    12.000000000000
         C            2.604103018511     0.448641543419    -0.000023188258    12.000000000000
         C           -1.973373981489    -0.352821456581    -0.000013188258    12.000000000000
         C           -1.619520981489     0.960715543419     0.000004811742    12.000000000000
         H            1.724320018511    -1.330835456581     0.876432811742     1.007825032230
         H            1.724321018511    -1.330916456581    -0.876322188258     1.007825032230
         H            2.478897018511     1.080166543419    -0.881452188258     1.007825032230
         H            3.618988018511     0.042443543419    -0.000021188258     1.007825032230
         H            2.478917018511     1.080226543419     0.881365811742     1.007825032230
         H           -2.903624981489    -0.898943456581    -0.000005188258     1.007825032230
         H           -2.137560481489     1.672795943419    -0.000004988258     1.007825032230

  Basis Set: AUG-CC-PVTZ
    Blend: AUG-CC-PVTZ
  Basis Set: (AUG-CC-PVTZ AUX)
    Blend: AUG-CC-PVTZ-JKFIT
	 Reference Energy          =    -322.7904951601000789 [Eh]
	 Singles Energy            =      -0.0000000000000000 [Eh]
	 Same-Spin Energy          =      -0.3356176945479539 [Eh]
	 Opposite-Spin Energy      =      -1.0616196896678209 [Eh]
	 Correlation Energy        =      -1.3972373842157748 [Eh]
	 Total Energy              =    -324.1877325443158497 [Eh]

	 ================> DF-SCS-MP2 Energies <==================
	-----------------------------------------------------------
	 SCS Same-Spin Scale       =       0.3333333333333333 [-]
	 SCS Opposite-Spin Scale   =       1.2000000000000000 [-]
	 SCS Same-Spin Energy      =      -0.1118725648493180 [Eh]
	 SCS Opposite-Spin Energy  =      -1.2739436276013851 [Eh]
	 SCS Correlation Energy    =      -1.3858161924507031 [Eh]
	 SCS Total Energy          =    -324.1763113525507833 [Eh]
	-----------------------------------------------------------

  Dipole Moment: [D]
     X:    -0.3896      Y:    -1.2185      Z:    -0.0000     Total:     1.2793

*** Psi4 exiting successfully. Buy a developer a beer!
