                               Psi4 1.3.2 release

  ==> Input File <==

--------------------------------------------------------------------------
#psi4
#
memory 32 gb

molecule  {
0 1
  O       -0.8874150    -1.1053680    -0.0000120
  N       -0.2975850     1.0586860     0.0000180
  C        1.5208660    -0.6926320     0.0000250
  C        0.1219560    -0.1795350     0.0000030
  C        2.5397680     0.4426120    -0.0000230
  C       -2.0377090    -0.3588510    -0.0000130
  C       -1.6838560     0.9546860     0.0000050
  H        1.6599850    -1.3368650     0.8764330
  H        1.6599860    -1.3369460    -0.8763220
  H        2.4145620     1.0741370    -0.8814520
  H        3.5546530     0.0364140    -0.0000210
  H        2.4145820     1.0741970     0.8813660
  H       -2.9679600    -0.9049730    -0.0000050
  H       -2.4372125     1.9902256    -0.0000092
units angstrom
no_reorient  #important for SAPT in psi4, default
symmetry c1  #important for SAPT in psi4, default
}

set PROPERTIES_ORIGIN ["COM"]
properties('MP2/aug-cc-pvtz', properties = ['dipole'])
--------------------------------------------------------------------------

    Molecular point group: c1
  Charge       = 0
  Multiplicity = 1
  Basis Set: AUG-CC-PVTZ
    Blend: AUG-CC-PVTZ
  Basis Set: (AUG-CC-PVTZ AUX)
    Blend: AUG-CC-PVTZ-JKFIT

    Orbital Energies [Eh]
    ---------------------

    Doubly Occupied:

       1A    -20.635618     2A    -15.562969     3A    -11.339471
       4A    -11.292247     5A    -11.280923     6A    -11.249600
       7A    -11.221378     8A     -1.477981     9A     -1.227576
      10A     -1.082699    11A     -0.995512    12A     -0.882945
      13A     -0.818519    14A     -0.779487    15A     -0.707532
      16A     -0.668412    17A     -0.625979    18A     -0.610036
      19A     -0.578531    20A     -0.547940    21A     -0.527440
      22A     -0.513471    23A     -0.505577    24A     -0.457222
      25A     -0.450900    26A     -0.333040

  @DF-RHF Final Energy:  -322.80394591127731

   => Energetics <=

    Nuclear Repulsion Energy =            291.4509513316170910
    One-Electron Energy =               -1015.7637841139047623
    Two-Electron Energy =                 401.5088868710103043
    Total Energy =                       -322.8039459112773102
  Basis Set: (AUG-CC-PVTZ AUX)
    Blend: AUG-CC-PVTZ-RI
    Molecular point group: c1

    Geometry (in Angstrom), charge = 0, multiplicity = 1:

       Center              X                  Y                   Z               Mass
    ------------   -----------------  -----------------  -----------------  -----------------
         O           -0.820636379125    -1.102697354007    -0.000012142567    15.994914619570
         N           -0.230806379125     1.061356645993     0.000017857433    14.003074004430
         C            1.587644620875    -0.689961354007     0.000024857433    12.000000000000
         C            0.188734620875    -0.176864354007     0.000002857433    12.000000000000
         C            2.606546620875     0.445282645993    -0.000023142567    12.000000000000
         C           -1.970930379125    -0.356180354007    -0.000013142567    12.000000000000
         C           -1.617077379125     0.957356645993     0.000004857433    12.000000000000
         H            1.726763620875    -1.334194354007     0.876432857433     1.007825032230
         H            1.726764620875    -1.334275354007    -0.876322142567     1.007825032230
         H            2.481340620875     1.076807645993    -0.881452142567     1.007825032230
         H            3.621431620875     0.039084645993    -0.000021142567     1.007825032230
         H            2.481360620875     1.076867645993     0.881365857433     1.007825032230
         H           -2.901181379125    -0.902302354007    -0.000005142567     1.007825032230
         H           -2.370433879125     1.992896245993    -0.000009342567     1.007825032230

  Basis Set: AUG-CC-PVTZ
    Blend: AUG-CC-PVTZ
  Basis Set: (AUG-CC-PVTZ AUX)
    Blend: AUG-CC-PVTZ-JKFIT
	 Reference Energy          =    -322.8039459112773102 [Eh]
	 Singles Energy            =      -0.0000000000000000 [Eh]
	 Same-Spin Energy          =      -0.3362405238273837 [Eh]
	 Opposite-Spin Energy      =      -1.0639304198144166 [Eh]
	 Correlation Energy        =      -1.4001709436418004 [Eh]
	 Total Energy              =    -324.2041168549191070 [Eh]

	 ================> DF-SCS-MP2 Energies <==================
	-----------------------------------------------------------
	 SCS Same-Spin Scale       =       0.3333333333333333 [-]
	 SCS Opposite-Spin Scale   =       1.2000000000000000 [-]
	 SCS Same-Spin Energy      =      -0.1120801746091279 [Eh]
	 SCS Opposite-Spin Energy  =      -1.2767165037772998 [Eh]
	 SCS Correlation Energy    =      -1.3887966783864278 [Eh]
	 SCS Total Energy          =    -324.1927425896637374 [Eh]
	-----------------------------------------------------------

  Dipole Moment: [D]
     X:    -0.3109      Y:    -1.1820      Z:    -0.0000     Total:     1.2222

*** Psi4 exiting successfully. Buy a developer a beer!
