                               Psi4 1.3.2 release

  ==> Input File <==

--------------------------------------------------------------------------
#psi4
#
memory 32 gb

molecule  {
0 1
  O       -0.8874150    -1.1053680    -0.0000120
  N       -0.2975850     1.0586860     0.0000180
  C        1.5208660    -0.6926320     0.0000250
  C        0.1219560    -0.1795350     0.0000030
  C        2.5397680     0.4426120    -0.0000230
  C       -2.0377090    -0.3588510    -0.0000130
  C       -1.8230964     0.9844780     0.0000083
  H        1.6599850    -1.3368650     0.8764330
  H        1.6599860    -1.3369460    -0.8763220
  H        2.4145620     1.0741370    -0.8814520
  H        3.5546530     0.0364140    -0.0000210
  H        2.4145820     1.0741970     0.8813660
  H       -2.9679600    -0.9049730    -0.0000050
  H       -2.3195540     1.8284960    -0.0000070
units angstrom
no_reorient  #important for SAPT in psi4, default
symmetry c1  #important for SAPT in psi4, default
}

set PROPERTIES_ORIGIN ["COM"]
properties('MP2/aug-cc-pvtz', properties = ['dipole'])
--------------------------------------------------------------------------

    Molecular point group: c1
  Charge       = 0
  Multiplicity = 1
  Basis Set: AUG-CC-PVTZ
    Blend: AUG-CC-PVTZ
  Basis Set: (AUG-CC-PVTZ AUX)
    Blend: AUG-CC-PVTZ-JKFIT

    Orbital Energies [Eh]
    ---------------------

    Doubly Occupied:

       1A    -20.634412     2A    -15.562429     3A    -11.335728
       4A    -11.303347     5A    -11.263665     6A    -11.248734
       7A    -11.219639     8A     -1.472942     9A     -1.194673
      10A     -1.080094    11A     -1.003021    12A     -0.888247
      13A     -0.834981    14A     -0.770120    15A     -0.719211
      16A     -0.664434    17A     -0.635645    18A     -0.608508
      19A     -0.604356    20A     -0.564679    21A     -0.525545
      22A     -0.512167    23A     -0.504178    24A     -0.438102
      25A     -0.430232    26A     -0.344905

  @DF-RHF Final Energy:  -322.80397957102394

   => Energetics <=

    Nuclear Repulsion Energy =            289.8602775415045585
    One-Electron Energy =               -1012.6005302531614234
    Two-Electron Energy =                 399.9362731406329772
    Total Energy =                       -322.8039795710239446
  Basis Set: (AUG-CC-PVTZ AUX)
    Blend: AUG-CC-PVTZ-RI
    Molecular point group: c1

    Geometry (in Angstrom), charge = 0, multiplicity = 1:

       Center              X                  Y                   Z               Mass
    ------------   -----------------  -----------------  -----------------  -----------------
         O           -0.804641928716    -1.104701509818    -0.000012573438    15.994914619570
         N           -0.214811928716     1.059352490182     0.000017426562    14.003074004430
         C            1.603639071284    -0.691965509818     0.000024426562    12.000000000000
         C            0.204729071284    -0.178868509818     0.000002426562    12.000000000000
         C            2.622541071284     0.443278490182    -0.000023573438    12.000000000000
         C           -1.954935928716    -0.358184509818    -0.000013573438    12.000000000000
         C           -1.740323328716     0.985144490182     0.000007726562    12.000000000000
         H            1.742758071284    -1.336198509818     0.876432426562     1.007825032230
         H            1.742759071284    -1.336279509818    -0.876322573438     1.007825032230
         H            2.497335071284     1.074803490182    -0.881452573438     1.007825032230
         H            3.637426071284     0.037080490182    -0.000021573438     1.007825032230
         H            2.497355071284     1.074863490182     0.881365426562     1.007825032230
         H           -2.885186928716    -0.904306509818    -0.000005573438     1.007825032230
         H           -2.236780928716     1.829162490182    -0.000007573438     1.007825032230

  Basis Set: AUG-CC-PVTZ
    Blend: AUG-CC-PVTZ
  Basis Set: (AUG-CC-PVTZ AUX)
    Blend: AUG-CC-PVTZ-JKFIT
	 Reference Energy          =    -322.8039795710239446 [Eh]
	 Singles Energy            =      -0.0000000000000000 [Eh]
	 Same-Spin Energy          =      -0.3348270531654816 [Eh]
	 Opposite-Spin Energy      =      -1.0639930308432184 [Eh]
	 Correlation Energy        =      -1.3988200840086999 [Eh]
	 Total Energy              =    -324.2027996550326634 [Eh]

	 ================> DF-SCS-MP2 Energies <==================
	-----------------------------------------------------------
	 SCS Same-Spin Scale       =       0.3333333333333333 [-]
	 SCS Opposite-Spin Scale   =       1.2000000000000000 [-]
	 SCS Same-Spin Energy      =      -0.1116090177218272 [Eh]
	 SCS Opposite-Spin Energy  =      -1.2767916370118619 [Eh]
	 SCS Correlation Energy    =      -1.3884006547336891 [Eh]
	 SCS Total Energy          =    -324.1923802257576313 [Eh]
	-----------------------------------------------------------

  Dipole Moment: [D]
     X:    -0.4317      Y:    -1.1509      Z:    -0.0000     Total:     1.2292

*** Psi4 exiting successfully. Buy a developer a beer!
