                               Psi4 1.3.2 release

  ==> Input File <==

--------------------------------------------------------------------------
#psi4
#
memory 32 gb

molecule  {
0 1
  O       -0.8874150    -1.1053680    -0.0000120
  N       -0.2975850     1.0586860     0.0000180
  C        1.5208660    -0.6926320     0.0000250
  C        0.1324129    -0.1536631    -0.0438865
  C        2.5397680     0.4426120    -0.0000230
  C       -2.0377090    -0.3588510    -0.0000130
  C       -1.6838560     0.9546860     0.0000050
  H        1.6599850    -1.3368650     0.8764330
  H        1.6599860    -1.3369460    -0.8763220
  H        2.4145620     1.0741370    -0.8814520
  H        3.5546530     0.0364140    -0.0000210
  H        2.4145820     1.0741970     0.8813660
  H       -2.9679600    -0.9049730    -0.0000050
  H       -2.3195540     1.8284960    -0.0000070
units angstrom
no_reorient  #important for SAPT in psi4, default
symmetry c1  #important for SAPT in psi4, default
}

set PROPERTIES_ORIGIN ["COM"]
properties('MP2/aug-cc-pvtz', properties = ['dipole'])
--------------------------------------------------------------------------

    Molecular point group: c1
  Charge       = 0
  Multiplicity = 1
  Basis Set: AUG-CC-PVTZ
    Blend: AUG-CC-PVTZ
  Basis Set: (AUG-CC-PVTZ AUX)
    Blend: AUG-CC-PVTZ-JKFIT

    Orbital Energies [Eh]
    ---------------------

    Doubly Occupied:

       1A    -20.629056     2A    -15.561698     3A    -11.336314
       4A    -11.292088     5A    -11.260137     6A    -11.248810
       7A    -11.220781     8A     -1.466649     9A     -1.232693
      10A     -1.082155    11A     -0.996824    12A     -0.883809
      13A     -0.826470    14A     -0.777183    15A     -0.716264
      16A     -0.663521    17A     -0.629683    18A     -0.607824
      19A     -0.589355    20A     -0.568613    21A     -0.524400
      22A     -0.516400    23A     -0.504726    24A     -0.458171
      25A     -0.452076    26A     -0.333306

  @DF-RHF Final Energy:  -322.82561106703832

   => Energetics <=

    Nuclear Repulsion Energy =            292.2893204087732784
    One-Electron Energy =               -1017.4718497475107597
    Two-Electron Energy =                 402.3569182716991577
    Total Energy =                       -322.8256110670383237
  Basis Set: (AUG-CC-PVTZ AUX)
    Blend: AUG-CC-PVTZ-RI
    Molecular point group: c1

    Geometry (in Angstrom), charge = 0, multiplicity = 1:

       Center              X                  Y                   Z               Mass
    ------------   -----------------  -----------------  -----------------  -----------------
         O           -0.823151114120    -1.104216812648     0.005414511573    15.994914619570
         N           -0.233321114120     1.059837187352     0.005444511573    14.003074004430
         C            1.585129885880    -0.691480812648     0.005451511573    12.000000000000
         C            0.196676785880    -0.152511912648    -0.038459988427    12.000000000000
         C            2.604031885880     0.443763187352     0.005403511573    12.000000000000
         C           -1.973445114120    -0.357699812648     0.005413511573    12.000000000000
         C           -1.619592114120     0.955837187352     0.005431511573    12.000000000000
         H            1.724248885880    -1.335713812648     0.881859511573     1.007825032230
         H            1.724249885880    -1.335794812648    -0.870895488427     1.007825032230
         H            2.478825885880     1.075288187352    -0.876025488427     1.007825032230
         H            3.618916885880     0.037565187352     0.005405511573     1.007825032230
         H            2.478845885880     1.075348187352     0.886792511573     1.007825032230
         H           -2.903696114120    -0.903821812648     0.005421511573     1.007825032230
         H           -2.255290114120     1.829647187352     0.005419511573     1.007825032230

  Basis Set: AUG-CC-PVTZ
    Blend: AUG-CC-PVTZ
  Basis Set: (AUG-CC-PVTZ AUX)
    Blend: AUG-CC-PVTZ-JKFIT
	 Reference Energy          =    -322.8256110670383237 [Eh]
	 Singles Energy            =      -0.0000000000000000 [Eh]
	 Same-Spin Energy          =      -0.3356583361234283 [Eh]
	 Opposite-Spin Energy      =      -1.0620802013704420 [Eh]
	 Correlation Energy        =      -1.3977385374938702 [Eh]
	 Total Energy              =    -324.2233496045321886 [Eh]

	 ================> DF-SCS-MP2 Energies <==================
	-----------------------------------------------------------
	 SCS Same-Spin Scale       =       0.3333333333333333 [-]
	 SCS Opposite-Spin Scale   =       1.2000000000000000 [-]
	 SCS Same-Spin Energy      =      -0.1118861120411428 [Eh]
	 SCS Opposite-Spin Energy  =      -1.2744962416445305 [Eh]
	 SCS Correlation Energy    =      -1.3863823536856732 [Eh]
	 SCS Total Energy          =    -324.2119934207240135 [Eh]
	-----------------------------------------------------------

  Dipole Moment: [D]
     X:    -0.3211      Y:    -1.1084      Z:    -0.0151     Total:     1.1541

*** Psi4 exiting successfully. Buy a developer a beer!
