                               Psi4 1.3.2 release

  ==> Input File <==

--------------------------------------------------------------------------
#psi4
#
memory 32 gb

molecule  {
0 1
  O       -0.8874150    -1.1053680    -0.0000120
  N       -0.2975850     1.0586860     0.0000180
  C        1.5208660    -0.6926320     0.0000250
  C        0.2132025    -0.2901148     0.0000026
  C        2.5397680     0.4426120    -0.0000230
  C       -2.0377090    -0.3588510    -0.0000130
  C       -1.6838560     0.9546860     0.0000050
  H        1.6599850    -1.3368650     0.8764330
  H        1.6599860    -1.3369460    -0.8763220
  H        2.4145620     1.0741370    -0.8814520
  H        3.5546530     0.0364140    -0.0000210
  H        2.4145820     1.0741970     0.8813660
  H       -2.9679600    -0.9049730    -0.0000050
  H       -2.3195540     1.8284960    -0.0000070
units angstrom
no_reorient  #important for SAPT in psi4, default
symmetry c1  #important for SAPT in psi4, default
}

set PROPERTIES_ORIGIN ["COM"]
properties('MP2/aug-cc-pvtz', properties = ['dipole'])
--------------------------------------------------------------------------

    Molecular point group: c1
  Charge       = 0
  Multiplicity = 1
  Basis Set: AUG-CC-PVTZ
    Blend: AUG-CC-PVTZ
  Basis Set: (AUG-CC-PVTZ AUX)
    Blend: AUG-CC-PVTZ-JKFIT

    Orbital Energies [Eh]
    ---------------------

    Doubly Occupied:

       1A    -20.637941     2A    -15.561293     3A    -11.350400
       4A    -11.286044     5A    -11.257520     6A    -11.249022
       7A    -11.228151     8A     -1.469113     9A     -1.182750
      10A     -1.112430    11A     -0.993939    12A     -0.904600
      13A     -0.816090    14A     -0.775256    15A     -0.714926
      16A     -0.671771    17A     -0.644585    18A     -0.611779
      19A     -0.585988    20A     -0.561961    21A     -0.543306
      22A     -0.519309    23A     -0.514676    24A     -0.433812
      25A     -0.428635    26A     -0.314095

  @DF-RHF Final Energy:  -322.78573309014871

   => Energetics <=

    Nuclear Repulsion Energy =            291.3705598519177897
    One-Electron Energy =               -1015.5738000438202562
    Two-Electron Energy =                 401.4175071017538130
    Total Energy =                       -322.7857330901487103
  Basis Set: (AUG-CC-PVTZ AUX)
    Blend: AUG-CC-PVTZ-RI
    Molecular point group: c1

    Geometry (in Angstrom), charge = 0, multiplicity = 1:

       Center              X                  Y                   Z               Mass
    ------------   -----------------  -----------------  -----------------  -----------------
         O           -0.833140270137    -1.087345367312    -0.000012115955    15.994914619570
         N           -0.243310270137     1.076708632688     0.000017884045    14.003074004430
         C            1.575140729863    -0.674609367312     0.000024884045    12.000000000000
         C            0.267477229863    -0.272092167312     0.000002484045    12.000000000000
         C            2.594042729863     0.460634632688    -0.000023115955    12.000000000000
         C           -1.983434270137    -0.340828367312    -0.000013115955    12.000000000000
         C           -1.629581270137     0.972708632688     0.000004884045    12.000000000000
         H            1.714259729863    -1.318842367312     0.876432884045     1.007825032230
         H            1.714260729863    -1.318923367312    -0.876322115955     1.007825032230
         H            2.468836729863     1.092159632688    -0.881452115955     1.007825032230
         H            3.608927729863     0.054436632688    -0.000021115955     1.007825032230
         H            2.468856729863     1.092219632688     0.881365884045     1.007825032230
         H           -2.913685270137    -0.886950367312    -0.000005115955     1.007825032230
         H           -2.265279270137     1.846518632688    -0.000007115955     1.007825032230

  Basis Set: AUG-CC-PVTZ
    Blend: AUG-CC-PVTZ
  Basis Set: (AUG-CC-PVTZ AUX)
    Blend: AUG-CC-PVTZ-JKFIT
	 Reference Energy          =    -322.7857330901487103 [Eh]
	 Singles Energy            =      -0.0000000000000000 [Eh]
	 Same-Spin Energy          =      -0.3408294953089374 [Eh]
	 Opposite-Spin Energy      =      -1.0693278821743315 [Eh]
	 Correlation Energy        =      -1.4101573774832690 [Eh]
	 Total Energy              =    -324.1958904676319548 [Eh]

	 ================> DF-SCS-MP2 Energies <==================
	-----------------------------------------------------------
	 SCS Same-Spin Scale       =       0.3333333333333333 [-]
	 SCS Opposite-Spin Scale   =       1.2000000000000000 [-]
	 SCS Same-Spin Energy      =      -0.1136098317696458 [Eh]
	 SCS Opposite-Spin Energy  =      -1.2831934586091978 [Eh]
	 SCS Correlation Energy    =      -1.3968032903788437 [Eh]
	 SCS Total Energy          =    -324.1825363805275515 [Eh]
	-----------------------------------------------------------

  Dipole Moment: [D]
     X:    -0.1477      Y:    -1.4189      Z:    -0.0000     Total:     1.4266

*** Psi4 exiting successfully. Buy a developer a beer!
