                               Psi4 1.4a3.dev225

  ==> Input File <==

--------------------------------------------------------------------------
#psi4
#
memory 32 gb

molecule  {
0 1
  O       -0.8874150    -1.1053680    -0.0000120
  N       -0.2975850     1.0586860     0.0000180
  C        1.5208660    -0.6926320     0.0000250
  C        0.1380013    -0.2268906     0.0000024
  C        2.5397680     0.4426120    -0.0000230
  C       -2.0377090    -0.3588510    -0.0000130
  C       -1.6838560     0.9546860     0.0000050
  H        1.6599850    -1.3368650     0.8764330
  H        1.6599860    -1.3369460    -0.8763220
  H        2.4145620     1.0741370    -0.8814520
  H        3.5546530     0.0364140    -0.0000210
  H        2.4145820     1.0741970     0.8813660
  H       -2.9679600    -0.9049730    -0.0000050
  H       -2.3195540     1.8284960    -0.0000070
units angstrom
no_reorient  #important for SAPT in psi4, default
symmetry c1  #important for SAPT in psi4, default
}

set PROPERTIES_ORIGIN ["COM"]
properties('MP2/aug-cc-pvtz', properties = ['dipole'])
--------------------------------------------------------------------------

    Molecular point group: c1
  Charge       = 0
  Multiplicity = 1
  Basis Set: AUG-CC-PVTZ
    Blend: AUG-CC-PVTZ
  Basis Set: (AUG-CC-PVTZ AUX)
    Blend: AUG-CC-PVTZ-JKFIT

    Orbital Energies [Eh]
    ---------------------

    Doubly Occupied:

       1A    -20.639121     2A    -15.560522     3A    -11.342279
       4A    -11.288644     5A    -11.260205     6A    -11.249121
       7A    -11.222666     8A     -1.482507     9A     -1.209063
      10A     -1.089914    11A     -0.996973    12A     -0.889259
      13A     -0.826249    14A     -0.781186    15A     -0.717142
      16A     -0.670504    17A     -0.634518    18A     -0.611267
      19A     -0.583192    20A     -0.570137    21A     -0.533840
      22A     -0.515603    23A     -0.507265    24A     -0.450661
      25A     -0.441268    26A     -0.326685

  @DF-RHF Final Energy:  -322.82081063314945

   => Energetics <=

    Nuclear Repulsion Energy =            292.0886409313892500
    One-Electron Energy =               -1017.0193219680852508
    Two-Electron Energy =                 402.1098704035465516
    Total Energy =                       -322.8208106331494491
  Basis Set: (AUG-CC-PVTZ AUX)
    Blend: AUG-CC-PVTZ-RI
    Molecular point group: c1

    Geometry (in Angstrom), charge = 0, multiplicity = 1:

       Center              X                  Y                   Z               Mass
    ------------   -----------------  -----------------  -----------------  -----------------
         O           -0.823842086714    -1.095162665551    -0.000012091226    15.994914619570
         N           -0.234012086714     1.068891334449     0.000017908774    14.003074004430
         C            1.584438913286    -0.682426665551     0.000024908774    12.000000000000
         C            0.201574213286    -0.216685265551     0.000002308774    12.000000000000
         C            2.603340913286     0.452817334449    -0.000023091226    12.000000000000
         C           -1.974136086714    -0.348645665551    -0.000013091226    12.000000000000
         C           -1.620283086714     0.964891334449     0.000004908774    12.000000000000
         H            1.723557913286    -1.326659665551     0.876432908774     1.007825032230
         H            1.723558913286    -1.326740665551    -0.876322091226     1.007825032230
         H            2.478134913286     1.084342334449    -0.881452091226     1.007825032230
         H            3.618225913286     0.046619334449    -0.000021091226     1.007825032230
         H            2.478154913286     1.084402334449     0.881365908774     1.007825032230
         H           -2.904387086714    -0.894767665551    -0.000005091226     1.007825032230
         H           -2.255981086714     1.838701334449    -0.000007091226     1.007825032230

  Basis Set: AUG-CC-PVTZ
    Blend: AUG-CC-PVTZ
  Basis Set: (AUG-CC-PVTZ AUX)
    Blend: AUG-CC-PVTZ-JKFIT
	 Reference Energy          =    -322.8208106331494491 [Eh]
	 Singles Energy            =      -0.0000000000000000 [Eh]
	 Same-Spin Energy          =      -0.3370231681078661 [Eh]
	 Opposite-Spin Energy      =      -1.0634436892428125 [Eh]
	 Correlation Energy        =      -1.4004668573506787 [Eh]
	 Total Energy              =    -324.2212774905001424 [Eh]

	 ================> DF-SCS-MP2 Energies <==================
	-----------------------------------------------------------
	 SCS Same-Spin Scale       =       0.3333333333333333 [-]
	 SCS Opposite-Spin Scale   =       1.2000000000000000 [-]
	 SCS Same-Spin Energy      =      -0.1123410560359554 [Eh]
	 SCS Opposite-Spin Energy  =      -1.2761324270913750 [Eh]
	 SCS Correlation Energy    =      -1.3884734831273304 [Eh]
	 SCS Total Energy          =    -324.2092841162767627 [Eh]
	-----------------------------------------------------------

  Dipole Moment: [D]
     X:    -0.3439      Y:    -1.2998      Z:    -0.0000     Total:     1.3445

*** Psi4 exiting successfully. Buy a developer a beer!
