                               Psi4 1.3.2 release

  ==> Input File <==

--------------------------------------------------------------------------
#psi4
#
memory 32 gb

molecule  {
0 1
  O       -0.8874150    -1.1053680    -0.0000120
  N       -0.2996112     1.0828639     0.0000183
  C        1.5208660    -0.6926320     0.0000250
  C        0.1219560    -0.1795350     0.0000030
  C        2.5397680     0.4426120    -0.0000230
  C       -2.0377090    -0.3588510    -0.0000130
  C       -1.6838560     0.9546860     0.0000050
  H        1.6599850    -1.3368650     0.8764330
  H        1.6599860    -1.3369460    -0.8763220
  H        2.4145620     1.0741370    -0.8814520
  H        3.5546530     0.0364140    -0.0000210
  H        2.4145820     1.0741970     0.8813660
  H       -2.9679600    -0.9049730    -0.0000050
  H       -2.3195540     1.8284960    -0.0000070
units angstrom
no_reorient  #important for SAPT in psi4, default
symmetry c1  #important for SAPT in psi4, default
}

set PROPERTIES_ORIGIN ["COM"]
properties('MP2/aug-cc-pvtz', properties = ['dipole'])
--------------------------------------------------------------------------

    Molecular point group: c1
  Charge       = 0
  Multiplicity = 1
  Basis Set: AUG-CC-PVTZ
    Blend: AUG-CC-PVTZ
  Basis Set: (AUG-CC-PVTZ AUX)
    Blend: AUG-CC-PVTZ-JKFIT

    Orbital Energies [Eh]
    ---------------------

    Doubly Occupied:

       1A    -20.637130     2A    -15.564349     3A    -11.342425
       4A    -11.290082     5A    -11.260694     6A    -11.249737
       7A    -11.221276     8A     -1.476776     9A     -1.221329
      10A     -1.083060    11A     -0.995953    12A     -0.884679
      13A     -0.825703    14A     -0.782288    15A     -0.716476
      16A     -0.666900    17A     -0.630629    18A     -0.609808
      19A     -0.580978    20A     -0.573154    21A     -0.527380
      22A     -0.514896    23A     -0.505486    24A     -0.459819
      25A     -0.447802    26A     -0.329900

  @DF-RHF Final Energy:  -322.82403145622231

   => Energetics <=

    Nuclear Repulsion Energy =            291.7541187285631850
    One-Electron Energy =               -1016.3588881174570133
    Two-Electron Energy =                 401.7807379326715136
    Total Energy =                       -322.8240314562223148
  Basis Set: (AUG-CC-PVTZ AUX)
    Blend: AUG-CC-PVTZ-RI
    Molecular point group: c1

    Geometry (in Angstrom), charge = 0, multiplicity = 1:

       Center              X                  Y                   Z               Mass
    ------------   -----------------  -----------------  -----------------  -----------------
         O           -0.821565833882    -1.104506367750    -0.000012208698    15.994914619570
         N           -0.233762033882     1.083725532250     0.000018091302    14.003074004430
         C            1.586715166118    -0.691770367750     0.000024791302    12.000000000000
         C            0.187805166118    -0.178673367750     0.000002791302    12.000000000000
         C            2.605617166118     0.443473632250    -0.000023208698    12.000000000000
         C           -1.971859833882    -0.357989367750    -0.000013208698    12.000000000000
         C           -1.618006833882     0.955547632250     0.000004791302    12.000000000000
         H            1.725834166118    -1.336003367750     0.876432791302     1.007825032230
         H            1.725835166118    -1.336084367750    -0.876322208698     1.007825032230
         H            2.480411166118     1.074998632250    -0.881452208698     1.007825032230
         H            3.620502166118     0.037275632250    -0.000021208698     1.007825032230
         H            2.480431166118     1.075058632250     0.881365791302     1.007825032230
         H           -2.902110833882    -0.904111367750    -0.000005208698     1.007825032230
         H           -2.253704833882     1.829357632250    -0.000007208698     1.007825032230

  Basis Set: AUG-CC-PVTZ
    Blend: AUG-CC-PVTZ
  Basis Set: (AUG-CC-PVTZ AUX)
    Blend: AUG-CC-PVTZ-JKFIT
	 Reference Energy          =    -322.8240314562223148 [Eh]
	 Singles Energy            =      -0.0000000000000000 [Eh]
	 Same-Spin Energy          =      -0.3363563396439746 [Eh]
	 Opposite-Spin Energy      =      -1.0631260017462867 [Eh]
	 Correlation Energy        =      -1.3994823413902613 [Eh]
	 Total Energy              =    -324.2235137976125543 [Eh]

	 ================> DF-SCS-MP2 Energies <==================
	-----------------------------------------------------------
	 SCS Same-Spin Scale       =       0.3333333333333333 [-]
	 SCS Opposite-Spin Scale   =       1.2000000000000000 [-]
	 SCS Same-Spin Energy      =      -0.1121187798813249 [Eh]
	 SCS Opposite-Spin Energy  =      -1.2757512020955439 [Eh]
	 SCS Correlation Energy    =      -1.3878699819768687 [Eh]
	 SCS Total Energy          =    -324.2119014381991633 [Eh]
	-----------------------------------------------------------

  Dipole Moment: [D]
     X:    -0.3625      Y:    -1.2378      Z:    -0.0000     Total:     1.2898

*** Psi4 exiting successfully. Buy a developer a beer!
