                               Psi4 1.4a3.dev225

  ==> Input File <==

--------------------------------------------------------------------------
#psi4
#
memory 32 gb

molecule  {
0 1
  O       -0.8874150    -1.1053680    -0.0000120
  N       -0.2975850     1.0586860     0.0000180
  C        1.5208660    -0.6926320     0.0000250
  C        0.1219560    -0.1795350     0.0000030
  C        2.5397680     0.4426120    -0.0000230
  C       -2.0377090    -0.3588510    -0.0000130
  C       -1.6838560     0.9546860     0.0000050
  H        1.6599850    -1.3368650     0.8764330
  H        1.6599860    -1.3369460    -0.8763220
  H        2.4145620     1.0741370    -0.8814520
  H        3.5546530     0.0364140    -0.0000210
  H        2.4145820     1.0741970     0.8813660
  H       -2.9852075    -0.9150985    -0.0000049
  H       -2.3195540     1.8284960    -0.0000070
units angstrom
no_reorient  #important for SAPT in psi4, default
symmetry c1  #important for SAPT in psi4, default
}

set PROPERTIES_ORIGIN ["COM"]
properties('MP2/aug-cc-pvtz', properties = ['dipole'])
--------------------------------------------------------------------------

    Molecular point group: c1
  Charge       = 0
  Multiplicity = 1
  Basis Set: AUG-CC-PVTZ
    Blend: AUG-CC-PVTZ
  Basis Set: (AUG-CC-PVTZ AUX)
    Blend: AUG-CC-PVTZ-JKFIT

    Orbital Energies [Eh]
    ---------------------

    Doubly Occupied:

       1A    -20.634445     2A    -15.560805     3A    -11.337850
       4A    -11.292962     5A    -11.260716     6A    -11.248796
       7A    -11.220866     8A     -1.476704     9A     -1.226390
      10A     -1.082598    11A     -0.996478    12A     -0.884123
      13A     -0.826208    14A     -0.780403    15A     -0.715580
      16A     -0.667285    17A     -0.627875    18A     -0.609251
      19A     -0.585073    20A     -0.571582    21A     -0.526614
      22A     -0.514697    23A     -0.504984    24A     -0.457001
      25A     -0.449508    26A     -0.332049

  @DF-RHF Final Energy:  -322.82638489178123

   => Energetics <=

    Nuclear Repulsion Energy =            292.2439733924160805
    One-Electron Energy =               -1017.3590289276816065
    Two-Electron Energy =                 402.2886706434843518
    Total Energy =                       -322.8263848917812311
  Basis Set: (AUG-CC-PVTZ AUX)
    Blend: AUG-CC-PVTZ-RI
    Molecular point group: c1

    Geometry (in Angstrom), charge = 0, multiplicity = 1:

       Center              X                  Y                   Z               Mass
    ------------   -----------------  -----------------  -----------------  -----------------
         O           -0.821679077090    -1.100912759062    -0.000012166451    15.994914619570
         N           -0.231849077090     1.063141240938     0.000017833549    14.003074004430
         C            1.586601922910    -0.688176759062     0.000024833549    12.000000000000
         C            0.187691922910    -0.175079759062     0.000002833549    12.000000000000
         C            2.605503922910     0.447067240938    -0.000023166451    12.000000000000
         C           -1.971973077090    -0.354395759062    -0.000013166451    12.000000000000
         C           -1.618120077090     0.959141240938     0.000004833549    12.000000000000
         H            1.725720922910    -1.332409759062     0.876432833549     1.007825032230
         H            1.725721922910    -1.332490759062    -0.876322166451     1.007825032230
         H            2.480297922910     1.078592240938    -0.881452166451     1.007825032230
         H            3.620388922910     0.040869240938    -0.000021166451     1.007825032230
         H            2.480317922910     1.078652240938     0.881365833549     1.007825032230
         H           -2.919471577090    -0.910643259062    -0.000005066451     1.007825032230
         H           -2.253818077090     1.832951240938    -0.000007166451     1.007825032230

  Basis Set: AUG-CC-PVTZ
    Blend: AUG-CC-PVTZ
  Basis Set: (AUG-CC-PVTZ AUX)
    Blend: AUG-CC-PVTZ-JKFIT
	 Reference Energy          =    -322.8263848917812311 [Eh]
	 Singles Energy            =      -0.0000000000000000 [Eh]
	 Same-Spin Energy          =      -0.3358155150981612 [Eh]
	 Opposite-Spin Energy      =      -1.0620539783816911 [Eh]
	 Correlation Energy        =      -1.3978694934798523 [Eh]
	 Total Energy              =    -324.2242543852610765 [Eh]

	 ================> DF-SCS-MP2 Energies <==================
	-----------------------------------------------------------
	 SCS Same-Spin Scale       =       0.3333333333333333 [-]
	 SCS Opposite-Spin Scale   =       1.2000000000000000 [-]
	 SCS Same-Spin Energy      =      -0.1119385050327204 [Eh]
	 SCS Opposite-Spin Energy  =      -1.2744647740580293 [Eh]
	 SCS Correlation Energy    =      -1.3864032790907497 [Eh]
	 SCS Total Energy          =    -324.2127881708719883 [Eh]
	-----------------------------------------------------------

  Dipole Moment: [D]
     X:    -0.3686      Y:    -1.1857      Z:    -0.0000     Total:     1.2417

*** Psi4 exiting successfully. Buy a developer a beer!
