                               Psi4 1.3.2 release

  ==> Input File <==

--------------------------------------------------------------------------
#psi4
#
memory 32 gb

molecule  {
0 1
  O       -0.8874150    -1.1053680    -0.0000120
  N       -0.2975850     1.0586860     0.0000180
  C        1.5208660    -0.6926320     0.0000250
  C       -0.0254329    -0.3147256     0.0000008
  C        2.5397680     0.4426120    -0.0000230
  C       -2.0377090    -0.3588510    -0.0000130
  C       -1.6838560     0.9546860     0.0000050
  H        1.6599850    -1.3368650     0.8764330
  H        1.6599860    -1.3369460    -0.8763220
  H        2.4145620     1.0741370    -0.8814520
  H        3.5546530     0.0364140    -0.0000210
  H        2.4145820     1.0741970     0.8813660
  H       -2.9679600    -0.9049730    -0.0000050
  H       -2.3195540     1.8284960    -0.0000070
units angstrom
no_reorient  #important for SAPT in psi4, default
symmetry c1  #important for SAPT in psi4, default
}

set PROPERTIES_ORIGIN ["COM"]
properties('MP2/aug-cc-pvtz', properties = ['dipole'])
--------------------------------------------------------------------------

    Molecular point group: c1
  Charge       = 0
  Multiplicity = 1
  Basis Set: AUG-CC-PVTZ
    Blend: AUG-CC-PVTZ
  Basis Set: (AUG-CC-PVTZ AUX)
    Blend: AUG-CC-PVTZ-JKFIT

    Orbital Energies [Eh]
    ---------------------

    Doubly Occupied:

       1A    -20.670767     2A    -15.550307     3A    -11.344043
       4A    -11.281745     5A    -11.267851     6A    -11.249490
       7A    -11.217909     8A     -1.586545     9A     -1.209101
      10A     -1.074597    11A     -1.005728    12A     -0.876128
      13A     -0.854340    14A     -0.803771    15A     -0.724364
      16A     -0.719537    17A     -0.629784    18A     -0.610256
      19A     -0.606453    20A     -0.556875    21A     -0.527902
      22A     -0.498889    23A     -0.478999    24A     -0.453824
      25A     -0.444655    26A     -0.326800

  @DF-RHF Final Energy:  -322.77859282514271

   => Energetics <=

    Nuclear Repulsion Energy =            293.7461792273447827
    One-Electron Energy =               -1019.9082229268159381
    Two-Electron Energy =                 403.3834508743284459
    Total Energy =                       -322.7785928251427094
  Basis Set: (AUG-CC-PVTZ AUX)
    Blend: AUG-CC-PVTZ-RI
    Molecular point group: c1

    Geometry (in Angstrom), charge = 0, multiplicity = 1:

       Center              X                  Y                   Z               Mass
    ------------   -----------------  -----------------  -----------------  -----------------
         O           -0.803634414905    -1.084302387511    -0.000011893396    15.994914619570
         N           -0.213804414905     1.079751612489     0.000018106604    14.003074004430
         C            1.604646585095    -0.671566387511     0.000025106604    12.000000000000
         C            0.058347685095    -0.293659987511     0.000000906604    12.000000000000
         C            2.623548585095     0.463677612489    -0.000022893396    12.000000000000
         C           -1.953928414905    -0.337785387511    -0.000012893396    12.000000000000
         C           -1.600075414905     0.975751612489     0.000005106604    12.000000000000
         H            1.743765585095    -1.315799387511     0.876433106604     1.007825032230
         H            1.743766585095    -1.315880387511    -0.876321893396     1.007825032230
         H            2.498342585095     1.095202612489    -0.881451893396     1.007825032230
         H            3.638433585095     0.057479612489    -0.000020893396     1.007825032230
         H            2.498362585095     1.095262612489     0.881366106604     1.007825032230
         H           -2.884179414905    -0.883907387511    -0.000004893396     1.007825032230
         H           -2.235773414905     1.849561612489    -0.000006893396     1.007825032230

  Basis Set: AUG-CC-PVTZ
    Blend: AUG-CC-PVTZ
  Basis Set: (AUG-CC-PVTZ AUX)
    Blend: AUG-CC-PVTZ-JKFIT
	 Reference Energy          =    -322.7785928251427094 [Eh]
	 Singles Energy            =      -0.0000000000000000 [Eh]
	 Same-Spin Energy          =      -0.3351406487068506 [Eh]
	 Opposite-Spin Energy      =      -1.0592798189669965 [Eh]
	 Correlation Energy        =      -1.3944204676738470 [Eh]
	 Total Energy              =    -324.1730132928165631 [Eh]

	 ================> DF-SCS-MP2 Energies <==================
	-----------------------------------------------------------
	 SCS Same-Spin Scale       =       0.3333333333333333 [-]
	 SCS Opposite-Spin Scale   =       1.2000000000000000 [-]
	 SCS Same-Spin Energy      =      -0.1117135495689502 [Eh]
	 SCS Opposite-Spin Energy  =      -1.2711357827603957 [Eh]
	 SCS Correlation Energy    =      -1.3828493323293460 [Eh]
	 SCS Total Energy          =    -324.1614421574720382 [Eh]
	-----------------------------------------------------------

  Dipole Moment: [D]
     X:    -0.7697      Y:    -1.5740      Z:    -0.0000     Total:     1.7521

*** Psi4 exiting successfully. Buy a developer a beer!
