                               Psi4 1.3.2 release

  ==> Input File <==

--------------------------------------------------------------------------
#psi4
#
memory 32 gb

molecule  {
0 1
  O       -0.8874150    -1.1053680    -0.0000120
  N       -0.2975850     1.0586860     0.0000180
  C        1.5208660    -0.6926320     0.0000250
  C        0.1219560    -0.1795350     0.0000030
  C        2.5397680     0.4426120    -0.0000230
  C       -1.9452193    -0.3803348    -0.0000106
  C       -1.6838560     0.9546860     0.0000050
  H        1.6599850    -1.3368650     0.8764330
  H        1.6599860    -1.3369460    -0.8763220
  H        2.4145620     1.0741370    -0.8814520
  H        3.5546530     0.0364140    -0.0000210
  H        2.4145820     1.0741970     0.8813660
  H       -2.9679600    -0.9049730    -0.0000050
  H       -2.3195540     1.8284960    -0.0000070
units angstrom
no_reorient  #important for SAPT in psi4, default
symmetry c1  #important for SAPT in psi4, default
}

set PROPERTIES_ORIGIN ["COM"]
properties('MP2/aug-cc-pvtz', properties = ['dipole'])
--------------------------------------------------------------------------

    Molecular point group: c1
  Charge       = 0
  Multiplicity = 1
  Basis Set: AUG-CC-PVTZ
    Blend: AUG-CC-PVTZ
  Basis Set: (AUG-CC-PVTZ AUX)
    Blend: AUG-CC-PVTZ-JKFIT

    Orbital Energies [Eh]
    ---------------------

    Doubly Occupied:

       1A    -20.646541     2A    -15.562790     3A    -11.333309
       4A    -11.294580     5A    -11.252240     6A    -11.247964
       7A    -11.220334     8A     -1.517124     9A     -1.233537
      10A     -1.083608    11A     -0.994226    12A     -0.885449
      13A     -0.834402    14A     -0.790199    15A     -0.720488
      16A     -0.684592    17A     -0.630482    18A     -0.614945
      19A     -0.585446    20A     -0.567566    21A     -0.524512
      22A     -0.513823    23A     -0.505272    24A     -0.455866
      25A     -0.453070    26A     -0.324987

  @DF-RHF Final Energy:  -322.81693266382177

   => Energetics <=

    Nuclear Repulsion Energy =            294.3569330973425053
    One-Electron Energy =               -1021.3930278737884692
    Two-Electron Energy =                 404.2191621126241330
    Total Energy =                       -322.8169326638217740
  Basis Set: (AUG-CC-PVTZ AUX)
    Blend: AUG-CC-PVTZ-RI
    Molecular point group: c1

    Geometry (in Angstrom), charge = 0, multiplicity = 1:

       Center              X                  Y                   Z               Mass
    ------------   -----------------  -----------------  -----------------  -----------------
         O           -0.833293984461    -1.098361560541    -0.000012462158    15.994914619570
         N           -0.243463984461     1.065692439459     0.000017537842    14.003074004430
         C            1.574987015539    -0.685625560541     0.000024537842    12.000000000000
         C            0.176077015539    -0.172528560541     0.000002537842    12.000000000000
         C            2.593889015539     0.449618439459    -0.000023462158    12.000000000000
         C           -1.891098284461    -0.373328360541    -0.000011062158    12.000000000000
         C           -1.629734984461     0.961692439459     0.000004537842    12.000000000000
         H            1.714106015539    -1.329858560541     0.876432537842     1.007825032230
         H            1.714107015539    -1.329939560541    -0.876322462158     1.007825032230
         H            2.468683015539     1.081143439459    -0.881452462158     1.007825032230
         H            3.608774015539     0.043420439459    -0.000021462158     1.007825032230
         H            2.468703015539     1.081203439459     0.881365537842     1.007825032230
         H           -2.913838984461    -0.897966560541    -0.000005462158     1.007825032230
         H           -2.265432984461     1.835502439459    -0.000007462158     1.007825032230

  Basis Set: AUG-CC-PVTZ
    Blend: AUG-CC-PVTZ
  Basis Set: (AUG-CC-PVTZ AUX)
    Blend: AUG-CC-PVTZ-JKFIT
	 Reference Energy          =    -322.8169326638217740 [Eh]
	 Singles Energy            =      -0.0000000000000000 [Eh]
	 Same-Spin Energy          =      -0.3363571902064298 [Eh]
	 Opposite-Spin Energy      =      -1.0613220919751691 [Eh]
	 Correlation Energy        =      -1.3976792821815991 [Eh]
	 Total Energy              =    -324.2146119460034015 [Eh]

	 ================> DF-SCS-MP2 Energies <==================
	-----------------------------------------------------------
	 SCS Same-Spin Scale       =       0.3333333333333333 [-]
	 SCS Opposite-Spin Scale   =       1.2000000000000000 [-]
	 SCS Same-Spin Energy      =      -0.1121190634021433 [Eh]
	 SCS Opposite-Spin Energy  =      -1.2735865103702029 [Eh]
	 SCS Correlation Energy    =      -1.3857055737723463 [Eh]
	 SCS Total Energy          =    -324.2026382375941012 [Eh]
	-----------------------------------------------------------

  Dipole Moment: [D]
     X:    -0.2695      Y:    -1.2598      Z:    -0.0000     Total:     1.2883

*** Psi4 exiting successfully. Buy a developer a beer!
