                               Psi4 1.3.2 release

  ==> Input File <==

--------------------------------------------------------------------------
#psi4
#
memory 32 gb

molecule  {
0 1
  O       -0.8874150    -1.1053680    -0.0000120
  N       -0.2975850     1.0586860     0.0000180
  C        1.5208660    -0.6926320     0.0000250
  C        0.0549144    -0.1113801     0.0000032
  C        2.5397680     0.4426120    -0.0000230
  C       -2.0377090    -0.3588510    -0.0000130
  C       -1.6838560     0.9546860     0.0000050
  H        1.6599850    -1.3368650     0.8764330
  H        1.6599860    -1.3369460    -0.8763220
  H        2.4145620     1.0741370    -0.8814520
  H        3.5546530     0.0364140    -0.0000210
  H        2.4145820     1.0741970     0.8813660
  H       -2.9679600    -0.9049730    -0.0000050
  H       -2.3195540     1.8284960    -0.0000070
units angstrom
no_reorient  #important for SAPT in psi4, default
symmetry c1  #important for SAPT in psi4, default
}

set PROPERTIES_ORIGIN ["COM"]
properties('MP2/aug-cc-pvtz', properties = ['dipole'])
--------------------------------------------------------------------------

    Molecular point group: c1
  Charge       = 0
  Multiplicity = 1
  Basis Set: AUG-CC-PVTZ
    Blend: AUG-CC-PVTZ
  Basis Set: (AUG-CC-PVTZ AUX)
    Blend: AUG-CC-PVTZ-JKFIT

    Orbital Energies [Eh]
    ---------------------

    Doubly Occupied:

       1A    -20.632207     2A    -15.557644     3A    -11.329236
       4A    -11.294031     5A    -11.263722     6A    -11.247004
       7A    -11.216391     8A     -1.483239     9A     -1.263794
      10A     -1.067020    11A     -0.998448    12A     -0.872341
      13A     -0.834650    14A     -0.782889    15A     -0.719199
      16A     -0.669538    17A     -0.624870    18A     -0.605961
      19A     -0.587823    20A     -0.575426    21A     -0.517897
      22A     -0.503532    23A     -0.498929    24A     -0.468205
      25A     -0.464108    26A     -0.341393

  @DF-RHF Final Energy:  -322.81829741118929

   => Energetics <=

    Nuclear Repulsion Energy =            293.2261569793720923
    One-Electron Energy =               -1019.2499135014531930
    Two-Electron Energy =                 403.2054591108918657
    Total Energy =                       -322.8182974111892918
  Basis Set: (AUG-CC-PVTZ AUX)
    Blend: AUG-CC-PVTZ-RI
    Molecular point group: c1

    Geometry (in Angstrom), charge = 0, multiplicity = 1:

       Center              X                  Y                   Z               Mass
    ------------   -----------------  -----------------  -----------------  -----------------
         O           -0.813568883144    -1.109444855414    -0.000012190141    15.994914619570
         N           -0.223738883144     1.054609144586     0.000017809859    14.003074004430
         C            1.594712116856    -0.696708855414     0.000024809859    12.000000000000
         C            0.128760516856    -0.115456955414     0.000003009859    12.000000000000
         C            2.613614116856     0.438535144586    -0.000023190141    12.000000000000
         C           -1.963862883144    -0.362927855414    -0.000013190141    12.000000000000
         C           -1.610009883144     0.950609144586     0.000004809859    12.000000000000
         H            1.733831116856    -1.340941855414     0.876432809859     1.007825032230
         H            1.733832116856    -1.341022855414    -0.876322190141     1.007825032230
         H            2.488408116856     1.070060144586    -0.881452190141     1.007825032230
         H            3.628499116856     0.032337144586    -0.000021190141     1.007825032230
         H            2.488428116856     1.070120144586     0.881365809859     1.007825032230
         H           -2.894113883144    -0.909049855414    -0.000005190141     1.007825032230
         H           -2.245707883144     1.824419144586    -0.000007190141     1.007825032230

  Basis Set: AUG-CC-PVTZ
    Blend: AUG-CC-PVTZ
  Basis Set: (AUG-CC-PVTZ AUX)
    Blend: AUG-CC-PVTZ-JKFIT
	 Reference Energy          =    -322.8182974111892918 [Eh]
	 Singles Energy            =      -0.0000000000000000 [Eh]
	 Same-Spin Energy          =      -0.3336083911607534 [Eh]
	 Opposite-Spin Energy      =      -1.0591350790894269 [Eh]
	 Correlation Energy        =      -1.3927434702501804 [Eh]
	 Total Energy              =    -324.2110408814394873 [Eh]

	 ================> DF-SCS-MP2 Energies <==================
	-----------------------------------------------------------
	 SCS Same-Spin Scale       =       0.3333333333333333 [-]
	 SCS Opposite-Spin Scale   =       1.2000000000000000 [-]
	 SCS Same-Spin Energy      =      -0.1112027970535845 [Eh]
	 SCS Opposite-Spin Energy  =      -1.2709620949073124 [Eh]
	 SCS Correlation Energy    =      -1.3821648919608969 [Eh]
	 SCS Total Energy          =    -324.2004623031501751 [Eh]
	-----------------------------------------------------------

  Dipole Moment: [D]
     X:    -0.5588      Y:    -0.9868      Z:    -0.0000     Total:     1.1340

*** Psi4 exiting successfully. Buy a developer a beer!
