                               Psi4 1.3.2 release

  ==> Input File <==

--------------------------------------------------------------------------
#psi4
#
memory 32 gb

molecule  {
0 1
  O       -0.8874150    -1.1053680    -0.0000120
  N       -0.2975850     1.0586860     0.0000180
  C        1.5208660    -0.6926320     0.0000250
  C        0.1219560    -0.1795350     0.0000030
  C        2.5397680     0.4426120    -0.0000230
  C       -2.0147307    -0.3648265    -0.0000124
  C       -1.6838560     0.9546860     0.0000050
  H        1.6599850    -1.3368650     0.8764330
  H        1.6599860    -1.3369460    -0.8763220
  H        2.4145620     1.0741370    -0.8814520
  H        3.5546530     0.0364140    -0.0000210
  H        2.4145820     1.0741970     0.8813660
  H       -2.9679600    -0.9049730    -0.0000050
  H       -2.3195540     1.8284960    -0.0000070
units angstrom
no_reorient  #important for SAPT in psi4, default
symmetry c1  #important for SAPT in psi4, default
}

set PROPERTIES_ORIGIN ["COM"]
properties('MP2/aug-cc-pvtz', properties = ['dipole'])
--------------------------------------------------------------------------

    Molecular point group: c1
  Charge       = 0
  Multiplicity = 1
  Basis Set: AUG-CC-PVTZ
    Blend: AUG-CC-PVTZ
  Basis Set: (AUG-CC-PVTZ AUX)
    Blend: AUG-CC-PVTZ-JKFIT

    Orbital Energies [Eh]
    ---------------------

    Doubly Occupied:

       1A    -20.637335     2A    -15.561137     3A    -11.336697
       4A    -11.291450     5A    -11.258459     6A    -11.248561
       7A    -11.220711     8A     -1.485826     9A     -1.227958
      10A     -1.082903    11A     -0.996291    12A     -0.884261
      13A     -0.828703    14A     -0.782836    15A     -0.717947
      16A     -0.670850    17A     -0.628962    18A     -0.610826
      19A     -0.584923    20A     -0.573088    21A     -0.526588
      22A     -0.514462    23A     -0.505027    24A     -0.456838
      25A     -0.450264    26A     -0.330259

  @DF-RHF Final Energy:  -322.82673769148784

   => Energetics <=

    Nuclear Repulsion Energy =            292.8274636854063147
    One-Electron Energy =               -1018.4820708359682158
    Two-Electron Energy =                 402.8278694590740656
    Total Energy =                       -322.8267376914878355
  Basis Set: (AUG-CC-PVTZ AUX)
    Blend: AUG-CC-PVTZ-RI
    Molecular point group: c1

    Geometry (in Angstrom), charge = 0, multiplicity = 1:

       Center              X                  Y                   Z               Mass
    ------------   -----------------  -----------------  -----------------  -----------------
         O           -0.824699311142    -1.100279070075    -0.000012239599    15.994914619570
         N           -0.234869311142     1.063774929925     0.000017760401    14.003074004430
         C            1.583581688858    -0.687543070075     0.000024760401    12.000000000000
         C            0.184671688858    -0.174446070075     0.000002760401    12.000000000000
         C            2.602483688858     0.447700929925    -0.000023239599    12.000000000000
         C           -1.952015011142    -0.359737570075    -0.000012639599    12.000000000000
         C           -1.621140311142     0.959774929925     0.000004760401    12.000000000000
         H            1.722700688858    -1.331776070075     0.876432760401     1.007825032230
         H            1.722701688858    -1.331857070075    -0.876322239599     1.007825032230
         H            2.477277688858     1.079225929925    -0.881452239599     1.007825032230
         H            3.617368688858     0.041502929925    -0.000021239599     1.007825032230
         H            2.477297688858     1.079285929925     0.881365760401     1.007825032230
         H           -2.905244311142    -0.899884070075    -0.000005239599     1.007825032230
         H           -2.256838311142     1.833584929925    -0.000007239599     1.007825032230

  Basis Set: AUG-CC-PVTZ
    Blend: AUG-CC-PVTZ
  Basis Set: (AUG-CC-PVTZ AUX)
    Blend: AUG-CC-PVTZ-JKFIT
	 Reference Energy          =    -322.8267376914878355 [Eh]
	 Singles Energy            =      -0.0000000000000000 [Eh]
	 Same-Spin Energy          =      -0.3358903167685096 [Eh]
	 Opposite-Spin Energy      =      -1.0616855733459580 [Eh]
	 Correlation Energy        =      -1.3975758901144677 [Eh]
	 Total Energy              =    -324.2243135816023027 [Eh]

	 ================> DF-SCS-MP2 Energies <==================
	-----------------------------------------------------------
	 SCS Same-Spin Scale       =       0.3333333333333333 [-]
	 SCS Opposite-Spin Scale   =       1.2000000000000000 [-]
	 SCS Same-Spin Energy      =      -0.1119634389228365 [Eh]
	 SCS Opposite-Spin Energy  =      -1.2740226880151495 [Eh]
	 SCS Correlation Energy    =      -1.3859861269379861 [Eh]
	 SCS Total Energy          =    -324.2127238184258431 [Eh]
	-----------------------------------------------------------

  Dipole Moment: [D]
     X:    -0.3473      Y:    -1.2026      Z:    -0.0000     Total:     1.2517

*** Psi4 exiting successfully. Buy a developer a beer!
