                               Psi4 1.3.2 release

  ==> Input File <==

--------------------------------------------------------------------------
#psi4
#
memory 32 gb

molecule  {
0 1
  O       -0.8874150    -1.1053680    -0.0000120
  N       -0.2975850     1.0586860     0.0000180
  C        1.5208660    -0.6926320     0.0000250
  C        0.1219560    -0.1795350     0.0000030
  C        2.5397680     0.4426120    -0.0000230
  C       -2.0605795    -0.3524754    -0.0000136
  C       -1.6838560     0.9546860     0.0000050
  H        1.6599850    -1.3368650     0.8764330
  H        1.6599860    -1.3369460    -0.8763220
  H        2.4145620     1.0741370    -0.8814520
  H        3.5546530     0.0364140    -0.0000210
  H        2.4145820     1.0741970     0.8813660
  H       -2.9679600    -0.9049730    -0.0000050
  H       -2.3195540     1.8284960    -0.0000070
units angstrom
no_reorient  #important for SAPT in psi4, default
symmetry c1  #important for SAPT in psi4, default
}

set PROPERTIES_ORIGIN ["COM"]
properties('MP2/aug-cc-pvtz', properties = ['dipole'])
--------------------------------------------------------------------------

    Molecular point group: c1
  Charge       = 0
  Multiplicity = 1
  Basis Set: AUG-CC-PVTZ
    Blend: AUG-CC-PVTZ
  Basis Set: (AUG-CC-PVTZ AUX)
    Blend: AUG-CC-PVTZ-JKFIT

    Orbital Energies [Eh]
    ---------------------

    Doubly Occupied:

       1A    -20.631222     2A    -15.560348     3A    -11.338875
       4A    -11.290400     5A    -11.262930     6A    -11.248965
       7A    -11.220971     8A     -1.467911     9A     -1.224791
      10A     -1.082517    11A     -0.998024    12A     -0.884165
      13A     -0.827274    14A     -0.777813    15A     -0.716390
      16A     -0.663983    17A     -0.633012    18A     -0.607468
      19A     -0.585472    20A     -0.569870    21A     -0.526685
      22A     -0.514878    23A     -0.504897    24A     -0.457117
      25A     -0.448642    26A     -0.333834

  @DF-RHF Final Energy:  -322.82606079774001

   => Energetics <=

    Nuclear Repulsion Energy =            291.8736565121007516
    One-Electron Energy =               -1016.6425210164566124
    Two-Electron Energy =                 401.9428037066158481
    Total Energy =                       -322.8260607977400127
  Basis Set: (AUG-CC-PVTZ AUX)
    Blend: AUG-CC-PVTZ-RI
    Molecular point group: c1

    Geometry (in Angstrom), charge = 0, multiplicity = 1:

       Center              X                  Y                   Z               Mass
    ------------   -----------------  -----------------  -----------------  -----------------
         O           -0.819030378304    -1.101806210510    -0.000012091226    15.994914619570
         N           -0.229200378304     1.062247789490     0.000017908774    14.003074004430
         C            1.589250621696    -0.689070210510     0.000024908774    12.000000000000
         C            0.190340621696    -0.175973210510     0.000002908774    12.000000000000
         C            2.608152621696     0.446173789490    -0.000023091226    12.000000000000
         C           -1.992194878304    -0.348913610510    -0.000013691226    12.000000000000
         C           -1.615471378304     0.958247789490     0.000004908774    12.000000000000
         H            1.728369621696    -1.333303210510     0.876432908774     1.007825032230
         H            1.728370621696    -1.333384210510    -0.876322091226     1.007825032230
         H            2.482946621696     1.077698789490    -0.881452091226     1.007825032230
         H            3.623037621696     0.039975789490    -0.000021091226     1.007825032230
         H            2.482966621696     1.077758789490     0.881365908774     1.007825032230
         H           -2.899575378304    -0.901411210510    -0.000005091226     1.007825032230
         H           -2.251169378304     1.832057789490    -0.000007091226     1.007825032230

  Basis Set: AUG-CC-PVTZ
    Blend: AUG-CC-PVTZ
  Basis Set: (AUG-CC-PVTZ AUX)
    Blend: AUG-CC-PVTZ-JKFIT
	 Reference Energy          =    -322.8260607977400127 [Eh]
	 Singles Energy            =      -0.0000000000000000 [Eh]
	 Same-Spin Energy          =      -0.3356684379569237 [Eh]
	 Opposite-Spin Energy      =      -1.0621625251772355 [Eh]
	 Correlation Energy        =      -1.3978309631341592 [Eh]
	 Total Energy              =    -324.2238917608741531 [Eh]

	 ================> DF-SCS-MP2 Energies <==================
	-----------------------------------------------------------
	 SCS Same-Spin Scale       =       0.3333333333333333 [-]
	 SCS Opposite-Spin Scale   =       1.2000000000000000 [-]
	 SCS Same-Spin Energy      =      -0.1118894793189746 [Eh]
	 SCS Opposite-Spin Energy  =      -1.2745950302126825 [Eh]
	 SCS Correlation Energy    =      -1.3864845095316571 [Eh]
	 SCS Total Energy          =    -324.2125453072716823 [Eh]
	-----------------------------------------------------------

  Dipole Moment: [D]
     X:    -0.3853      Y:    -1.1622      Z:    -0.0000     Total:     1.2244

*** Psi4 exiting successfully. Buy a developer a beer!
