                               Psi4 1.4a3.dev225

  ==> Input File <==

--------------------------------------------------------------------------
#psi4
#
memory 32 gb

molecule  {
0 1
  O       -0.8874150    -1.1053680    -0.0000120
  N       -0.2975850     1.0586860     0.0000180
  C        1.5208660    -0.6926320     0.0000250
  C        0.1219560    -0.1795350     0.0000030
  C        2.5397680     0.4426120    -0.0000230
  C       -1.9957673    -0.3860703    -0.0000130
  C       -1.6838560     0.9546860     0.0000050
  H        1.6599850    -1.3368650     0.8764330
  H        1.6599860    -1.3369460    -0.8763220
  H        2.4145620     1.0741370    -0.8814520
  H        3.5546530     0.0364140    -0.0000210
  H        2.4145820     1.0741970     0.8813660
  H       -2.9679600    -0.9049730    -0.0000050
  H       -2.3195540     1.8284960    -0.0000070
units angstrom
no_reorient  #important for SAPT in psi4, default
symmetry c1  #important for SAPT in psi4, default
}

set PROPERTIES_ORIGIN ["COM"]
properties('MP2/aug-cc-pvtz', properties = ['dipole'])
--------------------------------------------------------------------------

    Molecular point group: c1
  Charge       = 0
  Multiplicity = 1
  Basis Set: AUG-CC-PVTZ
    Blend: AUG-CC-PVTZ
  Basis Set: (AUG-CC-PVTZ AUX)
    Blend: AUG-CC-PVTZ-JKFIT

    Orbital Energies [Eh]
    ---------------------

    Doubly Occupied:

       1A    -20.641345     2A    -15.562284     3A    -11.335402
       4A    -11.293400     5A    -11.258021     6A    -11.248421
       7A    -11.220668     8A     -1.497203     9A     -1.229631
      10A     -1.082530    11A     -0.994357    12A     -0.883529
      13A     -0.832010    14A     -0.784909    15A     -0.720045
      16A     -0.675412    17A     -0.632255    18A     -0.612532
      19A     -0.584656    20A     -0.570168    21A     -0.526768
      22A     -0.514282    23A     -0.505171    24A     -0.457054
      25A     -0.450886    26A     -0.325475

  @DF-RHF Final Energy:  -322.82439443341588

   => Energetics <=

    Nuclear Repulsion Energy =            293.1566943006691872
    One-Electron Energy =               -1019.0853456642553283
    Two-Electron Energy =                 403.1042569301702656
    Total Energy =                       -322.8243944334158755
  Basis Set: (AUG-CC-PVTZ AUX)
    Blend: AUG-CC-PVTZ-RI
    Molecular point group: c1

    Geometry (in Angstrom), charge = 0, multiplicity = 1:

       Center              X                  Y                   Z               Mass
    ------------   -----------------  -----------------  -----------------  -----------------
         O           -0.827044023348    -1.097652399902    -0.000012165413    15.994914619570
         N           -0.237214023348     1.066401600098     0.000017834587    14.003074004430
         C            1.581236976652    -0.684916399902     0.000024834587    12.000000000000
         C            0.182326976652    -0.171819399902     0.000002834587    12.000000000000
         C            2.600138976652     0.450327600098    -0.000023165413    12.000000000000
         C           -1.935396323348    -0.378354699902    -0.000013165413    12.000000000000
         C           -1.623485023348     0.962401600098     0.000004834587    12.000000000000
         H            1.720355976652    -1.329149399902     0.876432834587     1.007825032230
         H            1.720356976652    -1.329230399902    -0.876322165413     1.007825032230
         H            2.474932976652     1.081852600098    -0.881452165413     1.007825032230
         H            3.615023976652     0.044129600098    -0.000021165413     1.007825032230
         H            2.474952976652     1.081912600098     0.881365834587     1.007825032230
         H           -2.907589023348    -0.897257399902    -0.000005165413     1.007825032230
         H           -2.259183023348     1.836211600098    -0.000007165413     1.007825032230

  Basis Set: AUG-CC-PVTZ
    Blend: AUG-CC-PVTZ
  Basis Set: (AUG-CC-PVTZ AUX)
    Blend: AUG-CC-PVTZ-JKFIT
	 Reference Energy          =    -322.8243944334158755 [Eh]
	 Singles Energy            =      -0.0000000000000000 [Eh]
	 Same-Spin Energy          =      -0.3362846023338417 [Eh]
	 Opposite-Spin Energy      =      -1.0618432424625601 [Eh]
	 Correlation Energy        =      -1.3981278447964018 [Eh]
	 Total Energy              =    -324.2225222782122955 [Eh]

	 ================> DF-SCS-MP2 Energies <==================
	-----------------------------------------------------------
	 SCS Same-Spin Scale       =       0.3333333333333333 [-]
	 SCS Opposite-Spin Scale   =       1.2000000000000000 [-]
	 SCS Same-Spin Energy      =      -0.1120948674446139 [Eh]
	 SCS Opposite-Spin Energy  =      -1.2742118909550721 [Eh]
	 SCS Correlation Energy    =      -1.3863067583996860 [Eh]
	 SCS Total Energy          =    -324.2107011918155877 [Eh]
	-----------------------------------------------------------

  Dipole Moment: [D]
     X:    -0.3211      Y:    -1.2461      Z:    -0.0000     Total:     1.2868

*** Psi4 exiting successfully. Buy a developer a beer!
