                               Psi4 1.4a3.dev225

  ==> Input File <==

--------------------------------------------------------------------------
#psi4
#
memory 32 gb

molecule  {
0 1
  O       -0.8874150    -1.1053680    -0.0000120
  N       -0.2975850     1.0586860     0.0000180
  C        1.5208660    -0.6926320     0.0000250
  C        0.1283741    -0.1984772     0.0000028
  C        2.5397680     0.4426120    -0.0000230
  C       -2.0377090    -0.3588510    -0.0000130
  C       -1.6838560     0.9546860     0.0000050
  H        1.6599850    -1.3368650     0.8764330
  H        1.6599860    -1.3369460    -0.8763220
  H        2.4145620     1.0741370    -0.8814520
  H        3.5546530     0.0364140    -0.0000210
  H        2.4145820     1.0741970     0.8813660
  H       -2.9679600    -0.9049730    -0.0000050
  H       -2.3195540     1.8284960    -0.0000070
units angstrom
no_reorient  #important for SAPT in psi4, default
symmetry c1  #important for SAPT in psi4, default
}

set PROPERTIES_ORIGIN ["COM"]
properties('MP2/aug-cc-pvtz', properties = ['dipole'])
--------------------------------------------------------------------------

    Molecular point group: c1
  Charge       = 0
  Multiplicity = 1
  Basis Set: AUG-CC-PVTZ
    Blend: AUG-CC-PVTZ
  Basis Set: (AUG-CC-PVTZ AUX)
    Blend: AUG-CC-PVTZ-JKFIT

    Orbital Energies [Eh]
    ---------------------

    Doubly Occupied:

       1A    -20.636261     2A    -15.560742     3A    -11.339617
       4A    -11.289970     5A    -11.260474     6A    -11.248895
       7A    -11.221554     8A     -1.478949     9A     -1.219191
      10A     -1.085530    11A     -0.997021    12A     -0.886185
      13A     -0.827055    14A     -0.780805    15A     -0.717158
      16A     -0.668462    17A     -0.632126    18A     -0.610020
      19A     -0.583900    20A     -0.571787    21A     -0.529492
      22A     -0.515247    23A     -0.505862    24A     -0.454663
      25A     -0.445980    26A     -0.329987

  @DF-RHF Final Energy:  -322.82535521575403

   => Energetics <=

    Nuclear Repulsion Energy =            292.2379929763064865
    One-Electron Energy =               -1017.3328270435026752
    Two-Electron Energy =                 402.2694788514421589
    Total Energy =                       -322.8253552157540298
  Basis Set: (AUG-CC-PVTZ AUX)
    Blend: AUG-CC-PVTZ-RI
    Molecular point group: c1

    Geometry (in Angstrom), charge = 0, multiplicity = 1:

       Center              X                  Y                   Z               Mass
    ------------   -----------------  -----------------  -----------------  -----------------
         O           -0.822651740397    -1.098675814343    -0.000012140684    15.994914619570
         N           -0.232821740397     1.065378185657     0.000017859316    14.003074004430
         C            1.585629259603    -0.685939814343     0.000024859316    12.000000000000
         C            0.193137359603    -0.191785014343     0.000002659316    12.000000000000
         C            2.604531259603     0.449304185657    -0.000023140684    12.000000000000
         C           -1.972945740397    -0.352158814343    -0.000013140684    12.000000000000
         C           -1.619092740397     0.961378185657     0.000004859316    12.000000000000
         H            1.724748259603    -1.330172814343     0.876432859316     1.007825032230
         H            1.724749259603    -1.330253814343    -0.876322140684     1.007825032230
         H            2.479325259603     1.080829185657    -0.881452140684     1.007825032230
         H            3.619416259603     0.043106185657    -0.000021140684     1.007825032230
         H            2.479345259603     1.080889185657     0.881365859316     1.007825032230
         H           -2.903196740397    -0.898280814343    -0.000005140684     1.007825032230
         H           -2.254790740397     1.835188185657    -0.000007140684     1.007825032230

  Basis Set: AUG-CC-PVTZ
    Blend: AUG-CC-PVTZ
  Basis Set: (AUG-CC-PVTZ AUX)
    Blend: AUG-CC-PVTZ-JKFIT
	 Reference Energy          =    -322.8253552157540298 [Eh]
	 Singles Energy            =      -0.0000000000000000 [Eh]
	 Same-Spin Energy          =      -0.3362514643935202 [Eh]
	 Opposite-Spin Energy      =      -1.0624806661558663 [Eh]
	 Correlation Energy        =      -1.3987321305493865 [Eh]
	 Total Energy              =    -324.2240873463034063 [Eh]

	 ================> DF-SCS-MP2 Energies <==================
	-----------------------------------------------------------
	 SCS Same-Spin Scale       =       0.3333333333333333 [-]
	 SCS Opposite-Spin Scale   =       1.2000000000000000 [-]
	 SCS Same-Spin Energy      =      -0.1120838214645067 [Eh]
	 SCS Opposite-Spin Energy  =      -1.2749767993870396 [Eh]
	 SCS Correlation Energy    =      -1.3870606208515464 [Eh]
	 SCS Total Energy          =    -324.2124158366056008 [Eh]
	-----------------------------------------------------------

  Dipole Moment: [D]
     X:    -0.3583      Y:    -1.2310      Z:    -0.0000     Total:     1.2820

*** Psi4 exiting successfully. Buy a developer a beer!
