                               Psi4 1.3.2 release

  ==> Input File <==

--------------------------------------------------------------------------
#psi4
#
memory 32 gb

molecule  {
0 1
  O       -0.8874150    -1.1053680    -0.0000120
  N       -0.2975850     1.0586860     0.0000180
  C        1.5208660    -0.6926320     0.0000250
  C        0.2073079    -0.1472531     0.0000042
  C        2.5397680     0.4426120    -0.0000230
  C       -2.0377090    -0.3588510    -0.0000130
  C       -1.6838560     0.9546860     0.0000050
  H        1.6599850    -1.3368650     0.8764330
  H        1.6599860    -1.3369460    -0.8763220
  H        2.4145620     1.0741370    -0.8814520
  H        3.5546530     0.0364140    -0.0000210
  H        2.4145820     1.0741970     0.8813660
  H       -2.9679600    -0.9049730    -0.0000050
  H       -2.3195540     1.8284960    -0.0000070
units angstrom
no_reorient  #important for SAPT in psi4, default
symmetry c1  #important for SAPT in psi4, default
}

set PROPERTIES_ORIGIN ["COM"]
properties('MP2/aug-cc-pvtz', properties = ['dipole'])
--------------------------------------------------------------------------

    Molecular point group: c1
  Charge       = 0
  Multiplicity = 1
  Basis Set: AUG-CC-PVTZ
    Blend: AUG-CC-PVTZ
  Basis Set: (AUG-CC-PVTZ AUX)
    Blend: AUG-CC-PVTZ-JKFIT

    Orbital Energies [Eh]
    ---------------------

    Doubly Occupied:

       1A    -20.618162     2A    -15.565601     3A    -11.340203
       4A    -11.292279     5A    -11.257033     6A    -11.249108
       7A    -11.224647     8A     -1.441548     9A     -1.221210
      10A     -1.096755    11A     -0.994455    12A     -0.894150
      13A     -0.818805    14A     -0.767778    15A     -0.713369
      16A     -0.659590    17A     -0.634995    18A     -0.603725
      19A     -0.597697    20A     -0.557751    21A     -0.526269
      22A     -0.525125    23A     -0.510259    24A     -0.448684
      25A     -0.446872    26A     -0.327953

  @DF-RHF Final Energy:  -322.81298292851147

   => Energetics <=

    Nuclear Repulsion Energy =            291.7009725071076218
    One-Electron Energy =               -1016.3598662271688227
    Two-Electron Energy =                 401.8459107915497270
    Total Energy =                       -322.8129829285114738
  Basis Set: (AUG-CC-PVTZ AUX)
    Blend: AUG-CC-PVTZ-RI
    Molecular point group: c1

    Geometry (in Angstrom), charge = 0, multiplicity = 1:

       Center              X                  Y                   Z               Mass
    ------------   -----------------  -----------------  -----------------  -----------------
         O           -0.832411437725    -1.105009371220    -0.000012313786    15.994914619570
         N           -0.242581437725     1.059044628780     0.000017686214    14.003074004430
         C            1.575869562275    -0.692273371220     0.000024686214    12.000000000000
         C            0.262311462275    -0.146894471220     0.000003886214    12.000000000000
         C            2.594771562275     0.442970628780    -0.000023313786    12.000000000000
         C           -1.982705437725    -0.358492371220    -0.000013313786    12.000000000000
         C           -1.628852437725     0.955044628780     0.000004686214    12.000000000000
         H            1.714988562275    -1.336506371220     0.876432686214     1.007825032230
         H            1.714989562275    -1.336587371220    -0.876322313786     1.007825032230
         H            2.469565562275     1.074495628780    -0.881452313786     1.007825032230
         H            3.609656562275     0.036772628780    -0.000021313786     1.007825032230
         H            2.469585562275     1.074555628780     0.881365686214     1.007825032230
         H           -2.912956437725    -0.904614371220    -0.000005313786     1.007825032230
         H           -2.264550437725     1.828854628780    -0.000007313786     1.007825032230

  Basis Set: AUG-CC-PVTZ
    Blend: AUG-CC-PVTZ
  Basis Set: (AUG-CC-PVTZ AUX)
    Blend: AUG-CC-PVTZ-JKFIT
	 Reference Energy          =    -322.8129829285114738 [Eh]
	 Singles Energy            =      -0.0000000000000000 [Eh]
	 Same-Spin Energy          =      -0.3376305035766444 [Eh]
	 Opposite-Spin Energy      =      -1.0654201333435001 [Eh]
	 Correlation Energy        =      -1.4030506369201445 [Eh]
	 Total Energy              =    -324.2160335654316441 [Eh]

	 ================> DF-SCS-MP2 Energies <==================
	-----------------------------------------------------------
	 SCS Same-Spin Scale       =       0.3333333333333333 [-]
	 SCS Opposite-Spin Scale   =       1.2000000000000000 [-]
	 SCS Same-Spin Energy      =      -0.1125435011922148 [Eh]
	 SCS Opposite-Spin Energy  =      -1.2785041600122000 [Eh]
	 SCS Correlation Energy    =      -1.3910476612044147 [Eh]
	 SCS Total Energy          =    -324.2040305897158987 [Eh]
	-----------------------------------------------------------

  Dipole Moment: [D]
     X:    -0.0443      Y:    -1.0833      Z:     0.0000     Total:     1.0842

*** Psi4 exiting successfully. Buy a developer a beer!
