                               Psi4 1.3.2 release

  ==> Input File <==

--------------------------------------------------------------------------
#psi4
#
memory 32 gb

molecule  {
0 1
  O       -0.8874150    -1.1053680    -0.0000120
  N       -0.3160501     1.2030211     0.0000169
  C        1.5208660    -0.6926320     0.0000250
  C        0.1219560    -0.1795350     0.0000030
  C        2.5397680     0.4426120    -0.0000230
  C       -2.0377090    -0.3588510    -0.0000130
  C       -1.6838560     0.9546860     0.0000050
  H        1.6599850    -1.3368650     0.8764330
  H        1.6599860    -1.3369460    -0.8763220
  H        2.4145620     1.0741370    -0.8814520
  H        3.5546530     0.0364140    -0.0000210
  H        2.4145820     1.0741970     0.8813660
  H       -2.9679600    -0.9049730    -0.0000050
  H       -2.3195540     1.8284960    -0.0000070
units angstrom
no_reorient  #important for SAPT in psi4, default
symmetry c1  #important for SAPT in psi4, default
}

set PROPERTIES_ORIGIN ["COM"]
properties('MP2/aug-cc-pvtz', properties = ['dipole'])
--------------------------------------------------------------------------

    Molecular point group: c1
  Charge       = 0
  Multiplicity = 1
  Basis Set: AUG-CC-PVTZ
    Blend: AUG-CC-PVTZ
  Basis Set: (AUG-CC-PVTZ AUX)
    Blend: AUG-CC-PVTZ-JKFIT

    Orbital Energies [Eh]
    ---------------------

    Doubly Occupied:

       1A    -20.650227     2A    -15.580374     3A    -11.363388
       4A    -11.285986     5A    -11.261286     6A    -11.254432
       7A    -11.223560     8A     -1.479178     9A     -1.198932
      10A     -1.085308    11A     -0.991227    12A     -0.887834
      13A     -0.816346    14A     -0.789903    15A     -0.713777
      16A     -0.666542    17A     -0.631235    18A     -0.612856
      19A     -0.577752    20A     -0.560430    21A     -0.530618
      22A     -0.516667    23A     -0.508242    24A     -0.468665
      25A     -0.441867    26A     -0.319160

  @DF-RHF Final Energy:  -322.79428931776675

   => Energetics <=

    Nuclear Repulsion Energy =            288.9737433789869669
    One-Electron Energy =               -1010.7044811050585622
    Two-Electron Energy =                 398.9364484083047842
    Total Energy =                       -322.7942893177667543
  Basis Set: (AUG-CC-PVTZ AUX)
    Blend: AUG-CC-PVTZ-RI
    Molecular point group: c1

    Geometry (in Angstrom), charge = 0, multiplicity = 1:

       Center              X                  Y                   Z               Mass
    ------------   -----------------  -----------------  -----------------  -----------------
         O           -0.819193978366    -1.121843021515    -0.000012006701    15.994914619570
         N           -0.247829078366     1.186546078485     0.000016893299    14.003074004430
         C            1.589087021634    -0.709107021515     0.000024993299    12.000000000000
         C            0.190177021634    -0.196010021515     0.000002993299    12.000000000000
         C            2.607989021634     0.426136978485    -0.000023006701    12.000000000000
         C           -1.969487978366    -0.375326021515    -0.000013006701    12.000000000000
         C           -1.615634978366     0.938210978485     0.000004993299    12.000000000000
         H            1.728206021634    -1.353340021515     0.876432993299     1.007825032230
         H            1.728207021634    -1.353421021515    -0.876322006701     1.007825032230
         H            2.482783021634     1.057661978485    -0.881452006701     1.007825032230
         H            3.622874021634     0.019938978485    -0.000021006701     1.007825032230
         H            2.482803021634     1.057721978485     0.881365993299     1.007825032230
         H           -2.899738978366    -0.921448021515    -0.000005006701     1.007825032230
         H           -2.251332978366     1.812020978485    -0.000007006701     1.007825032230

  Basis Set: AUG-CC-PVTZ
    Blend: AUG-CC-PVTZ
  Basis Set: (AUG-CC-PVTZ AUX)
    Blend: AUG-CC-PVTZ-JKFIT
	 Reference Energy          =    -322.7942893177667543 [Eh]
	 Singles Energy            =      -0.0000000000000000 [Eh]
	 Same-Spin Energy          =      -0.3396702624021874 [Eh]
	 Opposite-Spin Energy      =      -1.0700331940858971 [Eh]
	 Correlation Energy        =      -1.4097034564880846 [Eh]
	 Total Energy              =    -324.2039927742548571 [Eh]

	 ================> DF-SCS-MP2 Energies <==================
	-----------------------------------------------------------
	 SCS Same-Spin Scale       =       0.3333333333333333 [-]
	 SCS Opposite-Spin Scale   =       1.2000000000000000 [-]
	 SCS Same-Spin Energy      =      -0.1132234208007291 [Eh]
	 SCS Opposite-Spin Energy  =      -1.2840398329030764 [Eh]
	 SCS Correlation Energy    =      -1.3972632537038057 [Eh]
	 SCS Total Energy          =    -324.1915525714705382 [Eh]
	-----------------------------------------------------------

  Dipole Moment: [D]
     X:    -0.3559      Y:    -1.4616      Z:     0.0000     Total:     1.5044

*** Psi4 exiting successfully. Buy a developer a beer!
