                               Psi4 1.4a3.dev225

  ==> Input File <==

--------------------------------------------------------------------------
#psi4
#
memory 32 gb

molecule  {
0 1
  O       -0.8874150    -1.1053680    -0.0000120
  N       -0.2975850     1.0586860     0.0000180
  C        1.5208660    -0.6926320     0.0000250
  C        0.1219560    -0.1795350     0.0000030
  C        2.5397680     0.4426120    -0.0000230
  C       -2.0377090    -0.3588510    -0.0000130
  C       -1.6838560     0.9546860     0.0000050
  H        1.6599850    -1.3368650     0.8764330
  H        1.6599860    -1.3369460    -0.8763220
  H        2.4145620     1.0741370    -0.8814520
  H        3.5546530     0.0364140    -0.0000210
  H        2.4145820     1.0741970     0.8813660
  H       -2.9679600    -0.9049730    -0.0000050
  H       -2.2901394     1.7880636    -0.0000064
units angstrom
no_reorient  #important for SAPT in psi4, default
symmetry c1  #important for SAPT in psi4, default
}

set PROPERTIES_ORIGIN ["COM"]
properties('MP2/aug-cc-pvtz', properties = ['dipole'])
--------------------------------------------------------------------------

    Molecular point group: c1
  Charge       = 0
  Multiplicity = 1
  Basis Set: AUG-CC-PVTZ
    Blend: AUG-CC-PVTZ
  Basis Set: (AUG-CC-PVTZ AUX)
    Blend: AUG-CC-PVTZ-JKFIT

    Orbital Energies [Eh]
    ---------------------

    Doubly Occupied:

       1A    -20.634077     2A    -15.560300     3A    -11.337489
       4A    -11.290673     5A    -11.255062     6A    -11.248616
       7A    -11.220748     8A     -1.476358     9A     -1.226208
      10A     -1.082930    11A     -0.998020    12A     -0.884998
      13A     -0.831644    14A     -0.780774    15A     -0.720426
      16A     -0.667003    17A     -0.632746    18A     -0.609065
      19A     -0.589890    20A     -0.573451    21A     -0.526645
      22A     -0.514748    23A     -0.504854    24A     -0.456912
      25A     -0.449198    26A     -0.331936

  @DF-RHF Final Energy:  -322.82617440273651

   => Energetics <=

    Nuclear Repulsion Energy =            292.6032036268858292
    One-Electron Energy =               -1018.0492087037166584
    Two-Electron Energy =                 402.6198306740943167
    Total Energy =                       -322.8261744027365125
  Basis Set: (AUG-CC-PVTZ AUX)
    Blend: AUG-CC-PVTZ-RI
    Molecular point group: c1

    Geometry (in Angstrom), charge = 0, multiplicity = 1:

       Center              X                  Y                   Z               Mass
    ------------   -----------------  -----------------  -----------------  -----------------
         O           -0.822163630343    -1.100598043116    -0.000012171643    15.994914619570
         N           -0.232333630343     1.063455956884     0.000017828357    14.003074004430
         C            1.586117369657    -0.687862043116     0.000024828357    12.000000000000
         C            0.187207369657    -0.174765043116     0.000002828357    12.000000000000
         C            2.605019369657     0.447381956884    -0.000023171643    12.000000000000
         C           -1.972457630343    -0.354081043116    -0.000013171643    12.000000000000
         C           -1.618604630343     0.959455956884     0.000004828357    12.000000000000
         H            1.725236369657    -1.332095043116     0.876432828357     1.007825032230
         H            1.725237369657    -1.332176043116    -0.876322171643     1.007825032230
         H            2.479813369657     1.078906956884    -0.881452171643     1.007825032230
         H            3.619904369657     0.041183956884    -0.000021171643     1.007825032230
         H            2.479833369657     1.078966956884     0.881365828357     1.007825032230
         H           -2.902708630343    -0.900203043116    -0.000005171643     1.007825032230
         H           -2.224888030343     1.792833556884    -0.000006571643     1.007825032230

  Basis Set: AUG-CC-PVTZ
    Blend: AUG-CC-PVTZ
  Basis Set: (AUG-CC-PVTZ AUX)
    Blend: AUG-CC-PVTZ-JKFIT
	 Reference Energy          =    -322.8261744027365125 [Eh]
	 Singles Energy            =      -0.0000000000000000 [Eh]
	 Same-Spin Energy          =      -0.3356922134608541 [Eh]
	 Opposite-Spin Energy      =      -1.0616578968248656 [Eh]
	 Correlation Energy        =      -1.3973501102857195 [Eh]
	 Total Energy              =    -324.2235245130222552 [Eh]

	 ================> DF-SCS-MP2 Energies <==================
	-----------------------------------------------------------
	 SCS Same-Spin Scale       =       0.3333333333333333 [-]
	 SCS Opposite-Spin Scale   =       1.2000000000000000 [-]
	 SCS Same-Spin Energy      =      -0.1118974044869514 [Eh]
	 SCS Opposite-Spin Energy  =      -1.2739894761898387 [Eh]
	 SCS Correlation Energy    =      -1.3858868806767901 [Eh]
	 SCS Total Energy          =    -324.2120612834132771 [Eh]
	-----------------------------------------------------------

  Dipole Moment: [D]
     X:    -0.3761      Y:    -1.1882      Z:    -0.0000     Total:     1.2463

*** Psi4 exiting successfully. Buy a developer a beer!
