                               Psi4 1.3.2 release

  ==> Input File <==

--------------------------------------------------------------------------
#psi4
#
memory 32 gb

molecule  {
0 1
  O       -0.7851097    -1.2058042    -0.0000103
  N       -0.2975850     1.0586860     0.0000180
  C        1.5208660    -0.6926320     0.0000250
  C        0.1219560    -0.1795350     0.0000030
  C        2.5397680     0.4426120    -0.0000230
  C       -2.0377090    -0.3588510    -0.0000130
  C       -1.6838560     0.9546860     0.0000050
  H        1.6599850    -1.3368650     0.8764330
  H        1.6599860    -1.3369460    -0.8763220
  H        2.4145620     1.0741370    -0.8814520
  H        3.5546530     0.0364140    -0.0000210
  H        2.4145820     1.0741970     0.8813660
  H       -2.9679600    -0.9049730    -0.0000050
  H       -2.3195540     1.8284960    -0.0000070
units angstrom
no_reorient  #important for SAPT in psi4, default
symmetry c1  #important for SAPT in psi4, default
}

set PROPERTIES_ORIGIN ["COM"]
properties('MP2/aug-cc-pvtz', properties = ['dipole'])
--------------------------------------------------------------------------

    Molecular point group: c1
  Charge       = 0
  Multiplicity = 1
  Basis Set: AUG-CC-PVTZ
    Blend: AUG-CC-PVTZ
  Basis Set: (AUG-CC-PVTZ AUX)
    Blend: AUG-CC-PVTZ-JKFIT

    Orbital Energies [Eh]
    ---------------------

    Doubly Occupied:

       1A    -20.632672     2A    -15.561928     3A    -11.343671
       4A    -11.300508     5A    -11.276991     6A    -11.243519
       7A    -11.217503     8A     -1.440120     9A     -1.231164
      10A     -1.078210    11A     -0.993195    12A     -0.882907
      13A     -0.822418    14A     -0.767917    15A     -0.707808
      16A     -0.656054    17A     -0.622805    18A     -0.597392
      19A     -0.589044    20A     -0.580720    21A     -0.516297
      22A     -0.508869    23A     -0.500987    24A     -0.458346
      25A     -0.456768    26A     -0.339856

  @DF-RHF Final Energy:  -322.80682457391856

   => Energetics <=

    Nuclear Repulsion Energy =            289.9995500062488532
    One-Electron Energy =               -1012.9574145386164901
    Two-Electron Energy =                 400.1510399584491324
    Total Energy =                       -322.8068245739185613
  Basis Set: (AUG-CC-PVTZ AUX)
    Blend: AUG-CC-PVTZ-RI
    Molecular point group: c1

    Geometry (in Angstrom), charge = 0, multiplicity = 1:

       Center              X                  Y                   Z               Mass
    ------------   -----------------  -----------------  -----------------  -----------------
         O           -0.736413446392    -1.184901578812    -0.000010745584    15.994914619570
         N           -0.248888746392     1.079588621188     0.000017554416    14.003074004430
         C            1.569562253608    -0.671729378812     0.000024554416    12.000000000000
         C            0.170652253608    -0.158632378812     0.000002554416    12.000000000000
         C            2.588464253608     0.463514621188    -0.000023445584    12.000000000000
         C           -1.989012746392    -0.337948378812    -0.000013445584    12.000000000000
         C           -1.635159746392     0.975588621188     0.000004554416    12.000000000000
         H            1.708681253608    -1.315962378812     0.876432554416     1.007825032230
         H            1.708682253608    -1.316043378812    -0.876322445584     1.007825032230
         H            2.463258253608     1.095039621188    -0.881452445584     1.007825032230
         H            3.603349253608     0.057316621188    -0.000021445584     1.007825032230
         H            2.463278253608     1.095099621188     0.881365554416     1.007825032230
         H           -2.919263746392    -0.884070378812    -0.000005445584     1.007825032230
         H           -2.270857746392     1.849398621188    -0.000007445584     1.007825032230

  Basis Set: AUG-CC-PVTZ
    Blend: AUG-CC-PVTZ
  Basis Set: (AUG-CC-PVTZ AUX)
    Blend: AUG-CC-PVTZ-JKFIT
	 Reference Energy          =    -322.8068245739185613 [Eh]
	 Singles Energy            =      -0.0000000000000000 [Eh]
	 Same-Spin Energy          =      -0.3360297099190436 [Eh]
	 Opposite-Spin Energy      =      -1.0662165572664577 [Eh]
	 Correlation Energy        =      -1.4022462671855012 [Eh]
	 Total Energy              =    -324.2090708411040509 [Eh]

	 ================> DF-SCS-MP2 Energies <==================
	-----------------------------------------------------------
	 SCS Same-Spin Scale       =       0.3333333333333333 [-]
	 SCS Opposite-Spin Scale   =       1.2000000000000000 [-]
	 SCS Same-Spin Energy      =      -0.1120099033063479 [Eh]
	 SCS Opposite-Spin Energy  =      -1.2794598687197491 [Eh]
	 SCS Correlation Energy    =      -1.3914697720260971 [Eh]
	 SCS Total Energy          =    -324.1982943459446460 [Eh]
	-----------------------------------------------------------

  Dipole Moment: [D]
     X:    -0.6374      Y:    -0.8367      Z:     0.0000     Total:     1.0518

*** Psi4 exiting successfully. Buy a developer a beer!
