                               Psi4 1.3.2 release

  ==> Input File <==

--------------------------------------------------------------------------
#psi4
#
memory 32 gb

molecule  {
0 1
  O       -0.8874150    -1.1053680    -0.0000120
  N       -0.2975850     1.0586860     0.0000180
  C        1.5208660    -0.6926320     0.0000250
  C        0.1832526    -0.0361199    -0.0000031
  C        2.5397680     0.4426120    -0.0000230
  C       -2.0377090    -0.3588510    -0.0000130
  C       -1.6838560     0.9546860     0.0000050
  H        1.6599850    -1.3368650     0.8764330
  H        1.6599860    -1.3369460    -0.8763220
  H        2.4145620     1.0741370    -0.8814520
  H        3.5546530     0.0364140    -0.0000210
  H        2.4145820     1.0741970     0.8813660
  H       -2.9679600    -0.9049730    -0.0000050
  H       -2.3195540     1.8284960    -0.0000070
units angstrom
no_reorient  #important for SAPT in psi4, default
symmetry c1  #important for SAPT in psi4, default
}

set PROPERTIES_ORIGIN ["COM"]
properties('MP2/aug-cc-pvtz', properties = ['dipole'])
--------------------------------------------------------------------------

    Molecular point group: c1
  Charge       = 0
  Multiplicity = 1
  Basis Set: AUG-CC-PVTZ
    Blend: AUG-CC-PVTZ
  Basis Set: (AUG-CC-PVTZ AUX)
    Blend: AUG-CC-PVTZ-JKFIT

    Orbital Energies [Eh]
    ---------------------

    Doubly Occupied:

       1A    -20.601963     2A    -15.563122     3A    -11.329963
       4A    -11.295364     5A    -11.257415     6A    -11.251431
       7A    -11.222017     8A     -1.429913     9A     -1.262035
      10A     -1.081814    11A     -0.998544    12A     -0.882823
      13A     -0.827121    14A     -0.759501    15A     -0.712878
      16A     -0.654480    17A     -0.626196    18A     -0.609384
      19A     -0.600167    20A     -0.551901    21A     -0.525417
      22A     -0.513476    23A     -0.506558    24A     -0.470004
      25A     -0.451459    26A     -0.335663

  @DF-RHF Final Energy:  -322.80412788425048

   => Energetics <=

    Nuclear Repulsion Energy =            292.2882144890234031
    One-Electron Energy =               -1017.5434710412472441
    Two-Electron Energy =                 402.4511286679733644
    Total Energy =                       -322.8041278842504767
  Basis Set: (AUG-CC-PVTZ AUX)
    Blend: AUG-CC-PVTZ-RI
    Molecular point group: c1

    Geometry (in Angstrom), charge = 0, multiplicity = 1:

       Center              X                  Y                   Z               Mass
    ------------   -----------------  -----------------  -----------------  -----------------
         O           -0.829437142212    -1.118750333838    -0.000011411184    15.994914619570
         N           -0.239607142212     1.045303666162     0.000018588816    14.003074004430
         C            1.578843857788    -0.706014333838     0.000025588816    12.000000000000
         C            0.241230457788    -0.049502233838    -0.000002511184    12.000000000000
         C            2.597745857788     0.429229666162    -0.000022411184    12.000000000000
         C           -1.979731142212    -0.372233333838    -0.000012411184    12.000000000000
         C           -1.625878142212     0.941303666162     0.000005588816    12.000000000000
         H            1.717962857788    -1.350247333838     0.876433588816     1.007825032230
         H            1.717963857788    -1.350328333838    -0.876321411184     1.007825032230
         H            2.472539857788     1.060754666162    -0.881451411184     1.007825032230
         H            3.612630857788     0.023031666162    -0.000020411184     1.007825032230
         H            2.472559857788     1.060814666162     0.881366588816     1.007825032230
         H           -2.909982142212    -0.918355333838    -0.000004411184     1.007825032230
         H           -2.261576142212     1.815113666162    -0.000006411184     1.007825032230

  Basis Set: AUG-CC-PVTZ
    Blend: AUG-CC-PVTZ
  Basis Set: (AUG-CC-PVTZ AUX)
    Blend: AUG-CC-PVTZ-JKFIT
	 Reference Energy          =    -322.8041278842504767 [Eh]
	 Singles Energy            =      -0.0000000000000000 [Eh]
	 Same-Spin Energy          =      -0.3354004533632374 [Eh]
	 Opposite-Spin Energy      =      -1.0626692765302228 [Eh]
	 Correlation Energy        =      -1.3980697298934601 [Eh]
	 Total Energy              =    -324.2021976141439268 [Eh]

	 ================> DF-SCS-MP2 Energies <==================
	-----------------------------------------------------------
	 SCS Same-Spin Scale       =       0.3333333333333333 [-]
	 SCS Opposite-Spin Scale   =       1.2000000000000000 [-]
	 SCS Same-Spin Energy      =      -0.1118001511210791 [Eh]
	 SCS Opposite-Spin Energy  =      -1.2752031318362673 [Eh]
	 SCS Correlation Energy    =      -1.3870032829573464 [Eh]
	 SCS Total Energy          =    -324.1911311672078000 [Eh]
	-----------------------------------------------------------

  Dipole Moment: [D]
     X:     0.0113      Y:    -0.7340      Z:    -0.0000     Total:     0.7341

*** Psi4 exiting successfully. Buy a developer a beer!
