                               Psi4 1.4a3.dev225

  ==> Input File <==

--------------------------------------------------------------------------
#psi4
#
memory 32 gb

molecule  {
0 1
  O       -0.8874150    -1.1053680    -0.0000120
  N       -0.2975850     1.0586860     0.0000180
  C        1.5208660    -0.6926320     0.0000250
  C        0.1219560    -0.1795350     0.0000030
  C        2.5397680     0.4426120    -0.0000230
  C       -2.0377090    -0.3588510    -0.0000130
  C       -1.6639120     0.9561822     0.0000052
  H        1.6599850    -1.3368650     0.8764330
  H        1.6599860    -1.3369460    -0.8763220
  H        2.4145620     1.0741370    -0.8814520
  H        3.5546530     0.0364140    -0.0000210
  H        2.4145820     1.0741970     0.8813660
  H       -2.9679600    -0.9049730    -0.0000050
  H       -2.3195540     1.8284960    -0.0000070
units angstrom
no_reorient  #important for SAPT in psi4, default
symmetry c1  #important for SAPT in psi4, default
}

set PROPERTIES_ORIGIN ["COM"]
properties('MP2/aug-cc-pvtz', properties = ['dipole'])
--------------------------------------------------------------------------

    Molecular point group: c1
  Charge       = 0
  Multiplicity = 1
  Basis Set: AUG-CC-PVTZ
    Blend: AUG-CC-PVTZ
  Basis Set: (AUG-CC-PVTZ AUX)
    Blend: AUG-CC-PVTZ-JKFIT

    Orbital Energies [Eh]
    ---------------------

    Doubly Occupied:

       1A    -20.634927     2A    -15.560432     3A    -11.338137
       4A    -11.290138     5A    -11.261061     6A    -11.248830
       7A    -11.221049     8A     -1.477390     9A     -1.232074
      10A     -1.082811    11A     -0.995529    12A     -0.883473
      13A     -0.828129    14A     -0.782601    15A     -0.716776
      16A     -0.667736    17A     -0.631111    18A     -0.609327
      19A     -0.585935    20A     -0.569287    21A     -0.526978
      22A     -0.515057    23A     -0.505092    24A     -0.458431
      25A     -0.452837    26A     -0.329004

  @DF-RHF Final Energy:  -322.82615942396546

   => Energetics <=

    Nuclear Repulsion Energy =            292.6301702832850538
    One-Electron Energy =               -1018.1043582149226268
    Two-Electron Energy =                 402.6480285076720520
    Total Energy =                       -322.8261594239654642
  Basis Set: (AUG-CC-PVTZ AUX)
    Blend: AUG-CC-PVTZ-RI
    Molecular point group: c1

    Geometry (in Angstrom), charge = 0, multiplicity = 1:

       Center              X                  Y                   Z               Mass
    ------------   -----------------  -----------------  -----------------  -----------------
         O           -0.824324137901    -1.101202901571    -0.000012190141    15.994914619570
         N           -0.234494137901     1.062851098429     0.000017809859    14.003074004430
         C            1.583956862099    -0.688466901571     0.000024809859    12.000000000000
         C            0.185046862099    -0.175369901571     0.000002809859    12.000000000000
         C            2.602858862099     0.446777098429    -0.000023190141    12.000000000000
         C           -1.974618137901    -0.354685901571    -0.000013190141    12.000000000000
         C           -1.600821137901     0.960347298429     0.000005009859    12.000000000000
         H            1.723075862099    -1.332699901571     0.876432809859     1.007825032230
         H            1.723076862099    -1.332780901571    -0.876322190141     1.007825032230
         H            2.477652862099     1.078302098429    -0.881452190141     1.007825032230
         H            3.617743862099     0.040579098429    -0.000021190141     1.007825032230
         H            2.477672862099     1.078362098429     0.881365809859     1.007825032230
         H           -2.904869137901    -0.900807901571    -0.000005190141     1.007825032230
         H           -2.256463137901     1.832661098429    -0.000007190141     1.007825032230

  Basis Set: AUG-CC-PVTZ
    Blend: AUG-CC-PVTZ
  Basis Set: (AUG-CC-PVTZ AUX)
    Blend: AUG-CC-PVTZ-JKFIT
	 Reference Energy          =    -322.8261594239654642 [Eh]
	 Singles Energy            =      -0.0000000000000000 [Eh]
	 Same-Spin Energy          =      -0.3361374856183259 [Eh]
	 Opposite-Spin Energy      =      -1.0620636525833191 [Eh]
	 Correlation Energy        =      -1.3982011382016450 [Eh]
	 Total Energy              =    -324.2243605621671350 [Eh]

	 ================> DF-SCS-MP2 Energies <==================
	-----------------------------------------------------------
	 SCS Same-Spin Scale       =       0.3333333333333333 [-]
	 SCS Opposite-Spin Scale   =       1.2000000000000000 [-]
	 SCS Same-Spin Energy      =      -0.1120458285394420 [Eh]
	 SCS Opposite-Spin Energy  =      -1.2744763830999830 [Eh]
	 SCS Correlation Energy    =      -1.3865222116394249 [Eh]
	 SCS Total Energy          =    -324.2126816356048948 [Eh]
	-----------------------------------------------------------

  Dipole Moment: [D]
     X:    -0.3531      Y:    -1.1867      Z:    -0.0000     Total:     1.2382

*** Psi4 exiting successfully. Buy a developer a beer!
