                               Psi4 1.3.2 release

  ==> Input File <==

--------------------------------------------------------------------------
#psi4
#
memory 32 gb

molecule  {
0 1
  O       -0.8874150    -1.1053680    -0.0000120
  N       -0.2975850     1.0586860     0.0000180
  C        1.5208660    -0.6926320     0.0000250
  C        0.1219560    -0.1795350     0.0000030
  C        2.5397680     0.4426120    -0.0000230
  C       -2.1215925    -0.3044124    -0.0000131
  C       -1.6838560     0.9546860     0.0000050
  H        1.6599850    -1.3368650     0.8764330
  H        1.6599860    -1.3369460    -0.8763220
  H        2.4145620     1.0741370    -0.8814520
  H        3.5546530     0.0364140    -0.0000210
  H        2.4145820     1.0741970     0.8813660
  H       -2.9679600    -0.9049730    -0.0000050
  H       -2.3195540     1.8284960    -0.0000070
units angstrom
no_reorient  #important for SAPT in psi4, default
symmetry c1  #important for SAPT in psi4, default
}

set PROPERTIES_ORIGIN ["COM"]
properties('MP2/aug-cc-pvtz', properties = ['dipole'])
--------------------------------------------------------------------------

    Molecular point group: c1
  Charge       = 0
  Multiplicity = 1
  Basis Set: AUG-CC-PVTZ
    Blend: AUG-CC-PVTZ
  Basis Set: (AUG-CC-PVTZ AUX)
    Blend: AUG-CC-PVTZ-JKFIT

    Orbital Energies [Eh]
    ---------------------

    Doubly Occupied:

       1A    -20.620166     2A    -15.558208     3A    -11.341434
       4A    -11.289059     5A    -11.266271     6A    -11.249114
       7A    -11.220958     8A     -1.443274     9A     -1.220325
      10A     -1.083144    11A     -1.004041    12A     -0.885364
      13A     -0.824666    14A     -0.771520    15A     -0.712521
      16A     -0.655994    17A     -0.636288    18A     -0.601302
      19A     -0.586777    20A     -0.562651    21A     -0.523142
      22A     -0.515006    23A     -0.504440    24A     -0.456121
      25A     -0.446978    26A     -0.344019

  @DF-RHF Final Energy:  -322.81797042590347

   => Energetics <=

    Nuclear Repulsion Energy =            290.8203993511529006
    One-Electron Energy =               -1014.6311736347175838
    Two-Electron Energy =                 400.9928038576612153
    Total Energy =                       -322.8179704259034679
  Basis Set: (AUG-CC-PVTZ AUX)
    Blend: AUG-CC-PVTZ-RI
    Molecular point group: c1

    Geometry (in Angstrom), charge = 0, multiplicity = 1:

       Center              X                  Y                   Z               Mass
    ------------   -----------------  -----------------  -----------------  -----------------
         O           -0.811486481861    -1.107748916077    -0.000012153048    15.994914619570
         N           -0.221656481861     1.056305083923     0.000017846952    14.003074004430
         C            1.596794518139    -0.695012916077     0.000024846952    12.000000000000
         C            0.197884518139    -0.181915916077     0.000002846952    12.000000000000
         C            2.615696518139     0.440231083923    -0.000023153048    12.000000000000
         C           -2.045663981861    -0.306793316077    -0.000013253048    12.000000000000
         C           -1.607927481861     0.952305083923     0.000004846952    12.000000000000
         H            1.735913518139    -1.339245916077     0.876432846952     1.007825032230
         H            1.735914518139    -1.339326916077    -0.876322153048     1.007825032230
         H            2.490490518139     1.071756083923    -0.881452153048     1.007825032230
         H            3.630581518139     0.034033083923    -0.000021153048     1.007825032230
         H            2.490510518139     1.071816083923     0.881365846952     1.007825032230
         H           -2.892031481861    -0.907353916077    -0.000005153048     1.007825032230
         H           -2.243625481861     1.826115083923    -0.000007153048     1.007825032230

  Basis Set: AUG-CC-PVTZ
    Blend: AUG-CC-PVTZ
  Basis Set: (AUG-CC-PVTZ AUX)
    Blend: AUG-CC-PVTZ-JKFIT
	 Reference Energy          =    -322.8179704259034679 [Eh]
	 Singles Energy            =      -0.0000000000000000 [Eh]
	 Same-Spin Energy          =      -0.3351210389237003 [Eh]
	 Opposite-Spin Energy      =      -1.0625474224357263 [Eh]
	 Correlation Energy        =      -1.3976684613594266 [Eh]
	 Total Energy              =    -324.2156388872629122 [Eh]

	 ================> DF-SCS-MP2 Energies <==================
	-----------------------------------------------------------
	 SCS Same-Spin Scale       =       0.3333333333333333 [-]
	 SCS Opposite-Spin Scale   =       1.2000000000000000 [-]
	 SCS Same-Spin Energy      =      -0.1117070129745668 [Eh]
	 SCS Opposite-Spin Energy  =      -1.2750569069228714 [Eh]
	 SCS Correlation Energy    =      -1.3867639198974382 [Eh]
	 SCS Total Energy          =    -324.2047343458008868 [Eh]
	-----------------------------------------------------------

  Dipole Moment: [D]
     X:    -0.4532      Y:    -1.0709      Z:     0.0000     Total:     1.1629

*** Psi4 exiting successfully. Buy a developer a beer!
