                               Psi4 1.3.2 release

  ==> Input File <==

--------------------------------------------------------------------------
#psi4
#
memory 32 gb

molecule  {
0 1
  O       -0.8874150    -1.1053680    -0.0000120
  N       -0.2975850     1.0586860     0.0000180
  C        1.5208660    -0.6926320     0.0000250
  C        0.3097242    -0.2484053     0.0000060
  C        2.5397680     0.4426120    -0.0000230
  C       -2.0377090    -0.3588510    -0.0000130
  C       -1.6838560     0.9546860     0.0000050
  H        1.6599850    -1.3368650     0.8764330
  H        1.6599860    -1.3369460    -0.8763220
  H        2.4145620     1.0741370    -0.8814520
  H        3.5546530     0.0364140    -0.0000210
  H        2.4145820     1.0741970     0.8813660
  H       -2.9679600    -0.9049730    -0.0000050
  H       -2.3195540     1.8284960    -0.0000070
units angstrom
no_reorient  #important for SAPT in psi4, default
symmetry c1  #important for SAPT in psi4, default
}

set PROPERTIES_ORIGIN ["COM"]
properties('MP2/aug-cc-pvtz', properties = ['dipole'])
--------------------------------------------------------------------------

    Molecular point group: c1
  Charge       = 0
  Multiplicity = 1
  Basis Set: AUG-CC-PVTZ
    Blend: AUG-CC-PVTZ
  Basis Set: (AUG-CC-PVTZ AUX)
    Blend: AUG-CC-PVTZ-JKFIT

    Orbital Energies [Eh]
    ---------------------

    Doubly Occupied:

       1A    -20.618092     2A    -15.567797     3A    -11.351914
       4A    -11.288383     5A    -11.253649     6A    -11.246816
       7A    -11.233398     8A     -1.427851     9A     -1.183306
      10A     -1.132039    11A     -0.987131    12A     -0.916209
      13A     -0.802440    14A     -0.763455    15A     -0.711227
      16A     -0.671174    17A     -0.650772    18A     -0.599145
      19A     -0.595783    20A     -0.555788    21A     -0.538483
      22A     -0.522712    23A     -0.521292    24A     -0.426010
      25A     -0.424766    26A     -0.308977

  @DF-RHF Final Energy:  -322.74355746437976

   => Energetics <=

    Nuclear Repulsion Energy =            290.8620115558883299
    One-Electron Energy =               -1014.6139187708174632
    Two-Electron Energy =                 401.0083497505493710
    Total Energy =                       -322.7435574643797622
  Basis Set: (AUG-CC-PVTZ AUX)
    Blend: AUG-CC-PVTZ-RI
    Molecular point group: c1

    Geometry (in Angstrom), charge = 0, multiplicity = 1:

       Center              X                  Y                   Z               Mass
    ------------   -----------------  -----------------  -----------------  -----------------
         O           -0.845074607234    -1.092502500196    -0.000012536345    15.994914619570
         N           -0.255244607234     1.071551499804     0.000017463655    14.003074004430
         C            1.563206392766    -0.679766500196     0.000024463655    12.000000000000
         C            0.352064592766    -0.235539800196     0.000005463655    12.000000000000
         C            2.582108392766     0.455477499804    -0.000023536345    12.000000000000
         C           -1.995368607234    -0.345985500196    -0.000013536345    12.000000000000
         C           -1.641515607234     0.967551499804     0.000004463655    12.000000000000
         H            1.702325392766    -1.323999500196     0.876432463655     1.007825032230
         H            1.702326392766    -1.324080500196    -0.876322536345     1.007825032230
         H            2.456902392766     1.087002499804    -0.881452536345     1.007825032230
         H            3.596993392766     0.049279499804    -0.000021536345     1.007825032230
         H            2.456922392766     1.087062499804     0.881365463655     1.007825032230
         H           -2.925619607234    -0.892107500196    -0.000005536345     1.007825032230
         H           -2.277213607234     1.841361499804    -0.000007536345     1.007825032230

  Basis Set: AUG-CC-PVTZ
    Blend: AUG-CC-PVTZ
  Basis Set: (AUG-CC-PVTZ AUX)
    Blend: AUG-CC-PVTZ-JKFIT
	 Reference Energy          =    -322.7435574643797622 [Eh]
	 Singles Energy            =      -0.0000000000000000 [Eh]
	 Same-Spin Energy          =      -0.3440436980664400 [Eh]
	 Opposite-Spin Energy      =      -1.0753686317985514 [Eh]
	 Correlation Energy        =      -1.4194123298649912 [Eh]
	 Total Energy              =    -324.1629697942447592 [Eh]

	 ================> DF-SCS-MP2 Energies <==================
	-----------------------------------------------------------
	 SCS Same-Spin Scale       =       0.3333333333333333 [-]
	 SCS Opposite-Spin Scale   =       1.2000000000000000 [-]
	 SCS Same-Spin Energy      =      -0.1146812326888133 [Eh]
	 SCS Opposite-Spin Energy  =      -1.2904423581582616 [Eh]
	 SCS Correlation Energy    =      -1.4051235908470749 [Eh]
	 SCS Total Energy          =    -324.1486810552268594 [Eh]
	-----------------------------------------------------------

  Dipole Moment: [D]
     X:     0.2378      Y:    -1.2971      Z:     0.0000     Total:     1.3187

*** Psi4 exiting successfully. Buy a developer a beer!
