                               Psi4 1.3.2 release

  ==> Input File <==

--------------------------------------------------------------------------
#psi4
#
memory 32 gb

molecule  {
0 1
  O       -0.8874150    -1.1053680    -0.0000120
  N       -0.2975850     1.0586860     0.0000180
  C        1.5208660    -0.6926320     0.0000250
  C        0.0482615    -0.2471303     0.0000019
  C        2.5397680     0.4426120    -0.0000230
  C       -2.0377090    -0.3588510    -0.0000130
  C       -1.6838560     0.9546860     0.0000050
  H        1.6599850    -1.3368650     0.8764330
  H        1.6599860    -1.3369460    -0.8763220
  H        2.4145620     1.0741370    -0.8814520
  H        3.5546530     0.0364140    -0.0000210
  H        2.4145820     1.0741970     0.8813660
  H       -2.9679600    -0.9049730    -0.0000050
  H       -2.3195540     1.8284960    -0.0000070
units angstrom
no_reorient  #important for SAPT in psi4, default
symmetry c1  #important for SAPT in psi4, default
}

set PROPERTIES_ORIGIN ["COM"]
properties('MP2/aug-cc-pvtz', properties = ['dipole'])
--------------------------------------------------------------------------

    Molecular point group: c1
  Charge       = 0
  Multiplicity = 1
  Basis Set: AUG-CC-PVTZ
    Blend: AUG-CC-PVTZ
  Basis Set: (AUG-CC-PVTZ AUX)
    Blend: AUG-CC-PVTZ-JKFIT

    Orbital Energies [Eh]
    ---------------------

    Doubly Occupied:

       1A    -20.652847     2A    -15.556084     3A    -11.340520
       4A    -11.286784     5A    -11.264147     6A    -11.248965
       7A    -11.219164     8A     -1.525028     9A     -1.217501
      10A     -1.077056    11A     -1.000527    12A     -0.878959
      13A     -0.840394    14A     -0.791690    15A     -0.721336
      16A     -0.687809    17A     -0.630335    18A     -0.611047
      19A     -0.590565    20A     -0.567584    21A     -0.528802
      22A     -0.501763    23A     -0.499758    24A     -0.458100
      25A     -0.445792    26A     -0.330613

  @DF-RHF Final Energy:  -322.81809406539566

   => Energetics <=

    Nuclear Repulsion Energy =            292.9351603679954792
    One-Electron Energy =               -1018.5601699736427008
    Two-Electron Energy =                 402.8069155402515094
    Total Energy =                       -322.8180940653956554
  Basis Set: (AUG-CC-PVTZ AUX)
    Blend: AUG-CC-PVTZ-RI
    Molecular point group: c1

    Geometry (in Angstrom), charge = 0, multiplicity = 1:

       Center              X                  Y                   Z               Mass
    ------------   -----------------  -----------------  -----------------  -----------------
         O           -0.812746291424    -1.092660146402    -0.000012029404    15.994914619570
         N           -0.222916291424     1.071393853598     0.000017970596    14.003074004430
         C            1.595534708576    -0.679924146402     0.000024970596    12.000000000000
         C            0.122930208576    -0.234422446402     0.000001870596    12.000000000000
         C            2.614436708576     0.455319853598    -0.000023029404    12.000000000000
         C           -1.963040291424    -0.346143146402    -0.000013029404    12.000000000000
         C           -1.609187291424     0.967393853598     0.000004970596    12.000000000000
         H            1.734653708576    -1.324157146402     0.876432970596     1.007825032230
         H            1.734654708576    -1.324238146402    -0.876322029404     1.007825032230
         H            2.489230708576     1.086844853598    -0.881452029404     1.007825032230
         H            3.629321708576     0.049121853598    -0.000021029404     1.007825032230
         H            2.489250708576     1.086904853598     0.881365970596     1.007825032230
         H           -2.893291291424    -0.892265146402    -0.000005029404     1.007825032230
         H           -2.244885291424     1.841203853598    -0.000007029404     1.007825032230

  Basis Set: AUG-CC-PVTZ
    Blend: AUG-CC-PVTZ
  Basis Set: (AUG-CC-PVTZ AUX)
    Blend: AUG-CC-PVTZ-JKFIT
	 Reference Energy          =    -322.8180940653956554 [Eh]
	 Singles Energy            =      -0.0000000000000000 [Eh]
	 Same-Spin Energy          =      -0.3353929021595076 [Eh]
	 Opposite-Spin Energy      =      -1.0603873842902476 [Eh]
	 Correlation Energy        =      -1.3957802864497553 [Eh]
	 Total Energy              =    -324.2138743518453907 [Eh]

	 ================> DF-SCS-MP2 Energies <==================
	-----------------------------------------------------------
	 SCS Same-Spin Scale       =       0.3333333333333333 [-]
	 SCS Opposite-Spin Scale   =       1.2000000000000000 [-]
	 SCS Same-Spin Energy      =      -0.1117976340531692 [Eh]
	 SCS Opposite-Spin Energy  =      -1.2724648611482972 [Eh]
	 SCS Correlation Energy    =      -1.3842624952014664 [Eh]
	 SCS Total Energy          =    -324.2023565605971385 [Eh]
	-----------------------------------------------------------

  Dipole Moment: [D]
     X:    -0.6100      Y:    -1.3693      Z:    -0.0000     Total:     1.4990

*** Psi4 exiting successfully. Buy a developer a beer!
