                               Psi4 1.4a3.dev225

  ==> Input File <==

--------------------------------------------------------------------------
#psi4
#
memory 32 gb

molecule  {
0 1
  O       -0.8874150    -1.1053680    -0.0000120
  N       -0.2975850     1.0586860     0.0000180
  C        1.5208660    -0.6926320     0.0000250
  C        0.1155379    -0.1605928     0.0000032
  C        2.5397680     0.4426120    -0.0000230
  C       -2.0377090    -0.3588510    -0.0000130
  C       -1.6838560     0.9546860     0.0000050
  H        1.6599850    -1.3368650     0.8764330
  H        1.6599860    -1.3369460    -0.8763220
  H        2.4145620     1.0741370    -0.8814520
  H        3.5546530     0.0364140    -0.0000210
  H        2.4145820     1.0741970     0.8813660
  H       -2.9679600    -0.9049730    -0.0000050
  H       -2.3195540     1.8284960    -0.0000070
units angstrom
no_reorient  #important for SAPT in psi4, default
symmetry c1  #important for SAPT in psi4, default
}

set PROPERTIES_ORIGIN ["COM"]
properties('MP2/aug-cc-pvtz', properties = ['dipole'])
--------------------------------------------------------------------------

    Molecular point group: c1
  Charge       = 0
  Multiplicity = 1
  Basis Set: AUG-CC-PVTZ
    Blend: AUG-CC-PVTZ
  Basis Set: (AUG-CC-PVTZ AUX)
    Blend: AUG-CC-PVTZ-JKFIT

    Orbital Energies [Eh]
    ---------------------

    Doubly Occupied:

       1A    -20.632253     2A    -15.560554     3A    -11.335949
       4A    -11.291657     5A    -11.260868     6A    -11.248649
       7A    -11.220155     8A     -1.474262     9A     -1.233754
      10A     -1.079960    11A     -0.997288    12A     -0.882157
      13A     -0.828491    14A     -0.779714    15A     -0.717148
      16A     -0.666053    17A     -0.629129    18A     -0.608408
      19A     -0.586740    20A     -0.571874    21A     -0.524346
      22A     -0.513775    23A     -0.504087    24A     -0.459016
      25A     -0.453138    26A     -0.333975

  @DF-RHF Final Energy:  -322.82760239849671

   => Energetics <=

    Nuclear Repulsion Energy =            292.4563093766604993
    One-Electron Energy =               -1017.7810262573152613
    Two-Electron Energy =                 402.4971144821579969
    Total Energy =                       -322.8276023984967082
  Basis Set: (AUG-CC-PVTZ AUX)
    Blend: AUG-CC-PVTZ-RI
    Molecular point group: c1

    Geometry (in Angstrom), charge = 0, multiplicity = 1:

       Center              X                  Y                   Z               Mass
    ------------   -----------------  -----------------  -----------------  -----------------
         O           -0.821064620217    -1.103359996245    -0.000012190141    15.994914619570
         N           -0.231234620217     1.060694003755     0.000017809859    14.003074004430
         C            1.587216379783    -0.690623996245     0.000024809859    12.000000000000
         C            0.181888279783    -0.158584796245     0.000003009859    12.000000000000
         C            2.606118379783     0.444620003755    -0.000023190141    12.000000000000
         C           -1.971358620217    -0.356842996245    -0.000013190141    12.000000000000
         C           -1.617505620217     0.956694003755     0.000004809859    12.000000000000
         H            1.726335379783    -1.334856996245     0.876432809859     1.007825032230
         H            1.726336379783    -1.334937996245    -0.876322190141     1.007825032230
         H            2.480912379783     1.076145003755    -0.881452190141     1.007825032230
         H            3.621003379783     0.038422003755    -0.000021190141     1.007825032230
         H            2.480932379783     1.076205003755     0.881365809859     1.007825032230
         H           -2.901609620217    -0.902964996245    -0.000005190141     1.007825032230
         H           -2.253203620217     1.830504003755    -0.000007190141     1.007825032230

  Basis Set: AUG-CC-PVTZ
    Blend: AUG-CC-PVTZ
  Basis Set: (AUG-CC-PVTZ AUX)
    Blend: AUG-CC-PVTZ-JKFIT
	 Reference Energy          =    -322.8276023984967082 [Eh]
	 Singles Energy            =      -0.0000000000000000 [Eh]
	 Same-Spin Energy          =      -0.3353169031089334 [Eh]
	 Opposite-Spin Energy      =      -1.0613736120565960 [Eh]
	 Correlation Energy        =      -1.3966905151655293 [Eh]
	 Total Energy              =    -324.2242929136622251 [Eh]

	 ================> DF-SCS-MP2 Energies <==================
	-----------------------------------------------------------
	 SCS Same-Spin Scale       =       0.3333333333333333 [-]
	 SCS Opposite-Spin Scale   =       1.2000000000000000 [-]
	 SCS Same-Spin Energy      =      -0.1117723010363111 [Eh]
	 SCS Opposite-Spin Energy  =      -1.2736483344679150 [Eh]
	 SCS Correlation Energy    =      -1.3854206355042262 [Eh]
	 SCS Total Energy          =    -324.2130230340009120 [Eh]
	-----------------------------------------------------------

  Dipole Moment: [D]
     X:    -0.3761      Y:    -1.1319      Z:    -0.0000     Total:     1.1928

*** Psi4 exiting successfully. Buy a developer a beer!
