                               Psi4 1.3.2 release

  ==> Input File <==

--------------------------------------------------------------------------
#psi4
#
memory 32 gb

molecule  {
0 1
  O       -0.8711033    -1.1228429    -0.0000117
  N       -0.2975850     1.0586860     0.0000180
  C        1.5208660    -0.6926320     0.0000250
  C        0.1219560    -0.1795350     0.0000030
  C        2.5397680     0.4426120    -0.0000230
  C       -2.0377090    -0.3588510    -0.0000130
  C       -1.6838560     0.9546860     0.0000050
  H        1.6599850    -1.3368650     0.8764330
  H        1.6599860    -1.3369460    -0.8763220
  H        2.4145620     1.0741370    -0.8814520
  H        3.5546530     0.0364140    -0.0000210
  H        2.4145820     1.0741970     0.8813660
  H       -2.9679600    -0.9049730    -0.0000050
  H       -2.3195540     1.8284960    -0.0000070
units angstrom
no_reorient  #important for SAPT in psi4, default
symmetry c1  #important for SAPT in psi4, default
}

set PROPERTIES_ORIGIN ["COM"]
properties('MP2/aug-cc-pvtz', properties = ['dipole'])
--------------------------------------------------------------------------

    Molecular point group: c1
  Charge       = 0
  Multiplicity = 1
  Basis Set: AUG-CC-PVTZ
    Blend: AUG-CC-PVTZ
  Basis Set: (AUG-CC-PVTZ AUX)
    Blend: AUG-CC-PVTZ-JKFIT

    Orbital Energies [Eh]
    ---------------------

    Doubly Occupied:

       1A    -20.634157     2A    -15.560895     3A    -11.338861
       4A    -11.292304     5A    -11.263514     6A    -11.247944
       7A    -11.220340     8A     -1.469501     9A     -1.226915
      10A     -1.082034    11A     -0.996155    12A     -0.884043
      13A     -0.825810    14A     -0.779017    15A     -0.715057
      16A     -0.664819    17A     -0.628443    18A     -0.607260
      19A     -0.585842    20A     -0.574876    21A     -0.525032
      22A     -0.514203    23A     -0.504340    24A     -0.457232
      25A     -0.450589    26A     -0.333513

  @DF-RHF Final Energy:  -322.82562013886229

   => Energetics <=

    Nuclear Repulsion Energy =            291.9143633313997839
    One-Electron Energy =               -1016.7145785852452491
    Two-Electron Energy =                 401.9745951149831171
    Total Energy =                       -322.8256201388622912
  Basis Set: (AUG-CC-PVTZ AUX)
    Blend: AUG-CC-PVTZ-RI
    Molecular point group: c1

    Geometry (in Angstrom), charge = 0, multiplicity = 1:

       Center              X                  Y                   Z               Mass
    ------------   -----------------  -----------------  -----------------  -----------------
         O           -0.808234752526    -1.115612830295    -0.000011914855    15.994914619570
         N           -0.234716452526     1.065916069705     0.000017785145    14.003074004430
         C            1.583734547474    -0.685401930295     0.000024785145    12.000000000000
         C            0.184824547474    -0.172304930295     0.000002785145    12.000000000000
         C            2.602636547474     0.449842069705    -0.000023214855    12.000000000000
         C           -1.974840452526    -0.351620930295    -0.000013214855    12.000000000000
         C           -1.620987452526     0.961916069705     0.000004785145    12.000000000000
         H            1.722853547474    -1.329634930295     0.876432785145     1.007825032230
         H            1.722854547474    -1.329715930295    -0.876322214855     1.007825032230
         H            2.477430547474     1.081367069705    -0.881452214855     1.007825032230
         H            3.617521547474     0.043644069705    -0.000021214855     1.007825032230
         H            2.477450547474     1.081427069705     0.881365785145     1.007825032230
         H           -2.905091452526    -0.897742930295    -0.000005214855     1.007825032230
         H           -2.256685452526     1.835726069705    -0.000007214855     1.007825032230

  Basis Set: AUG-CC-PVTZ
    Blend: AUG-CC-PVTZ
  Basis Set: (AUG-CC-PVTZ AUX)
    Blend: AUG-CC-PVTZ-JKFIT
	 Reference Energy          =    -322.8256201388622912 [Eh]
	 Singles Energy            =      -0.0000000000000000 [Eh]
	 Same-Spin Energy          =      -0.3357470368613111 [Eh]
	 Opposite-Spin Energy      =      -1.0625277723702942 [Eh]
	 Correlation Energy        =      -1.3982748092316053 [Eh]
	 Total Energy              =    -324.2238949480939141 [Eh]

	 ================> DF-SCS-MP2 Energies <==================
	-----------------------------------------------------------
	 SCS Same-Spin Scale       =       0.3333333333333333 [-]
	 SCS Opposite-Spin Scale   =       1.2000000000000000 [-]
	 SCS Same-Spin Energy      =      -0.1119156789537704 [Eh]
	 SCS Opposite-Spin Energy  =      -1.2750333268443530 [Eh]
	 SCS Correlation Energy    =      -1.3869490057981233 [Eh]
	 SCS Total Energy          =    -324.2125691446603923 [Eh]
	-----------------------------------------------------------

  Dipole Moment: [D]
     X:    -0.4102      Y:    -1.1186      Z:    -0.0000     Total:     1.1914

*** Psi4 exiting successfully. Buy a developer a beer!
