                               Psi4 1.3.2 release

  ==> Input File <==

--------------------------------------------------------------------------
#psi4
#
memory 32 gb

molecule  {
0 1
  O       -0.8874150    -1.1053680    -0.0000120
  N       -0.2975850     1.0586860     0.0000180
  C        1.5208660    -0.6926320     0.0000250
  C        0.1269721    -0.1665189    -0.0219451
  C        2.5397680     0.4426120    -0.0000230
  C       -2.0377090    -0.3588510    -0.0000130
  C       -1.6838560     0.9546860     0.0000050
  H        1.6599850    -1.3368650     0.8764330
  H        1.6599860    -1.3369460    -0.8763220
  H        2.4145620     1.0741370    -0.8814520
  H        3.5546530     0.0364140    -0.0000210
  H        2.4145820     1.0741970     0.8813660
  H       -2.9679600    -0.9049730    -0.0000050
  H       -2.3195540     1.8284960    -0.0000070
units angstrom
no_reorient  #important for SAPT in psi4, default
symmetry c1  #important for SAPT in psi4, default
}

set PROPERTIES_ORIGIN ["COM"]
properties('MP2/aug-cc-pvtz', properties = ['dipole'])
--------------------------------------------------------------------------

    Molecular point group: c1
  Charge       = 0
  Multiplicity = 1
  Basis Set: AUG-CC-PVTZ
    Blend: AUG-CC-PVTZ
  Basis Set: (AUG-CC-PVTZ AUX)
    Blend: AUG-CC-PVTZ-JKFIT

    Orbital Energies [Eh]
    ---------------------

    Doubly Occupied:

       1A    -20.631710     2A    -15.561147     3A    -11.337013
       4A    -11.291449     5A    -11.260404     6A    -11.248769
       7A    -11.220803     8A     -1.471648     9A     -1.229608
      10A     -1.082413    11A     -0.996960    12A     -0.883992
      13A     -0.827084    14A     -0.778833    15A     -0.716730
      16A     -0.665350    17A     -0.630116    18A     -0.608529
      19A     -0.587206    20A     -0.570471    21A     -0.525543
      22A     -0.515560    23A     -0.504909    24A     -0.457515
      25A     -0.450949    26A     -0.332719

  @DF-RHF Final Energy:  -322.82676289427025

   => Energetics <=

    Nuclear Repulsion Energy =            292.3252750829726097
    One-Electron Energy =               -1017.5292182635672589
    Two-Electron Energy =                 402.3771802863244602
    Total Energy =                       -322.8267628942702459
  Basis Set: (AUG-CC-PVTZ AUX)
    Blend: AUG-CC-PVTZ-RI
    Molecular point group: c1

    Geometry (in Angstrom), charge = 0, multiplicity = 1:

       Center              X                  Y                   Z               Mass
    ------------   -----------------  -----------------  -----------------  -----------------
         O           -0.822478391392    -1.102627269044     0.002701587288    15.994914619570
         N           -0.232648391392     1.061426730956     0.002731587288    14.003074004430
         C            1.585802608608    -0.689891269044     0.002738587288    12.000000000000
         C            0.191908708608    -0.163778169044    -0.019231512712    12.000000000000
         C            2.604704608608     0.445352730956     0.002690587288    12.000000000000
         C           -1.972772391392    -0.356110269044     0.002700587288    12.000000000000
         C           -1.618919391392     0.957426730956     0.002718587288    12.000000000000
         H            1.724921608608    -1.334124269044     0.879146587288     1.007825032230
         H            1.724922608608    -1.334205269044    -0.873608412712     1.007825032230
         H            2.479498608608     1.076877730956    -0.878738412712     1.007825032230
         H            3.619589608608     0.039154730956     0.002692587288     1.007825032230
         H            2.479518608608     1.076937730956     0.884079587288     1.007825032230
         H           -2.903023391392    -0.902232269044     0.002708587288     1.007825032230
         H           -2.254617391392     1.831236730956     0.002706587288     1.007825032230

  Basis Set: AUG-CC-PVTZ
    Blend: AUG-CC-PVTZ
  Basis Set: (AUG-CC-PVTZ AUX)
    Blend: AUG-CC-PVTZ-JKFIT
	 Reference Energy          =    -322.8267628942702459 [Eh]
	 Singles Energy            =      -0.0000000000000000 [Eh]
	 Same-Spin Energy          =      -0.3356882916049251 [Eh]
	 Opposite-Spin Energy      =      -1.0619388263142477 [Eh]
	 Correlation Energy        =      -1.3976271179191728 [Eh]
	 Total Energy              =    -324.2243900121894171 [Eh]

	 ================> DF-SCS-MP2 Energies <==================
	-----------------------------------------------------------
	 SCS Same-Spin Scale       =       0.3333333333333333 [-]
	 SCS Opposite-Spin Scale   =       1.2000000000000000 [-]
	 SCS Same-Spin Energy      =      -0.1118960972016417 [Eh]
	 SCS Opposite-Spin Energy  =      -1.2743265915770972 [Eh]
	 SCS Correlation Energy    =      -1.3862226887787388 [Eh]
	 SCS Total Energy          =    -324.2129855830489760 [Eh]
	-----------------------------------------------------------

  Dipole Moment: [D]
     X:    -0.3439      Y:    -1.1463      Z:    -0.0073     Total:     1.1968

*** Psi4 exiting successfully. Buy a developer a beer!
