                               Psi4 1.3.2 release

  ==> Input File <==

--------------------------------------------------------------------------
#psi4
#
memory 32 gb

molecule  {
0 1
  O       -0.8874150    -1.1053680    -0.0000120
  N       -0.2975850     1.0586860     0.0000180
  C        1.5208660    -0.6926320     0.0000250
  C        0.1219560    -0.1795350     0.0000030
  C        2.5397680     0.4426120    -0.0000230
  C       -2.0833352    -0.3457015    -0.0000142
  C       -1.6838560     0.9546860     0.0000050
  H        1.6599850    -1.3368650     0.8764330
  H        1.6599860    -1.3369460    -0.8763220
  H        2.4145620     1.0741370    -0.8814520
  H        3.5546530     0.0364140    -0.0000210
  H        2.4145820     1.0741970     0.8813660
  H       -2.9679600    -0.9049730    -0.0000050
  H       -2.3195540     1.8284960    -0.0000070
units angstrom
no_reorient  #important for SAPT in psi4, default
symmetry c1  #important for SAPT in psi4, default
}

set PROPERTIES_ORIGIN ["COM"]
properties('MP2/aug-cc-pvtz', properties = ['dipole'])
--------------------------------------------------------------------------

    Molecular point group: c1
  Charge       = 0
  Multiplicity = 1
  Basis Set: AUG-CC-PVTZ
    Blend: AUG-CC-PVTZ
  Basis Set: (AUG-CC-PVTZ AUX)
    Blend: AUG-CC-PVTZ-JKFIT

    Orbital Energies [Eh]
    ---------------------

    Doubly Occupied:

       1A    -20.628129     2A    -15.560028     3A    -11.339909
       4A    -11.290177     5A    -11.265256     6A    -11.249150
       7A    -11.221092     8A     -1.459758     9A     -1.223345
      10A     -1.082340    11A     -0.998984    12A     -0.884244
      13A     -0.827341    14A     -0.775299    15A     -0.715644
      16A     -0.661141    17A     -0.635914    18A     -0.605622
      19A     -0.585919    20A     -0.566830    21A     -0.526320
      22A     -0.515064    23A     -0.504828    24A     -0.457177
      25A     -0.447884    26A     -0.335631

  @DF-RHF Final Energy:  -322.82385168584364

   => Energetics <=

    Nuclear Repulsion Energy =            291.4155363069464784
    One-Electron Energy =               -1015.7527252310155745
    Two-Electron Energy =                 401.5133372382254606
    Total Energy =                       -322.8238516858436356
  Basis Set: (AUG-CC-PVTZ AUX)
    Blend: AUG-CC-PVTZ-RI
    Molecular point group: c1

    Geometry (in Angstrom), charge = 0, multiplicity = 1:

       Center              X                  Y                   Z               Mass
    ------------   -----------------  -----------------  -----------------  -----------------
         O           -0.816216770642    -1.102643763165    -0.000012017040    15.994914619570
         N           -0.226386770642     1.061410236835     0.000017982960    14.003074004430
         C            1.592064229358    -0.689907763165     0.000024982960    12.000000000000
         C            0.193154229358    -0.176810763165     0.000002982960    12.000000000000
         C            2.610966229358     0.445336236835    -0.000023017040    12.000000000000
         C           -2.012136970642    -0.342977263165    -0.000014217040    12.000000000000
         C           -1.612657770642     0.957410236835     0.000004982960    12.000000000000
         H            1.731183229358    -1.334140763165     0.876432982960     1.007825032230
         H            1.731184229358    -1.334221763165    -0.876322017040     1.007825032230
         H            2.485760229358     1.076861236835    -0.881452017040     1.007825032230
         H            3.625851229358     0.039138236835    -0.000021017040     1.007825032230
         H            2.485780229358     1.076921236835     0.881365982960     1.007825032230
         H           -2.896761770642    -0.902248763165    -0.000005017040     1.007825032230
         H           -2.248355770642     1.831220236835    -0.000007017040     1.007825032230

  Basis Set: AUG-CC-PVTZ
    Blend: AUG-CC-PVTZ
  Basis Set: (AUG-CC-PVTZ AUX)
    Blend: AUG-CC-PVTZ-JKFIT
	 Reference Energy          =    -322.8238516858436356 [Eh]
	 Singles Energy            =      -0.0000000000000000 [Eh]
	 Same-Spin Energy          =      -0.3355864342210572 [Eh]
	 Opposite-Spin Energy      =      -1.0624662867818380 [Eh]
	 Correlation Energy        =      -1.3980527210028950 [Eh]
	 Total Energy              =    -324.2219044068465337 [Eh]

	 ================> DF-SCS-MP2 Energies <==================
	-----------------------------------------------------------
	 SCS Same-Spin Scale       =       0.3333333333333333 [-]
	 SCS Opposite-Spin Scale   =       1.2000000000000000 [-]
	 SCS Same-Spin Energy      =      -0.1118621447403524 [Eh]
	 SCS Opposite-Spin Energy  =      -1.2749595441382056 [Eh]
	 SCS Correlation Energy    =      -1.3868216888785581 [Eh]
	 SCS Total Energy          =    -324.2106733747222052 [Eh]
	-----------------------------------------------------------

  Dipole Moment: [D]
     X:    -0.4015      Y:    -1.1417      Z:    -0.0000     Total:     1.2102

*** Psi4 exiting successfully. Buy a developer a beer!
