                               Psi4 1.3.2 release

  ==> Input File <==

--------------------------------------------------------------------------
#psi4
#
memory 32 gb

molecule  {
0 1
  O       -0.8874150    -1.1053680    -0.0000120
  N       -0.3191310     1.0511754     0.0000174
  C        1.5208660    -0.6926320     0.0000250
  C        0.1219560    -0.1795350     0.0000030
  C        2.5397680     0.4426120    -0.0000230
  C       -2.0377090    -0.3588510    -0.0000130
  C       -1.6838560     0.9546860     0.0000050
  H        1.6599850    -1.3368650     0.8764330
  H        1.6599860    -1.3369460    -0.8763220
  H        2.4145620     1.0741370    -0.8814520
  H        3.5546530     0.0364140    -0.0000210
  H        2.4145820     1.0741970     0.8813660
  H       -2.9679600    -0.9049730    -0.0000050
  H       -2.3195540     1.8284960    -0.0000070
units angstrom
no_reorient  #important for SAPT in psi4, default
symmetry c1  #important for SAPT in psi4, default
}

set PROPERTIES_ORIGIN ["COM"]
properties('MP2/aug-cc-pvtz', properties = ['dipole'])
--------------------------------------------------------------------------

    Molecular point group: c1
  Charge       = 0
  Multiplicity = 1
  Basis Set: AUG-CC-PVTZ
    Blend: AUG-CC-PVTZ
  Basis Set: (AUG-CC-PVTZ AUX)
    Blend: AUG-CC-PVTZ-JKFIT

    Orbital Energies [Eh]
    ---------------------

    Doubly Occupied:

       1A    -20.634104     2A    -15.558148     3A    -11.337202
       4A    -11.289398     5A    -11.258498     6A    -11.249527
       7A    -11.221368     8A     -1.477011     9A     -1.230146
      10A     -1.083552    11A     -0.996868    12A     -0.884066
      13A     -0.828450    14A     -0.782665    15A     -0.717556
      16A     -0.667473    17A     -0.630354    18A     -0.609542
      19A     -0.588643    20A     -0.571973    21A     -0.527127
      22A     -0.515906    23A     -0.505407    24A     -0.453985
      25A     -0.451925    26A     -0.329748

  @DF-RHF Final Energy:  -322.82699218549794

   => Energetics <=

    Nuclear Repulsion Energy =            292.6789497392708199
    One-Electron Energy =               -1018.2105998833814056
    Two-Electron Energy =                 402.7046579586126427
    Total Energy =                       -322.8269921854979430
  Basis Set: (AUG-CC-PVTZ AUX)
    Blend: AUG-CC-PVTZ-RI
    Molecular point group: c1

    Geometry (in Angstrom), charge = 0, multiplicity = 1:

       Center              X                  Y                   Z               Mass
    ------------   -----------------  -----------------  -----------------  -----------------
         O           -0.818749456552    -1.099934252614    -0.000012078843    15.994914619570
         N           -0.250465456552     1.056609147386     0.000017321157    14.003074004430
         C            1.589531543448    -0.687198252614     0.000024921157    12.000000000000
         C            0.190621543448    -0.174101252614     0.000002921157    12.000000000000
         C            2.608433543448     0.448045747386    -0.000023078843    12.000000000000
         C           -1.969043456552    -0.353417252614    -0.000013078843    12.000000000000
         C           -1.615190456552     0.960119747386     0.000004921157    12.000000000000
         H            1.728650543448    -1.331431252614     0.876432921157     1.007825032230
         H            1.728651543448    -1.331512252614    -0.876322078843     1.007825032230
         H            2.483227543448     1.079570747386    -0.881452078843     1.007825032230
         H            3.623318543448     0.041847747386    -0.000021078843     1.007825032230
         H            2.483247543448     1.079630747386     0.881365921157     1.007825032230
         H           -2.899294456552    -0.899539252614    -0.000005078843     1.007825032230
         H           -2.250888456552     1.833929747386    -0.000007078843     1.007825032230

  Basis Set: AUG-CC-PVTZ
    Blend: AUG-CC-PVTZ
  Basis Set: (AUG-CC-PVTZ AUX)
    Blend: AUG-CC-PVTZ-JKFIT
	 Reference Energy          =    -322.8269921854979430 [Eh]
	 Singles Energy            =      -0.0000000000000000 [Eh]
	 Same-Spin Energy          =      -0.3360080954825092 [Eh]
	 Opposite-Spin Energy      =      -1.0616677546753295 [Eh]
	 Correlation Energy        =      -1.3976758501578386 [Eh]
	 Total Energy              =    -324.2246680356557818 [Eh]

	 ================> DF-SCS-MP2 Energies <==================
	-----------------------------------------------------------
	 SCS Same-Spin Scale       =       0.3333333333333333 [-]
	 SCS Opposite-Spin Scale   =       1.2000000000000000 [-]
	 SCS Same-Spin Energy      =      -0.1120026984941697 [Eh]
	 SCS Opposite-Spin Energy  =      -1.2740013056103954 [Eh]
	 SCS Correlation Energy    =      -1.3860040041045651 [Eh]
	 SCS Total Energy          =    -324.2129961896025065 [Eh]
	-----------------------------------------------------------

  Dipole Moment: [D]
     X:    -0.3258      Y:    -1.1661      Z:    -0.0000     Total:     1.2107

*** Psi4 exiting successfully. Buy a developer a beer!
