                               Psi4 1.4a3.dev225

  ==> Input File <==

--------------------------------------------------------------------------
#psi4
#
memory 32 gb

molecule  {
0 1
  O       -0.8874150    -1.1053680    -0.0000120
  N       -0.2975850     1.0586860     0.0000180
  C        1.5208660    -0.6926320     0.0000250
  C        0.1366949    -0.1660159     0.0000032
  C        2.5397680     0.4426120    -0.0000230
  C       -2.0377090    -0.3588510    -0.0000130
  C       -1.6838560     0.9546860     0.0000050
  H        1.6599850    -1.3368650     0.8764330
  H        1.6599860    -1.3369460    -0.8763220
  H        2.4145620     1.0741370    -0.8814520
  H        3.5546530     0.0364140    -0.0000210
  H        2.4145820     1.0741970     0.8813660
  H       -2.9679600    -0.9049730    -0.0000050
  H       -2.3195540     1.8284960    -0.0000070
units angstrom
no_reorient  #important for SAPT in psi4, default
symmetry c1  #important for SAPT in psi4, default
}

set PROPERTIES_ORIGIN ["COM"]
properties('MP2/aug-cc-pvtz', properties = ['dipole'])
--------------------------------------------------------------------------

    Molecular point group: c1
  Charge       = 0
  Multiplicity = 1
  Basis Set: AUG-CC-PVTZ
    Blend: AUG-CC-PVTZ
  Basis Set: (AUG-CC-PVTZ AUX)
    Blend: AUG-CC-PVTZ-JKFIT

    Orbital Energies [Eh]
    ---------------------

    Doubly Occupied:

       1A    -20.630409     2A    -15.561560     3A    -11.337446
       4A    -11.291464     5A    -11.259984     6A    -11.248844
       7A    -11.221276     8A     -1.468254     9A     -1.228030
      10A     -1.084152    11A     -0.996693    12A     -0.885300
      13A     -0.825983    14A     -0.777671    15A     -0.716321
      16A     -0.664409    17A     -0.630653    18A     -0.608328
      19A     -0.588412    20A     -0.568934    21A     -0.525994
      22A     -0.516977    23A     -0.505662    24A     -0.456286
      25A     -0.450335    26A     -0.332048

  @DF-RHF Final Energy:  -322.82613311395670

   => Energetics <=

    Nuclear Repulsion Energy =            292.2454245068676073
    One-Electron Energy =               -1017.3802632352021647
    Two-Electron Energy =                 402.3087056143778568
    Total Energy =                       -322.8261331139567005
  Basis Set: (AUG-CC-PVTZ AUX)
    Blend: AUG-CC-PVTZ-RI
    Molecular point group: c1

    Geometry (in Angstrom), charge = 0, multiplicity = 1:

       Center              X                  Y                   Z               Mass
    ------------   -----------------  -----------------  -----------------  -----------------
         O           -0.823680558084    -1.102689462018    -0.000012190141    15.994914619570
         N           -0.233850558084     1.061364537982     0.000017809859    14.003074004430
         C            1.584600441916    -0.689953462018     0.000024809859    12.000000000000
         C            0.200429341916    -0.163337362018     0.000003009859    12.000000000000
         C            2.603502441916     0.445290537982    -0.000023190141    12.000000000000
         C           -1.973974558084    -0.356172462018    -0.000013190141    12.000000000000
         C           -1.620121558084     0.957364537982     0.000004809859    12.000000000000
         H            1.723719441916    -1.334186462018     0.876432809859     1.007825032230
         H            1.723720441916    -1.334267462018    -0.876322190141     1.007825032230
         H            2.478296441916     1.076815537982    -0.881452190141     1.007825032230
         H            3.618387441916     0.039092537982    -0.000021190141     1.007825032230
         H            2.478316441916     1.076875537982     0.881365809859     1.007825032230
         H           -2.904225558084    -0.902294462018    -0.000005190141     1.007825032230
         H           -2.255819558084     1.831174537982    -0.000007190141     1.007825032230

  Basis Set: AUG-CC-PVTZ
    Blend: AUG-CC-PVTZ
  Basis Set: (AUG-CC-PVTZ AUX)
    Blend: AUG-CC-PVTZ-JKFIT
	 Reference Energy          =    -322.8261331139567005 [Eh]
	 Singles Energy            =      -0.0000000000000000 [Eh]
	 Same-Spin Energy          =      -0.3358992821011885 [Eh]
	 Opposite-Spin Energy      =      -1.0622908609457173 [Eh]
	 Correlation Energy        =      -1.3981901430469059 [Eh]
	 Total Energy              =    -324.2243232570036184 [Eh]

	 ================> DF-SCS-MP2 Energies <==================
	-----------------------------------------------------------
	 SCS Same-Spin Scale       =       0.3333333333333333 [-]
	 SCS Opposite-Spin Scale   =       1.2000000000000000 [-]
	 SCS Same-Spin Energy      =      -0.1119664273670628 [Eh]
	 SCS Opposite-Spin Energy  =      -1.2747490331348608 [Eh]
	 SCS Correlation Energy    =      -1.3867154605019236 [Eh]
	 SCS Total Energy          =    -324.2128485744586328 [Eh]
	-----------------------------------------------------------

  Dipole Moment: [D]
     X:    -0.3093      Y:    -1.1447      Z:    -0.0000     Total:     1.1857

*** Psi4 exiting successfully. Buy a developer a beer!
