                               Psi4 1.3.2 release

  ==> Input File <==

--------------------------------------------------------------------------
#psi4
#
memory 32 gb

molecule  {
0 1
  O       -0.8874150    -1.1053680    -0.0000120
  N       -0.2959811     1.0344764     0.0000182
  C        1.5208660    -0.6926320     0.0000250
  C        0.1219560    -0.1795350     0.0000030
  C        2.5397680     0.4426120    -0.0000230
  C       -2.0377090    -0.3588510    -0.0000130
  C       -1.6838560     0.9546860     0.0000050
  H        1.6599850    -1.3368650     0.8764330
  H        1.6599860    -1.3369460    -0.8763220
  H        2.4145620     1.0741370    -0.8814520
  H        3.5546530     0.0364140    -0.0000210
  H        2.4145820     1.0741970     0.8813660
  H       -2.9679600    -0.9049730    -0.0000050
  H       -2.3195540     1.8284960    -0.0000070
units angstrom
no_reorient  #important for SAPT in psi4, default
symmetry c1  #important for SAPT in psi4, default
}

set PROPERTIES_ORIGIN ["COM"]
properties('MP2/aug-cc-pvtz', properties = ['dipole'])
--------------------------------------------------------------------------

    Molecular point group: c1
  Charge       = 0
  Multiplicity = 1
  Basis Set: AUG-CC-PVTZ
    Blend: AUG-CC-PVTZ
  Basis Set: (AUG-CC-PVTZ AUX)
    Blend: AUG-CC-PVTZ-JKFIT

    Orbital Energies [Eh]
    ---------------------

    Doubly Occupied:

       1A    -20.631367     2A    -15.556952     3A    -11.333055
       4A    -11.291542     5A    -11.260667     6A    -11.247784
       7A    -11.220421     8A     -1.476546     9A     -1.231450
      10A     -1.082385    11A     -0.998370    12A     -0.883691
      13A     -0.829708    14A     -0.778310    15A     -0.717893
      16A     -0.667623    17A     -0.630584    18A     -0.608612
      19A     -0.589150    20A     -0.570993    21A     -0.526168
      22A     -0.514514    23A     -0.504449    24A     -0.453885
      25A     -0.451209    26A     -0.334159

  @DF-RHF Final Energy:  -322.82876731268283

   => Energetics <=

    Nuclear Repulsion Energy =            292.9460827620841883
    One-Electron Energy =               -1018.7667272755408021
    Two-Electron Energy =                 402.9918772007737857
    Total Energy =                       -322.8287673126828281
  Basis Set: (AUG-CC-PVTZ AUX)
    Blend: AUG-CC-PVTZ-RI
    Molecular point group: c1

    Geometry (in Angstrom), charge = 0, multiplicity = 1:

       Center              X                  Y                   Z               Mass
    ------------   -----------------  -----------------  -----------------  -----------------
         O           -0.822089595977    -1.097524869063    -0.000012194269    15.994914619570
         N           -0.230655695977     1.042319530937     0.000018005731    14.003074004430
         C            1.586191404023    -0.684788869063     0.000024805731    12.000000000000
         C            0.187281404023    -0.171691869063     0.000002805731    12.000000000000
         C            2.605093404023     0.450455130937    -0.000023194269    12.000000000000
         C           -1.972383595977    -0.351007869063    -0.000013194269    12.000000000000
         C           -1.618530595977     0.962529130937     0.000004805731    12.000000000000
         H            1.725310404023    -1.329021869063     0.876432805731     1.007825032230
         H            1.725311404023    -1.329102869063    -0.876322194269     1.007825032230
         H            2.479887404023     1.081980130937    -0.881452194269     1.007825032230
         H            3.619978404023     0.044257130937    -0.000021194269     1.007825032230
         H            2.479907404023     1.082040130937     0.881365805731     1.007825032230
         H           -2.902634595977    -0.897129869063    -0.000005194269     1.007825032230
         H           -2.254228595977     1.836339130937    -0.000007194269     1.007825032230

  Basis Set: AUG-CC-PVTZ
    Blend: AUG-CC-PVTZ
  Basis Set: (AUG-CC-PVTZ AUX)
    Blend: AUG-CC-PVTZ-JKFIT
	 Reference Energy          =    -322.8287673126828281 [Eh]
	 Singles Energy            =      -0.0000000000000000 [Eh]
	 Same-Spin Energy          =      -0.3352202495896005 [Eh]
	 Opposite-Spin Energy      =      -1.0607440540585378 [Eh]
	 Correlation Energy        =      -1.3959643036481384 [Eh]
	 Total Energy              =    -324.2247316163309847 [Eh]

	 ================> DF-SCS-MP2 Energies <==================
	-----------------------------------------------------------
	 SCS Same-Spin Scale       =       0.3333333333333333 [-]
	 SCS Opposite-Spin Scale   =       1.2000000000000000 [-]
	 SCS Same-Spin Energy      =      -0.1117400831965335 [Eh]
	 SCS Opposite-Spin Energy  =      -1.2728928648702453 [Eh]
	 SCS Correlation Energy    =      -1.3846329480667787 [Eh]
	 SCS Total Energy          =    -324.2134002607496086 [Eh]
	-----------------------------------------------------------

  Dipole Moment: [D]
     X:    -0.3731      Y:    -1.1237      Z:    -0.0000     Total:     1.1840

*** Psi4 exiting successfully. Buy a developer a beer!
