                               Psi4 1.3.2 release

  ==> Input File <==

--------------------------------------------------------------------------
#psi4
#
memory 32 gb

molecule  {
0 1
  O       -0.9786615    -0.9947882    -0.0000108
  N       -0.2975850     1.0586860     0.0000180
  C        1.5208660    -0.6926320     0.0000250
  C        0.1219560    -0.1795350     0.0000030
  C        2.5397680     0.4426120    -0.0000230
  C       -2.0377090    -0.3588510    -0.0000130
  C       -1.6838560     0.9546860     0.0000050
  H        1.6599850    -1.3368650     0.8764330
  H        1.6599860    -1.3369460    -0.8763220
  H        2.4145620     1.0741370    -0.8814520
  H        3.5546530     0.0364140    -0.0000210
  H        2.4145820     1.0741970     0.8813660
  H       -2.9679600    -0.9049730    -0.0000050
  H       -2.3195540     1.8284960    -0.0000070
units angstrom
no_reorient  #important for SAPT in psi4, default
symmetry c1  #important for SAPT in psi4, default
}

set PROPERTIES_ORIGIN ["COM"]
properties('MP2/aug-cc-pvtz', properties = ['dipole'])
--------------------------------------------------------------------------

    Molecular point group: c1
  Charge       = 0
  Multiplicity = 1
  Basis Set: AUG-CC-PVTZ
    Blend: AUG-CC-PVTZ
  Basis Set: (AUG-CC-PVTZ AUX)
    Blend: AUG-CC-PVTZ-JKFIT

    Orbital Energies [Eh]
    ---------------------

    Doubly Occupied:

       1A    -20.634350     2A    -15.559789     3A    -11.330817
       4A    -11.283545     5A    -11.253267     6A    -11.242580
       7A    -11.223431     8A     -1.529235     9A     -1.225643
      10A     -1.085735    11A     -1.005752    12A     -0.884209
      13A     -0.846596    14A     -0.781881    15A     -0.735597
      16A     -0.688530    17A     -0.644369    18A     -0.619538
      19A     -0.579358    20A     -0.549312    21A     -0.533903
      22A     -0.516232    23A     -0.508262    24A     -0.455589
      25A     -0.443776    26A     -0.321422

  @DF-RHF Final Energy:  -322.81065104196335

   => Energetics <=

    Nuclear Repulsion Energy =            295.2705221408061789
    One-Electron Energy =               -1023.1969110203872333
    Two-Electron Energy =                 405.1157378376177007
    Total Energy =                       -322.8106510419633537
  Basis Set: (AUG-CC-PVTZ AUX)
    Blend: AUG-CC-PVTZ-RI
    Molecular point group: c1

    Geometry (in Angstrom), charge = 0, multiplicity = 1:

       Center              X                  Y                   Z               Mass
    ------------   -----------------  -----------------  -----------------  -----------------
         O           -0.898066675010    -1.008662361765    -0.000011163180    15.994914619570
         N           -0.216990175010     1.044811838235     0.000017636820    14.003074004430
         C            1.601460824990    -0.706506161765     0.000024636820    12.000000000000
         C            0.202550824990    -0.193409161765     0.000002636820    12.000000000000
         C            2.620362824990     0.428737838235    -0.000023363180    12.000000000000
         C           -1.957114175010    -0.372725161765    -0.000013363180    12.000000000000
         C           -1.603261175010     0.940811838235     0.000004636820    12.000000000000
         H            1.740579824990    -1.350739161765     0.876432636820     1.007825032230
         H            1.740580824990    -1.350820161765    -0.876322363180     1.007825032230
         H            2.495156824990     1.060262838235    -0.881452363180     1.007825032230
         H            3.635247824990     0.022539838235    -0.000021363180     1.007825032230
         H            2.495176824990     1.060322838235     0.881365636820     1.007825032230
         H           -2.887365175010    -0.918847161765    -0.000005363180     1.007825032230
         H           -2.238959175010     1.814621838235    -0.000007363180     1.007825032230

  Basis Set: AUG-CC-PVTZ
    Blend: AUG-CC-PVTZ
  Basis Set: (AUG-CC-PVTZ AUX)
    Blend: AUG-CC-PVTZ-JKFIT
	 Reference Energy          =    -322.8106510419633537 [Eh]
	 Singles Energy            =      -0.0000000000000000 [Eh]
	 Same-Spin Energy          =      -0.3363920397041307 [Eh]
	 Opposite-Spin Energy      =      -1.0589622135433432 [Eh]
	 Correlation Energy        =      -1.3953542532474739 [Eh]
	 Total Energy              =    -324.2060052952108435 [Eh]

	 ================> DF-SCS-MP2 Energies <==================
	-----------------------------------------------------------
	 SCS Same-Spin Scale       =       0.3333333333333333 [-]
	 SCS Opposite-Spin Scale   =       1.2000000000000000 [-]
	 SCS Same-Spin Energy      =      -0.1121306799013769 [Eh]
	 SCS Opposite-Spin Energy  =      -1.2707546562520118 [Eh]
	 SCS Correlation Energy    =      -1.3828853361533886 [Eh]
	 SCS Total Energy          =    -324.1935363781167325 [Eh]
	-----------------------------------------------------------

  Dipole Moment: [D]
     X:    -0.1331      Y:    -1.6241      Z:    -0.0000     Total:     1.6296

*** Psi4 exiting successfully. Buy a developer a beer!
