                               Psi4 1.4a3.dev225

  ==> Input File <==

--------------------------------------------------------------------------
#psi4
#
memory 32 gb

molecule  {
0 1
  O       -0.8874150    -1.1053680    -0.0000120
  N       -0.2975850     1.0586860     0.0000180
  C        1.5208660    -0.6926320     0.0000250
  C        0.1072171    -0.1930541     0.0000028
  C        2.5397680     0.4426120    -0.0000230
  C       -2.0377090    -0.3588510    -0.0000130
  C       -1.6838560     0.9546860     0.0000050
  H        1.6599850    -1.3368650     0.8764330
  H        1.6599860    -1.3369460    -0.8763220
  H        2.4145620     1.0741370    -0.8814520
  H        3.5546530     0.0364140    -0.0000210
  H        2.4145820     1.0741970     0.8813660
  H       -2.9679600    -0.9049730    -0.0000050
  H       -2.3195540     1.8284960    -0.0000070
units angstrom
no_reorient  #important for SAPT in psi4, default
symmetry c1  #important for SAPT in psi4, default
}

set PROPERTIES_ORIGIN ["COM"]
properties('MP2/aug-cc-pvtz', properties = ['dipole'])
--------------------------------------------------------------------------

    Molecular point group: c1
  Charge       = 0
  Multiplicity = 1
  Basis Set: AUG-CC-PVTZ
    Blend: AUG-CC-PVTZ
  Basis Set: (AUG-CC-PVTZ AUX)
    Blend: AUG-CC-PVTZ-JKFIT

    Orbital Energies [Eh]
    ---------------------

    Doubly Occupied:

       1A    -20.638094     2A    -15.559855     3A    -11.338229
       4A    -11.290125     5A    -11.261348     6A    -11.248737
       7A    -11.220448     8A     -1.485344     9A     -1.224590
      10A     -1.081357    11A     -0.997638    12A     -0.883048
      13A     -0.829771    14A     -0.782847    15A     -0.718007
      16A     -0.670450    17A     -0.630555    18A     -0.609889
      19A     -0.582270    20A     -0.574847    21A     -0.527415
      22A     -0.512174    23A     -0.504283    24A     -0.457557
      25A     -0.448571    26A     -0.331947

  @DF-RHF Final Energy:  -322.82716550488129

   => Energetics <=

    Nuclear Repulsion Energy =            292.4486274702070432
    One-Electron Energy =               -1017.7327937689439068
    Two-Electron Energy =                 402.4570007938555705
    Total Energy =                       -322.8271655048812931
  Basis Set: (AUG-CC-PVTZ AUX)
    Blend: AUG-CC-PVTZ-RI
    Molecular point group: c1

    Geometry (in Angstrom), charge = 0, multiplicity = 1:

       Center              X                  Y                   Z               Mass
    ------------   -----------------  -----------------  -----------------  -----------------
         O           -0.820035802530    -1.099346348570    -0.000012140684    15.994914619570
         N           -0.230205802530     1.064707651430     0.000017859316    14.003074004430
         C            1.588245197470    -0.686610348570     0.000024859316    12.000000000000
         C            0.174596297470    -0.187032448570     0.000002659316    12.000000000000
         C            2.607147197470     0.448633651430    -0.000023140684    12.000000000000
         C           -1.970329802530    -0.352829348570    -0.000013140684    12.000000000000
         C           -1.616476802530     0.960707651430     0.000004859316    12.000000000000
         H            1.727364197470    -1.330843348570     0.876432859316     1.007825032230
         H            1.727365197470    -1.330924348570    -0.876322140684     1.007825032230
         H            2.481941197470     1.080158651430    -0.881452140684     1.007825032230
         H            3.622032197470     0.042435651430    -0.000021140684     1.007825032230
         H            2.481961197470     1.080218651430     0.881365859316     1.007825032230
         H           -2.900580802530    -0.898951348570    -0.000005140684     1.007825032230
         H           -2.252174802530     1.834517651430    -0.000007140684     1.007825032230

  Basis Set: AUG-CC-PVTZ
    Blend: AUG-CC-PVTZ
  Basis Set: (AUG-CC-PVTZ AUX)
    Blend: AUG-CC-PVTZ-JKFIT
	 Reference Energy          =    -322.8271655048812931 [Eh]
	 Singles Energy            =      -0.0000000000000000 [Eh]
	 Same-Spin Energy          =      -0.3356626555431823 [Eh]
	 Opposite-Spin Energy      =      -1.0615441682361528 [Eh]
	 Correlation Energy        =      -1.3972068237793351 [Eh]
	 Total Energy              =    -324.2243723286606496 [Eh]

	 ================> DF-SCS-MP2 Energies <==================
	-----------------------------------------------------------
	 SCS Same-Spin Scale       =       0.3333333333333333 [-]
	 SCS Opposite-Spin Scale   =       1.2000000000000000 [-]
	 SCS Same-Spin Energy      =      -0.1118875518477274 [Eh]
	 SCS Opposite-Spin Energy  =      -1.2738530018833834 [Eh]
	 SCS Correlation Energy    =      -1.3857405537311107 [Eh]
	 SCS Total Energy          =    -324.2129060586124183 [Eh]
	-----------------------------------------------------------

  Dipole Moment: [D]
     X:    -0.4223      Y:    -1.2200      Z:    -0.0000     Total:     1.2910

*** Psi4 exiting successfully. Buy a developer a beer!
