                               Psi4 1.3.2 release

  ==> Input File <==

--------------------------------------------------------------------------
#psi4
#
memory 32 gb

molecule  {
0 1
  O       -0.8874150    -1.1053680    -0.0000120
  N       -0.2975850     1.0586860     0.0000180
  C        1.5208660    -0.6926320     0.0000250
  C        0.1536522    -0.2153255     0.0000029
  C        2.5397680     0.4426120    -0.0000230
  C       -2.0377090    -0.3588510    -0.0000130
  C       -1.6838560     0.9546860     0.0000050
  H        1.6599850    -1.3368650     0.8764330
  H        1.6599860    -1.3369460    -0.8763220
  H        2.4145620     1.0741370    -0.8814520
  H        3.5546530     0.0364140    -0.0000210
  H        2.4145820     1.0741970     0.8813660
  H       -2.9679600    -0.9049730    -0.0000050
  H       -2.3195540     1.8284960    -0.0000070
units angstrom
no_reorient  #important for SAPT in psi4, default
symmetry c1  #important for SAPT in psi4, default
}

set PROPERTIES_ORIGIN ["COM"]
properties('MP2/aug-cc-pvtz', properties = ['dipole'])
--------------------------------------------------------------------------

    Molecular point group: c1
  Charge       = 0
  Multiplicity = 1
  Basis Set: AUG-CC-PVTZ
    Blend: AUG-CC-PVTZ
  Basis Set: (AUG-CC-PVTZ AUX)
    Blend: AUG-CC-PVTZ-JKFIT

    Orbital Energies [Eh]
    ---------------------

    Doubly Occupied:

       1A    -20.635502     2A    -15.561581     3A    -11.342144
       4A    -11.289327     5A    -11.259527     6A    -11.248985
       7A    -11.223153     8A     -1.473872     9A     -1.209958
      10A     -1.091889    11A     -0.996198    12A     -0.890784
      13A     -0.823764    14A     -0.778953    15A     -0.716332
      16A     -0.667703    17A     -0.634942    18A     -0.610341
      19A     -0.584965    20A     -0.568370    21A     -0.533225
      22A     -0.517953    23A     -0.508055    24A     -0.450036
      25A     -0.441522    26A     -0.326606

  @DF-RHF Final Energy:  -322.81991691737238

   => Energetics <=

    Nuclear Repulsion Energy =            291.9756560736241795
    One-Electron Energy =               -1016.8197745808475929
    Two-Electron Energy =                 402.0242015898509749
    Total Energy =                       -322.8199169173723817
  Basis Set: (AUG-CC-PVTZ AUX)
    Blend: AUG-CC-PVTZ-RI
    Molecular point group: c1

    Geometry (in Angstrom), charge = 0, multiplicity = 1:

       Center              X                  Y                   Z               Mass
    ------------   -----------------  -----------------  -----------------  -----------------
         O           -0.825777227894    -1.096592621737    -0.000012153048    15.994914619570
         N           -0.235947227894     1.067461378263     0.000017846952    14.003074004430
         C            1.582503772106    -0.683856621737     0.000024846952    12.000000000000
         C            0.215289972106    -0.206550121737     0.000002746952    12.000000000000
         C            2.601405772106     0.451387378263    -0.000023153048    12.000000000000
         C           -1.976071227894    -0.350075621737    -0.000013153048    12.000000000000
         C           -1.622218227894     0.963461378263     0.000004846952    12.000000000000
         H            1.721622772106    -1.328089621737     0.876432846952     1.007825032230
         H            1.721623772106    -1.328170621737    -0.876322153048     1.007825032230
         H            2.476199772106     1.082912378263    -0.881452153048     1.007825032230
         H            3.616290772106     0.045189378263    -0.000021153048     1.007825032230
         H            2.476219772106     1.082972378263     0.881365846952     1.007825032230
         H           -2.906322227894    -0.896197621737    -0.000005153048     1.007825032230
         H           -2.257916227894     1.837271378263    -0.000007153048     1.007825032230

  Basis Set: AUG-CC-PVTZ
    Blend: AUG-CC-PVTZ
  Basis Set: (AUG-CC-PVTZ AUX)
    Blend: AUG-CC-PVTZ-JKFIT
	 Reference Energy          =    -322.8199169173723817 [Eh]
	 Singles Energy            =      -0.0000000000000000 [Eh]
	 Same-Spin Energy          =      -0.3372379702776165 [Eh]
	 Opposite-Spin Energy      =      -1.0639625827756021 [Eh]
	 Correlation Energy        =      -1.4012005530532186 [Eh]
	 Total Energy              =    -324.2211174704256109 [Eh]

	 ================> DF-SCS-MP2 Energies <==================
	-----------------------------------------------------------
	 SCS Same-Spin Scale       =       0.3333333333333333 [-]
	 SCS Opposite-Spin Scale   =       1.2000000000000000 [-]
	 SCS Same-Spin Energy      =      -0.1124126567592055 [Eh]
	 SCS Opposite-Spin Energy  =      -1.2767550993307224 [Eh]
	 SCS Correlation Energy    =      -1.3891677560899278 [Eh]
	 SCS Total Energy          =    -324.2090846734623142 [Eh]
	-----------------------------------------------------------

  Dipole Moment: [D]
     X:    -0.2888      Y:    -1.2683      Z:    -0.0000     Total:     1.3008

*** Psi4 exiting successfully. Buy a developer a beer!
