                               Psi4 1.3.2 release

  ==> Input File <==

--------------------------------------------------------------------------
#psi4
#
memory 32 gb

molecule  {
0 1
  O       -0.8874150    -1.1053680    -0.0000120
  N       -0.2975850     1.0586860     0.0000180
  C        1.5208660    -0.6926320     0.0000250
  C        0.1407150    -0.1310263     0.0000009
  C        2.5397680     0.4426120    -0.0000230
  C       -2.0377090    -0.3588510    -0.0000130
  C       -1.6838560     0.9546860     0.0000050
  H        1.6599850    -1.3368650     0.8764330
  H        1.6599860    -1.3369460    -0.8763220
  H        2.4145620     1.0741370    -0.8814520
  H        3.5546530     0.0364140    -0.0000210
  H        2.4145820     1.0741970     0.8813660
  H       -2.9679600    -0.9049730    -0.0000050
  H       -2.3195540     1.8284960    -0.0000070
units angstrom
no_reorient  #important for SAPT in psi4, default
symmetry c1  #important for SAPT in psi4, default
}

set PROPERTIES_ORIGIN ["COM"]
properties('MP2/aug-cc-pvtz', properties = ['dipole'])
--------------------------------------------------------------------------

    Molecular point group: c1
  Charge       = 0
  Multiplicity = 1
  Basis Set: AUG-CC-PVTZ
    Blend: AUG-CC-PVTZ
  Basis Set: (AUG-CC-PVTZ AUX)
    Blend: AUG-CC-PVTZ-JKFIT

    Orbital Energies [Eh]
    ---------------------

    Doubly Occupied:

       1A    -20.624467     2A    -15.561824     3A    -11.334834
       4A    -11.292864     5A    -11.259664     6A    -11.249006
       7A    -11.220839     8A     -1.459199     9A     -1.238851
      10A     -1.081832    11A     -0.996887    12A     -0.883583
      13A     -0.826250    14A     -0.774241    15A     -0.715624
      16A     -0.661135    17A     -0.628711    18A     -0.606569
      19A     -0.593642    20A     -0.565606    21A     -0.522888
      22A     -0.517178    23A     -0.505186    24A     -0.457621
      25A     -0.456057    26A     -0.334229

  @DF-RHF Final Energy:  -322.82475469990527

   => Energetics <=

    Nuclear Repulsion Energy =            292.3135747485499678
    One-Electron Energy =               -1017.5390842828005589
    Two-Electron Energy =                 402.4007548343453209
    Total Energy =                       -322.8247546999052702
  Basis Set: (AUG-CC-PVTZ AUX)
    Blend: AUG-CC-PVTZ-RI
    Molecular point group: c1

    Geometry (in Angstrom), charge = 0, multiplicity = 1:

       Center              X                  Y                   Z               Mass
    ------------   -----------------  -----------------  -----------------  -----------------
         O           -0.824177619662    -1.107015719028    -0.000011905760    15.994914619570
         N           -0.234347619662     1.057038280972     0.000018094240    14.003074004430
         C            1.584103380338    -0.694279719028     0.000025094240    12.000000000000
         C            0.203952380338    -0.132674019028     0.000000994240    12.000000000000
         C            2.603005380338     0.440964280972    -0.000022905760    12.000000000000
         C           -1.974471619662    -0.360498719028    -0.000012905760    12.000000000000
         C           -1.620618619662     0.953038280972     0.000005094240    12.000000000000
         H            1.723222380338    -1.338512719028     0.876433094240     1.007825032230
         H            1.723223380338    -1.338593719028    -0.876321905760     1.007825032230
         H            2.477799380338     1.072489280972    -0.881451905760     1.007825032230
         H            3.617890380338     0.034766280972    -0.000020905760     1.007825032230
         H            2.477819380338     1.072549280972     0.881366094240     1.007825032230
         H           -2.904722619662    -0.906620719028    -0.000004905760     1.007825032230
         H           -2.256316619662     1.826848280972    -0.000006905760     1.007825032230

  Basis Set: AUG-CC-PVTZ
    Blend: AUG-CC-PVTZ
  Basis Set: (AUG-CC-PVTZ AUX)
    Blend: AUG-CC-PVTZ-JKFIT
	 Reference Energy          =    -322.8247546999052702 [Eh]
	 Singles Energy            =      -0.0000000000000000 [Eh]
	 Same-Spin Energy          =      -0.3354484748301416 [Eh]
	 Opposite-Spin Energy      =      -1.0619461518979951 [Eh]
	 Correlation Energy        =      -1.3973946267281367 [Eh]
	 Total Energy              =    -324.2221493266334278 [Eh]

	 ================> DF-SCS-MP2 Energies <==================
	-----------------------------------------------------------
	 SCS Same-Spin Scale       =       0.3333333333333333 [-]
	 SCS Opposite-Spin Scale   =       1.2000000000000000 [-]
	 SCS Same-Spin Energy      =      -0.1118161582767139 [Eh]
	 SCS Opposite-Spin Energy  =      -1.2743353822775940 [Eh]
	 SCS Correlation Energy    =      -1.3861515405543079 [Eh]
	 SCS Total Energy          =    -324.2109062404595647 [Eh]
	-----------------------------------------------------------

  Dipole Moment: [D]
     X:    -0.2659      Y:    -1.0462      Z:    -0.0000     Total:     1.0795

*** Psi4 exiting successfully. Buy a developer a beer!
