                               Psi4 1.3.2 release

  ==> Input File <==

--------------------------------------------------------------------------
#psi4
#
memory 32 gb

molecule  {
0 1
  O       -0.8874150    -1.1053680    -0.0000120
  N       -0.2975850     1.0586860     0.0000180
  C        1.5208660    -0.6926320     0.0000250
  C        0.1219560    -0.1795350     0.0000030
  C        2.5397680     0.4426120    -0.0000230
  C       -2.0377090    -0.3588510    -0.0000130
  C       -1.5841362     0.9621671     0.0000059
  H        1.6599850    -1.3368650     0.8764330
  H        1.6599860    -1.3369460    -0.8763220
  H        2.4145620     1.0741370    -0.8814520
  H        3.5546530     0.0364140    -0.0000210
  H        2.4145820     1.0741970     0.8813660
  H       -2.9679600    -0.9049730    -0.0000050
  H       -2.3195540     1.8284960    -0.0000070
units angstrom
no_reorient  #important for SAPT in psi4, default
symmetry c1  #important for SAPT in psi4, default
}

set PROPERTIES_ORIGIN ["COM"]
properties('MP2/aug-cc-pvtz', properties = ['dipole'])
--------------------------------------------------------------------------

    Molecular point group: c1
  Charge       = 0
  Multiplicity = 1
  Basis Set: AUG-CC-PVTZ
    Blend: AUG-CC-PVTZ
  Basis Set: (AUG-CC-PVTZ AUX)
    Blend: AUG-CC-PVTZ-JKFIT

    Orbital Energies [Eh]
    ---------------------

    Doubly Occupied:

       1A    -20.638209     2A    -15.559109     3A    -11.339714
       4A    -11.287433     5A    -11.263119     6A    -11.249229
       7A    -11.222033     8A     -1.481358     9A     -1.258584
      10A     -1.083519    11A     -0.989155    12A     -0.880657
      13A     -0.832383    14A     -0.791698    15A     -0.715128
      16A     -0.670487    17A     -0.633563    18A     -0.610054
      19A     -0.591592    20A     -0.556461    21A     -0.527884
      22A     -0.516523    23A     -0.505765    24A     -0.468537
      25A     -0.460337    26A     -0.316589

  @DF-RHF Final Energy:  -322.81212398443142

   => Energetics <=

    Nuclear Repulsion Energy =            293.8327792249132813
    One-Electron Energy =               -1020.3915627885296544
    Two-Electron Energy =                 403.7466595791848931
    Total Energy =                       -322.8121239844314232
  Basis Set: (AUG-CC-PVTZ AUX)
    Blend: AUG-CC-PVTZ-RI
    Molecular point group: c1

    Geometry (in Angstrom), charge = 0, multiplicity = 1:

       Center              X                  Y                   Z               Mass
    ------------   -----------------  -----------------  -----------------  -----------------
         O           -0.834187943547    -1.101942899044    -0.000012276692    15.994914619570
         N           -0.244357943547     1.062111100956     0.000017723308    14.003074004430
         C            1.574093056453    -0.689206899044     0.000024723308    12.000000000000
         C            0.175183056453    -0.176109899044     0.000002723308    12.000000000000
         C            2.592995056453     0.446037100956    -0.000023276692    12.000000000000
         C           -1.984481943547    -0.355425899044    -0.000013276692    12.000000000000
         C           -1.530909143547     0.965592200956     0.000005623308    12.000000000000
         H            1.713212056453    -1.333439899044     0.876432723308     1.007825032230
         H            1.713213056453    -1.333520899044    -0.876322276692     1.007825032230
         H            2.467789056453     1.077562100956    -0.881452276692     1.007825032230
         H            3.607880056453     0.039839100956    -0.000021276692     1.007825032230
         H            2.467809056453     1.077622100956     0.881365723308     1.007825032230
         H           -2.914732943547    -0.901547899044    -0.000005276692     1.007825032230
         H           -2.266326943547     1.831921100956    -0.000007276692     1.007825032230

  Basis Set: AUG-CC-PVTZ
    Blend: AUG-CC-PVTZ
  Basis Set: (AUG-CC-PVTZ AUX)
    Blend: AUG-CC-PVTZ-JKFIT
	 Reference Energy          =    -322.8121239844314232 [Eh]
	 Singles Energy            =      -0.0000000000000000 [Eh]
	 Same-Spin Energy          =      -0.3379209821925736 [Eh]
	 Opposite-Spin Energy      =      -1.0633507935557560 [Eh]
	 Correlation Energy        =      -1.4012717757483295 [Eh]
	 Total Energy              =    -324.2133957601797647 [Eh]

	 ================> DF-SCS-MP2 Energies <==================
	-----------------------------------------------------------
	 SCS Same-Spin Scale       =       0.3333333333333333 [-]
	 SCS Opposite-Spin Scale   =       1.2000000000000000 [-]
	 SCS Same-Spin Energy      =      -0.1126403273975245 [Eh]
	 SCS Opposite-Spin Energy  =      -1.2760209522669073 [Eh]
	 SCS Correlation Energy    =      -1.3886612796644318 [Eh]
	 SCS Total Energy          =    -324.2007852640958276 [Eh]
	-----------------------------------------------------------

  Dipole Moment: [D]
     X:    -0.2827      Y:    -1.2008      Z:    -0.0000     Total:     1.2336

*** Psi4 exiting successfully. Buy a developer a beer!
