                               Psi4 1.3.2 release

  ==> Input File <==

--------------------------------------------------------------------------
#psi4
#
memory 32 gb

molecule  {
0 1
  O       -0.8874150    -1.1053680    -0.0000120
  N       -0.2975850     1.0586860     0.0000180
  C        1.5208660    -0.6926320     0.0000250
  C        0.1219560    -0.1795350     0.0000030
  C        2.5397680     0.4426120    -0.0000230
  C       -2.0377090    -0.3588510    -0.0000130
  C       -1.7358793     0.7615705     0.0000024
  H        1.6599850    -1.3368650     0.8764330
  H        1.6599860    -1.3369460    -0.8763220
  H        2.4145620     1.0741370    -0.8814520
  H        3.5546530     0.0364140    -0.0000210
  H        2.4145820     1.0741970     0.8813660
  H       -2.9679600    -0.9049730    -0.0000050
  H       -2.3195540     1.8284960    -0.0000070
units angstrom
no_reorient  #important for SAPT in psi4, default
symmetry c1  #important for SAPT in psi4, default
}

set PROPERTIES_ORIGIN ["COM"]
properties('MP2/aug-cc-pvtz', properties = ['dipole'])
--------------------------------------------------------------------------

    Molecular point group: c1
  Charge       = 0
  Multiplicity = 1
  Basis Set: AUG-CC-PVTZ
    Blend: AUG-CC-PVTZ
  Basis Set: (AUG-CC-PVTZ AUX)
    Blend: AUG-CC-PVTZ-JKFIT

    Orbital Energies [Eh]
    ---------------------

    Doubly Occupied:

       1A    -20.620911     2A    -15.561845     3A    -11.339586
       4A    -11.261831     5A    -11.248831     6A    -11.242502
       7A    -11.221226     8A     -1.479279     9A     -1.210937
      10A     -1.101132    11A     -1.027997    12A     -0.893576
      13A     -0.812349    14A     -0.768724    15A     -0.717253
      16A     -0.671653    17A     -0.625073    18A     -0.612819
      19A     -0.582125    20A     -0.538824    21A     -0.525215
      22A     -0.506404    23A     -0.501482    24A     -0.464287
      25A     -0.443686    26A     -0.377089

  @DF-RHF Final Energy:  -322.76279880101458

   => Energetics <=

    Nuclear Repulsion Energy =            294.8211290394215780
    One-Electron Energy =               -1022.4545818806733450
    Two-Electron Energy =                 404.8706540402371274
    Total Energy =                       -322.7627988010145828
  Basis Set: (AUG-CC-PVTZ AUX)
    Blend: AUG-CC-PVTZ-RI
    Molecular point group: c1

    Geometry (in Angstrom), charge = 0, multiplicity = 1:

       Center              X                  Y                   Z               Mass
    ------------   -----------------  -----------------  -----------------  -----------------
         O           -0.815425807078    -1.077140316361    -0.000011843938    15.994914619570
         N           -0.225595807078     1.086913683639     0.000018156062    14.003074004430
         C            1.592855192922    -0.664404316361     0.000025156062    12.000000000000
         C            0.193945192922    -0.151307316361     0.000003156062    12.000000000000
         C            2.611757192922     0.470839683639    -0.000022843938    12.000000000000
         C           -1.965719807078    -0.330623316361    -0.000012843938    12.000000000000
         C           -1.663890107078     0.789798183639     0.000002556062    12.000000000000
         H            1.731974192922    -1.308637316361     0.876433156062     1.007825032230
         H            1.731975192922    -1.308718316361    -0.876321843938     1.007825032230
         H            2.486551192922     1.102364683639    -0.881451843938     1.007825032230
         H            3.626642192922     0.064641683639    -0.000020843938     1.007825032230
         H            2.486571192922     1.102424683639     0.881366156062     1.007825032230
         H           -2.895970807078    -0.876745316361    -0.000004843938     1.007825032230
         H           -2.247564807078     1.856723683639    -0.000006843938     1.007825032230

  Basis Set: AUG-CC-PVTZ
    Blend: AUG-CC-PVTZ
  Basis Set: (AUG-CC-PVTZ AUX)
    Blend: AUG-CC-PVTZ-JKFIT
	 Reference Energy          =    -322.7627988010145828 [Eh]
	 Singles Energy            =      -0.0000000000000000 [Eh]
	 Same-Spin Energy          =      -0.3334244948508446 [Eh]
	 Opposite-Spin Energy      =      -1.0586720320010996 [Eh]
	 Correlation Energy        =      -1.3920965268519443 [Eh]
	 Total Energy              =    -324.1548953278665408 [Eh]

	 ================> DF-SCS-MP2 Energies <==================
	-----------------------------------------------------------
	 SCS Same-Spin Scale       =       0.3333333333333333 [-]
	 SCS Opposite-Spin Scale   =       1.2000000000000000 [-]
	 SCS Same-Spin Energy      =      -0.1111414982836149 [Eh]
	 SCS Opposite-Spin Energy  =      -1.2704064384013194 [Eh]
	 SCS Correlation Energy    =      -1.3815479366849344 [Eh]
	 SCS Total Energy          =    -324.1443467376994931 [Eh]
	-----------------------------------------------------------

  Dipole Moment: [D]
     X:    -0.2969      Y:    -1.2614      Z:    -0.0000     Total:     1.2958

*** Psi4 exiting successfully. Buy a developer a beer!
