                               Psi4 1.3.2 release

  ==> Input File <==

--------------------------------------------------------------------------
#psi4
#
memory 32 gb

molecule  {
0 1
  O       -0.8874150    -1.1053680    -0.0000120
  N       -0.2975850     1.0586860     0.0000180
  C        1.5208660    -0.6926320     0.0000250
  C        0.1219560    -0.1795350     0.0000030
  C        2.5397680     0.4426120    -0.0000230
  C       -2.0377090    -0.3588510    -0.0000130
  C       -1.6382298     0.9415365     0.0000038
  H        1.6599850    -1.3368650     0.8764330
  H        1.6599860    -1.3369460    -0.8763220
  H        2.4145620     1.0741370    -0.8814520
  H        3.5546530     0.0364140    -0.0000210
  H        2.4145820     1.0741970     0.8813660
  H       -2.9679600    -0.9049730    -0.0000050
  H       -2.3195540     1.8284960    -0.0000070
units angstrom
no_reorient  #important for SAPT in psi4, default
symmetry c1  #important for SAPT in psi4, default
}

set PROPERTIES_ORIGIN ["COM"]
properties('MP2/aug-cc-pvtz', properties = ['dipole'])
--------------------------------------------------------------------------

    Molecular point group: c1
  Charge       = 0
  Multiplicity = 1
  Basis Set: AUG-CC-PVTZ
    Blend: AUG-CC-PVTZ
  Basis Set: (AUG-CC-PVTZ AUX)
    Blend: AUG-CC-PVTZ-JKFIT

    Orbital Energies [Eh]
    ---------------------

    Doubly Occupied:

       1A    -20.634702     2A    -15.559930     3A    -11.338948
       4A    -11.287069     5A    -11.260324     6A    -11.248975
       7A    -11.221434     8A     -1.478872     9A     -1.240018
      10A     -1.083671    11A     -0.995405    12A     -0.883379
      13A     -0.827075    14A     -0.786575    15A     -0.715853
      16A     -0.668895    17A     -0.630721    18A     -0.609795
      19A     -0.585550    20A     -0.563652    21A     -0.527382
      22A     -0.515289    23A     -0.505425    24A     -0.461508
      25A     -0.457343    26A     -0.327889

  @DF-RHF Final Energy:  -322.82386391944510

   => Energetics <=

    Nuclear Repulsion Energy =            293.2646719488027429
    One-Electron Energy =               -1019.3457134913467144
    Two-Electron Energy =                 403.2571776230988689
    Total Energy =                       -322.8238639194451025
  Basis Set: (AUG-CC-PVTZ AUX)
    Blend: AUG-CC-PVTZ-RI
    Molecular point group: c1

    Geometry (in Angstrom), charge = 0, multiplicity = 1:

       Center              X                  Y                   Z               Mass
    ------------   -----------------  -----------------  -----------------  -----------------
         O           -0.827499589972    -1.099392047423    -0.000012017040    15.994914619570
         N           -0.237669589972     1.064661952577     0.000017982960    14.003074004430
         C            1.580781410028    -0.686656047423     0.000024982960    12.000000000000
         C            0.181871410028    -0.173559047423     0.000002982960    12.000000000000
         C            2.599683410028     0.448587952577    -0.000023017040    12.000000000000
         C           -1.977793589972    -0.352875047423    -0.000013017040    12.000000000000
         C           -1.578314389972     0.947512452577     0.000003782960    12.000000000000
         H            1.719900410028    -1.330889047423     0.876432982960     1.007825032230
         H            1.719901410028    -1.330970047423    -0.876322017040     1.007825032230
         H            2.474477410028     1.080112952577    -0.881452017040     1.007825032230
         H            3.614568410028     0.042389952577    -0.000021017040     1.007825032230
         H            2.474497410028     1.080172952577     0.881365982960     1.007825032230
         H           -2.908044589972    -0.898997047423    -0.000005017040     1.007825032230
         H           -2.259638589972     1.834471952577    -0.000007017040     1.007825032230

  Basis Set: AUG-CC-PVTZ
    Blend: AUG-CC-PVTZ
  Basis Set: (AUG-CC-PVTZ AUX)
    Blend: AUG-CC-PVTZ-JKFIT
	 Reference Energy          =    -322.8238639194451025 [Eh]
	 Singles Energy            =      -0.0000000000000000 [Eh]
	 Same-Spin Energy          =      -0.3363762305648529 [Eh]
	 Opposite-Spin Energy      =      -1.0618626489405230 [Eh]
	 Correlation Energy        =      -1.3982388795053760 [Eh]
	 Total Energy              =    -324.2221027989504591 [Eh]

	 ================> DF-SCS-MP2 Energies <==================
	-----------------------------------------------------------
	 SCS Same-Spin Scale       =       0.3333333333333333 [-]
	 SCS Opposite-Spin Scale   =       1.2000000000000000 [-]
	 SCS Same-Spin Energy      =      -0.1121254101882843 [Eh]
	 SCS Opposite-Spin Energy  =      -1.2742351787286275 [Eh]
	 SCS Correlation Energy    =      -1.3863605889169117 [Eh]
	 SCS Total Energy          =    -324.2102245083619891 [Eh]
	-----------------------------------------------------------

  Dipole Moment: [D]
     X:    -0.3224      Y:    -1.2067      Z:    -0.0000     Total:     1.2491

*** Psi4 exiting successfully. Buy a developer a beer!
