                               Psi4 1.3.2 release

  ==> Input File <==

--------------------------------------------------------------------------
#psi4
#
memory 32 gb

molecule  {
0 1
  O       -0.8874150    -1.1053680    -0.0000120
  N       -0.2975850     1.0586860     0.0000180
  C        1.5208660    -0.6926320     0.0000250
  C        0.2693449    -0.0443444     0.0000052
  C        2.5397680     0.4426120    -0.0000230
  C       -2.0377090    -0.3588510    -0.0000130
  C       -1.6838560     0.9546860     0.0000050
  H        1.6599850    -1.3368650     0.8764330
  H        1.6599860    -1.3369460    -0.8763220
  H        2.4145620     1.0741370    -0.8814520
  H        3.5546530     0.0364140    -0.0000210
  H        2.4145820     1.0741970     0.8813660
  H       -2.9679600    -0.9049730    -0.0000050
  H       -2.3195540     1.8284960    -0.0000070
units angstrom
no_reorient  #important for SAPT in psi4, default
symmetry c1  #important for SAPT in psi4, default
}

set PROPERTIES_ORIGIN ["COM"]
properties('MP2/aug-cc-pvtz', properties = ['dipole'])
--------------------------------------------------------------------------

    Molecular point group: c1
  Charge       = 0
  Multiplicity = 1
  Basis Set: AUG-CC-PVTZ
    Blend: AUG-CC-PVTZ
  Basis Set: (AUG-CC-PVTZ AUX)
    Blend: AUG-CC-PVTZ-JKFIT

    Orbital Energies [Eh]
    ---------------------

    Doubly Occupied:

       1A    -20.590578     2A    -15.570210     3A    -11.338334
       4A    -11.294369     5A    -11.253754     6A    -11.252218
       7A    -11.227500     8A     -1.407908     9A     -1.240692
      10A     -1.101386    11A     -0.995676    12A     -0.896042
      13A     -0.820629    14A     -0.751154    15A     -0.710893
      16A     -0.656895    17A     -0.637631    18A     -0.609637
      19A     -0.591993    20A     -0.545477    21A     -0.532535
      22A     -0.512880    23A     -0.512525    24A     -0.457838
      25A     -0.441383    26A     -0.328449

  @DF-RHF Final Energy:  -322.79061123622660

   => Energetics <=

    Nuclear Repulsion Energy =            291.5249973836757249
    One-Electron Energy =               -1016.0740436160355102
    Two-Electron Energy =                 401.7584349961332464
    Total Energy =                       -322.7906112362265958
  Basis Set: (AUG-CC-PVTZ AUX)
    Blend: AUG-CC-PVTZ-RI
    Molecular point group: c1

    Geometry (in Angstrom), charge = 0, multiplicity = 1:

       Center              X                  Y                   Z               Mass
    ------------   -----------------  -----------------  -----------------  -----------------
         O           -0.840081945709    -1.117733423077    -0.000012437430    15.994914619570
         N           -0.250251945709     1.046320576923     0.000017562570    14.003074004430
         C            1.568199054291    -0.704997423077     0.000024562570    12.000000000000
         C            0.316677954291    -0.056709823077     0.000004762570    12.000000000000
         C            2.587101054291     0.430246576923    -0.000023437430    12.000000000000
         C           -1.990375945709    -0.371216423077    -0.000013437430    12.000000000000
         C           -1.636522945709     0.942320576923     0.000004562570    12.000000000000
         H            1.707318054291    -1.349230423077     0.876432562570     1.007825032230
         H            1.707319054291    -1.349311423077    -0.876322437430     1.007825032230
         H            2.461895054291     1.061771576923    -0.881452437430     1.007825032230
         H            3.601986054291     0.024048576923    -0.000021437430     1.007825032230
         H            2.461915054291     1.061831576923     0.881365562570     1.007825032230
         H           -2.920626945709    -0.917338423077    -0.000005437430     1.007825032230
         H           -2.272220945709     1.816130576923    -0.000007437430     1.007825032230

  Basis Set: AUG-CC-PVTZ
    Blend: AUG-CC-PVTZ
  Basis Set: (AUG-CC-PVTZ AUX)
    Blend: AUG-CC-PVTZ-JKFIT
	 Reference Energy          =    -322.7906112362265958 [Eh]
	 Singles Energy            =      -0.0000000000000000 [Eh]
	 Same-Spin Energy          =      -0.3382803048331260 [Eh]
	 Opposite-Spin Energy      =      -1.0671125194732716 [Eh]
	 Correlation Energy        =      -1.4053928243063976 [Eh]
	 Total Energy              =    -324.1960040605329709 [Eh]

	 ================> DF-SCS-MP2 Energies <==================
	-----------------------------------------------------------
	 SCS Same-Spin Scale       =       0.3333333333333333 [-]
	 SCS Opposite-Spin Scale   =       1.2000000000000000 [-]
	 SCS Same-Spin Energy      =      -0.1127601016110420 [Eh]
	 SCS Opposite-Spin Energy  =      -1.2805350233679258 [Eh]
	 SCS Correlation Energy    =      -1.3932951249789678 [Eh]
	 SCS Total Energy          =    -324.1839063612055725 [Eh]
	-----------------------------------------------------------

  Dipole Moment: [D]
     X:     0.3545      Y:    -0.7477      Z:     0.0000     Total:     0.8274

*** Psi4 exiting successfully. Buy a developer a beer!
