                               Psi4 1.4a3.dev225

  ==> Input File <==

--------------------------------------------------------------------------
#psi4
#
memory 32 gb

molecule  {
0 1
  O       -0.8874150    -1.1053680    -0.0000120
  N       -0.2975850     1.0586860     0.0000180
  C        1.5208660    -0.6926320     0.0000250
  C        0.1219560    -0.1795350     0.0000030
  C        2.5397680     0.4426120    -0.0000230
  C       -2.0796507    -0.3316317    -0.0000130
  C       -1.6838560     0.9546860     0.0000050
  H        1.6599850    -1.3368650     0.8764330
  H        1.6599860    -1.3369460    -0.8763220
  H        2.4145620     1.0741370    -0.8814520
  H        3.5546530     0.0364140    -0.0000210
  H        2.4145820     1.0741970     0.8813660
  H       -2.9679600    -0.9049730    -0.0000050
  H       -2.3195540     1.8284960    -0.0000070
units angstrom
no_reorient  #important for SAPT in psi4, default
symmetry c1  #important for SAPT in psi4, default
}

set PROPERTIES_ORIGIN ["COM"]
properties('MP2/aug-cc-pvtz', properties = ['dipole'])
--------------------------------------------------------------------------

    Molecular point group: c1
  Charge       = 0
  Multiplicity = 1
  Basis Set: AUG-CC-PVTZ
    Blend: AUG-CC-PVTZ
  Basis Set: (AUG-CC-PVTZ AUX)
    Blend: AUG-CC-PVTZ-JKFIT

    Orbital Energies [Eh]
    ---------------------

    Doubly Occupied:

       1A    -20.627279     2A    -15.559368     3A    -11.339806
       4A    -11.289384     5A    -11.263378     6A    -11.249005
       7A    -11.220944     8A     -1.458770     9A     -1.223230
      10A     -1.082914    11A     -1.000416    12A     -0.884798
      13A     -0.825323    14A     -0.775763    15A     -0.714685
      16A     -0.660882    17A     -0.632366    18A     -0.605420
      19A     -0.585908    20A     -0.568958    21A     -0.525656
      22A     -0.514939    23A     -0.504723    24A     -0.456678
      25A     -0.448147    26A     -0.338232

  @DF-RHF Final Energy:  -322.82457192048355

   => Energetics <=

    Nuclear Repulsion Energy =            291.5678447959274422
    One-Electron Energy =               -1016.0708905785780871
    Two-Electron Energy =                 401.6784738621670385
    Total Energy =                       -322.8245719204835495
  Basis Set: (AUG-CC-PVTZ AUX)
    Blend: AUG-CC-PVTZ-RI
    Molecular point group: c1

    Geometry (in Angstrom), charge = 0, multiplicity = 1:

       Center              X                  Y                   Z               Mass
    ------------   -----------------  -----------------  -----------------  -----------------
         O           -0.816672337266    -1.104383410685    -0.000012165413    15.994914619570
         N           -0.226842337266     1.059670589315     0.000017834587    14.003074004430
         C            1.591608662734    -0.691647410685     0.000024834587    12.000000000000
         C            0.192698662734    -0.178550410685     0.000002834587    12.000000000000
         C            2.610510662734     0.443596589315    -0.000023165413    12.000000000000
         C           -2.008908037266    -0.330647110685    -0.000013165413    12.000000000000
         C           -1.613113337266     0.955670589315     0.000004834587    12.000000000000
         H            1.730727662734    -1.335880410685     0.876432834587     1.007825032230
         H            1.730728662734    -1.335961410685    -0.876322165413     1.007825032230
         H            2.485304662734     1.075121589315    -0.881452165413     1.007825032230
         H            3.625395662734     0.037398589315    -0.000021165413     1.007825032230
         H            2.485324662734     1.075181589315     0.881365834587     1.007825032230
         H           -2.897217337266    -0.903988410685    -0.000005165413     1.007825032230
         H           -2.248811337266     1.829480589315    -0.000007165413     1.007825032230

  Basis Set: AUG-CC-PVTZ
    Blend: AUG-CC-PVTZ
  Basis Set: (AUG-CC-PVTZ AUX)
    Blend: AUG-CC-PVTZ-JKFIT
	 Reference Energy          =    -322.8245719204835495 [Eh]
	 Singles Energy            =      -0.0000000000000000 [Eh]
	 Same-Spin Energy          =      -0.3353793212770911 [Eh]
	 Opposite-Spin Energy      =      -1.0621372796785642 [Eh]
	 Correlation Energy        =      -1.3975166009556554 [Eh]
	 Total Energy              =    -324.2220885214392183 [Eh]

	 ================> DF-SCS-MP2 Energies <==================
	-----------------------------------------------------------
	 SCS Same-Spin Scale       =       0.3333333333333333 [-]
	 SCS Opposite-Spin Scale   =       1.2000000000000000 [-]
	 SCS Same-Spin Energy      =      -0.1117931070923637 [Eh]
	 SCS Opposite-Spin Energy  =      -1.2745647356142771 [Eh]
	 SCS Correlation Energy    =      -1.3863578427066408 [Eh]
	 SCS Total Energy          =    -324.2109297631901654 [Eh]
	-----------------------------------------------------------

  Dipole Moment: [D]
     X:    -0.4108      Y:    -1.1245      Z:    -0.0000     Total:     1.1972

*** Psi4 exiting successfully. Buy a developer a beer!
