                               Psi4 1.3.2 release

  ==> Input File <==

--------------------------------------------------------------------------
#psi4
#
memory 32 gb

molecule  {
0 1
  O       -0.8874150    -1.1053680    -0.0000120
  N       -0.2101891     1.0849355     0.0000205
  C        1.5208660    -0.6926320     0.0000250
  C        0.1219560    -0.1795350     0.0000030
  C        2.5397680     0.4426120    -0.0000230
  C       -2.0377090    -0.3588510    -0.0000130
  C       -1.6838560     0.9546860     0.0000050
  H        1.6599850    -1.3368650     0.8764330
  H        1.6599860    -1.3369460    -0.8763220
  H        2.4145620     1.0741370    -0.8814520
  H        3.5546530     0.0364140    -0.0000210
  H        2.4145820     1.0741970     0.8813660
  H       -2.9679600    -0.9049730    -0.0000050
  H       -2.3195540     1.8284960    -0.0000070
units angstrom
no_reorient  #important for SAPT in psi4, default
symmetry c1  #important for SAPT in psi4, default
}

set PROPERTIES_ORIGIN ["COM"]
properties('MP2/aug-cc-pvtz', properties = ['dipole'])
--------------------------------------------------------------------------

    Molecular point group: c1
  Charge       = 0
  Multiplicity = 1
  Basis Set: AUG-CC-PVTZ
    Blend: AUG-CC-PVTZ
  Basis Set: (AUG-CC-PVTZ AUX)
    Blend: AUG-CC-PVTZ-JKFIT

    Orbital Energies [Eh]
    ---------------------

    Doubly Occupied:

       1A    -20.635239     2A    -15.570410     3A    -11.340041
       4A    -11.296531     5A    -11.268611     6A    -11.245633
       7A    -11.218682     8A     -1.475645     9A     -1.213847
      10A     -1.078832    11A     -0.998233    12A     -0.884602
      13A     -0.827576    14A     -0.769373    15A     -0.716068
      16A     -0.666558    17A     -0.631363    18A     -0.607999
      19A     -0.574543    20A     -0.570870    21A     -0.525170
      22A     -0.508738    23A     -0.503135    24A     -0.465595
      25A     -0.440896    26A     -0.340744

  @DF-RHF Final Energy:  -322.81894136481139

   => Energetics <=

    Nuclear Repulsion Energy =            291.1394431389824717
    One-Electron Energy =               -1015.1669014133104838
    Two-Electron Energy =                 401.2085169095165611
    Total Energy =                       -322.8189413648113941
  Basis Set: (AUG-CC-PVTZ AUX)
    Blend: AUG-CC-PVTZ-RI
    Molecular point group: c1

    Geometry (in Angstrom), charge = 0, multiplicity = 1:

       Center              X                  Y                   Z               Mass
    ------------   -----------------  -----------------  -----------------  -----------------
         O           -0.834467932022    -1.104805264628    -0.000012526120    15.994914619570
         N           -0.157242032022     1.085498235372     0.000019973880    14.003074004430
         C            1.573813067978    -0.692069264628     0.000024473880    12.000000000000
         C            0.174903067978    -0.178972264628     0.000002473880    12.000000000000
         C            2.592715067978     0.443174735372    -0.000023526120    12.000000000000
         C           -1.984761932022    -0.358288264628    -0.000013526120    12.000000000000
         C           -1.630908932022     0.955248735372     0.000004473880    12.000000000000
         H            1.712932067978    -1.336302264628     0.876432473880     1.007825032230
         H            1.712933067978    -1.336383264628    -0.876322526120     1.007825032230
         H            2.467509067978     1.074699735372    -0.881452526120     1.007825032230
         H            3.607600067978     0.036976735372    -0.000021526120     1.007825032230
         H            2.467529067978     1.074759735372     0.881365473880     1.007825032230
         H           -2.915012932022    -0.904410264628    -0.000005526120     1.007825032230
         H           -2.266606932022     1.829058735372    -0.000007526120     1.007825032230

  Basis Set: AUG-CC-PVTZ
    Blend: AUG-CC-PVTZ
  Basis Set: (AUG-CC-PVTZ AUX)
    Blend: AUG-CC-PVTZ-JKFIT
	 Reference Energy          =    -322.8189413648113941 [Eh]
	 Singles Energy            =      -0.0000000000000000 [Eh]
	 Same-Spin Energy          =      -0.3352286613569078 [Eh]
	 Opposite-Spin Energy      =      -1.0635421672079814 [Eh]
	 Correlation Energy        =      -1.3987708285648892 [Eh]
	 Total Energy              =    -324.2177121933762578 [Eh]

	 ================> DF-SCS-MP2 Energies <==================
	-----------------------------------------------------------
	 SCS Same-Spin Scale       =       0.3333333333333333 [-]
	 SCS Opposite-Spin Scale   =       1.2000000000000000 [-]
	 SCS Same-Spin Energy      =      -0.1117428871189693 [Eh]
	 SCS Opposite-Spin Energy  =      -1.2762506006495777 [Eh]
	 SCS Correlation Energy    =      -1.3879934877685469 [Eh]
	 SCS Total Energy          =    -324.2069348525799342 [Eh]
	-----------------------------------------------------------

  Dipole Moment: [D]
     X:    -0.5317      Y:    -1.2275      Z:    -0.0000     Total:     1.3377

*** Psi4 exiting successfully. Buy a developer a beer!
