                               Psi4 1.3.2 release

  ==> Input File <==

--------------------------------------------------------------------------
#psi4
#
memory 32 gb

molecule  {
0 1
  O       -0.8874150    -1.1053680    -0.0000120
  N       -0.2975850     1.0586860     0.0000180
  C        1.5208660    -0.6926320     0.0000250
  C        0.1583867    -0.1039200    -0.1314517
  C        2.5397680     0.4426120    -0.0000230
  C       -2.0377090    -0.3588510    -0.0000130
  C       -1.6838560     0.9546860     0.0000050
  H        1.6599850    -1.3368650     0.8764330
  H        1.6599860    -1.3369460    -0.8763220
  H        2.4145620     1.0741370    -0.8814520
  H        3.5546530     0.0364140    -0.0000210
  H        2.4145820     1.0741970     0.8813660
  H       -2.9679600    -0.9049730    -0.0000050
  H       -2.3195540     1.8284960    -0.0000070
units angstrom
no_reorient  #important for SAPT in psi4, default
symmetry c1  #important for SAPT in psi4, default
}

set PROPERTIES_ORIGIN ["COM"]
properties('MP2/aug-cc-pvtz', properties = ['dipole'])
--------------------------------------------------------------------------

    Molecular point group: c1
  Charge       = 0
  Multiplicity = 1
  Basis Set: AUG-CC-PVTZ
    Blend: AUG-CC-PVTZ
  Basis Set: (AUG-CC-PVTZ AUX)
    Blend: AUG-CC-PVTZ-JKFIT

    Orbital Energies [Eh]
    ---------------------

    Doubly Occupied:

       1A    -20.617666     2A    -15.565294     3A    -11.334566
       4A    -11.294735     5A    -11.259027     6A    -11.249431
       7A    -11.220893     8A     -1.446499     9A     -1.242676
      10A     -1.081521    11A     -0.996548    12A     -0.882973
      13A     -0.824466    14A     -0.769361    15A     -0.714111
      16A     -0.656782    17A     -0.628351    18A     -0.605868
      19A     -0.595787    20A     -0.560220    21A     -0.522209
      22A     -0.517793    23A     -0.502927    24A     -0.461910
      25A     -0.452479    26A     -0.334805

  @DF-RHF Final Energy:  -322.81313869313806

   => Energetics <=

    Nuclear Repulsion Energy =            291.9750272533163411
    One-Electron Energy =               -1016.8985418823235705
    Two-Electron Energy =                 402.1103759358692287
    Total Energy =                       -322.8131386931380575
  Basis Set: (AUG-CC-PVTZ AUX)
    Blend: AUG-CC-PVTZ-RI
    Molecular point group: c1

    Geometry (in Angstrom), charge = 0, multiplicity = 1:

       Center              X                  Y                   Z               Mass
    ------------   -----------------  -----------------  -----------------  -----------------
         O           -0.826362620806    -1.110367252639     0.016241430440    15.994914619570
         N           -0.236532620806     1.053686747361     0.016271430440    14.003074004430
         C            1.581918379194    -0.697631252639     0.016278430440    12.000000000000
         C            0.219439079194    -0.108919252639    -0.115198269560    12.000000000000
         C            2.600820379194     0.437612747361     0.016230430440    12.000000000000
         C           -1.976656620806    -0.363850252639     0.016240430440    12.000000000000
         C           -1.622803620806     0.949686747361     0.016258430440    12.000000000000
         H            1.721037379194    -1.341864252639     0.892686430440     1.007825032230
         H            1.721038379194    -1.341945252639    -0.860068569560     1.007825032230
         H            2.475614379194     1.069137747361    -0.865198569560     1.007825032230
         H            3.615705379194     0.031414747361     0.016232430440     1.007825032230
         H            2.475634379194     1.069197747361     0.897619430440     1.007825032230
         H           -2.906907620806    -0.909972252639     0.016248430440     1.007825032230
         H           -2.258501620806     1.823496747361     0.016246430440     1.007825032230

  Basis Set: AUG-CC-PVTZ
    Blend: AUG-CC-PVTZ
  Basis Set: (AUG-CC-PVTZ AUX)
    Blend: AUG-CC-PVTZ-JKFIT
	 Reference Energy          =    -322.8131386931380575 [Eh]
	 Singles Energy            =      -0.0000000000000000 [Eh]
	 Same-Spin Energy          =      -0.3360543111059925 [Eh]
	 Opposite-Spin Energy      =      -1.0636368623014298 [Eh]
	 Correlation Energy        =      -1.3996911734074224 [Eh]
	 Total Energy              =    -324.2128298665454622 [Eh]

	 ================> DF-SCS-MP2 Energies <==================
	-----------------------------------------------------------
	 SCS Same-Spin Scale       =       0.3333333333333333 [-]
	 SCS Opposite-Spin Scale   =       1.2000000000000000 [-]
	 SCS Same-Spin Energy      =      -0.1120181037019975 [Eh]
	 SCS Opposite-Spin Energy  =      -1.2763642347617157 [Eh]
	 SCS Correlation Energy    =      -1.3883823384637133 [Eh]
	 SCS Total Energy          =    -324.2015210316017715 [Eh]
	-----------------------------------------------------------

  Dipole Moment: [D]
     X:    -0.2354      Y:    -0.9409      Z:    -0.0485     Total:     0.9711

*** Psi4 exiting successfully. Buy a developer a beer!
