                               Psi4 1.3.2 release

  ==> Input File <==

--------------------------------------------------------------------------
#psi4
#
memory 32 gb

molecule  {
0 1
  O       -0.8874150    -1.1053680    -0.0000120
  N       -0.2975850     1.0586860     0.0000180
  C        1.5208660    -0.6926320     0.0000250
  C        0.1219560    -0.1795350     0.0000030
  C        2.5397680     0.4426120    -0.0000230
  C       -2.0377090    -0.3588510    -0.0000130
  C       -1.7763457     0.9761698     0.0000072
  H        1.6599850    -1.3368650     0.8764330
  H        1.6599860    -1.3369460    -0.8763220
  H        2.4145620     1.0741370    -0.8814520
  H        3.5546530     0.0364140    -0.0000210
  H        2.4145820     1.0741970     0.8813660
  H       -2.9679600    -0.9049730    -0.0000050
  H       -2.3195540     1.8284960    -0.0000070
units angstrom
no_reorient  #important for SAPT in psi4, default
symmetry c1  #important for SAPT in psi4, default
}

set PROPERTIES_ORIGIN ["COM"]
properties('MP2/aug-cc-pvtz', properties = ['dipole'])
--------------------------------------------------------------------------

    Molecular point group: c1
  Charge       = 0
  Multiplicity = 1
  Basis Set: AUG-CC-PVTZ
    Blend: AUG-CC-PVTZ
  Basis Set: (AUG-CC-PVTZ AUX)
    Blend: AUG-CC-PVTZ-JKFIT

    Orbital Energies [Eh]
    ---------------------

    Doubly Occupied:

       1A    -20.634177     2A    -15.562044     3A    -11.336268
       4A    -11.298979     5A    -11.262313     6A    -11.248683
       7A    -11.219971     8A     -1.473730     9A     -1.203749
      10A     -1.080927    11A     -1.000967    12A     -0.886650
      13A     -0.831821    14A     -0.771647    15A     -0.719133
      16A     -0.665061    17A     -0.632860    18A     -0.608603
      19A     -0.598503    20A     -0.569219    21A     -0.525883
      22A     -0.513152    23A     -0.504368    24A     -0.445039
      25A     -0.435933    26A     -0.340590

  @DF-RHF Final Energy:  -322.81652170089461

   => Energetics <=

    Nuclear Repulsion Energy =            290.6445913665322109
    One-Electron Energy =               -1014.1816908940440953
    Two-Electron Energy =                 400.7205778266172160
    Total Energy =                       -322.8165217008946115
  Basis Set: (AUG-CC-PVTZ AUX)
    Blend: AUG-CC-PVTZ-RI
    Molecular point group: c1

    Geometry (in Angstrom), charge = 0, multiplicity = 1:

       Center              X                  Y                   Z               Mass
    ------------   -----------------  -----------------  -----------------  -----------------
         O           -0.810422376153    -1.103674250047    -0.000012437430    15.994914619570
         N           -0.220592376153     1.060379749953     0.000017562570    14.003074004430
         C            1.597858623847    -0.690938250047     0.000024562570    12.000000000000
         C            0.198948623847    -0.177841250047     0.000002562570    12.000000000000
         C            2.616760623847     0.444305749953    -0.000023437430    12.000000000000
         C           -1.960716376153    -0.357157250047    -0.000013437430    12.000000000000
         C           -1.699353076153     0.977863549953     0.000006762570    12.000000000000
         H            1.736977623847    -1.335171250047     0.876432562570     1.007825032230
         H            1.736978623847    -1.335252250047    -0.876322437430     1.007825032230
         H            2.491554623847     1.075830749953    -0.881452437430     1.007825032230
         H            3.631645623847     0.038107749953    -0.000021437430     1.007825032230
         H            2.491574623847     1.075890749953     0.881365562570     1.007825032230
         H           -2.890967376153    -0.903279250047    -0.000005437430     1.007825032230
         H           -2.242561376153     1.830189749953    -0.000007437430     1.007825032230

  Basis Set: AUG-CC-PVTZ
    Blend: AUG-CC-PVTZ
  Basis Set: (AUG-CC-PVTZ AUX)
    Blend: AUG-CC-PVTZ-JKFIT
	 Reference Energy          =    -322.8165217008946115 [Eh]
	 Singles Energy            =      -0.0000000000000000 [Eh]
	 Same-Spin Energy          =      -0.3349847258409163 [Eh]
	 Opposite-Spin Energy      =      -1.0629744227947522 [Eh]
	 Correlation Energy        =      -1.3979591486356684 [Eh]
	 Total Energy              =    -324.2144808495302755 [Eh]

	 ================> DF-SCS-MP2 Energies <==================
	-----------------------------------------------------------
	 SCS Same-Spin Scale       =       0.3333333333333333 [-]
	 SCS Opposite-Spin Scale   =       1.2000000000000000 [-]
	 SCS Same-Spin Energy      =      -0.1116615752803054 [Eh]
	 SCS Opposite-Spin Energy  =      -1.2755693073537027 [Eh]
	 SCS Correlation Energy    =      -1.3872308826340081 [Eh]
	 SCS Total Energy          =    -324.2037525835286260 [Eh]
	-----------------------------------------------------------

  Dipole Moment: [D]
     X:    -0.4202      Y:    -1.1565      Z:    -0.0000     Total:     1.2305

*** Psi4 exiting successfully. Buy a developer a beer!
