                               Psi4 1.3.2 release

  ==> Input File <==

--------------------------------------------------------------------------
#psi4
#
memory 32 gb

molecule  {
0 1
  O       -0.8874150    -1.1053680    -0.0000120
  N       -0.2975850     1.0586860     0.0000180
  C        1.5208660    -0.6926320     0.0000250
  C        0.1219560    -0.1795350     0.0000030
  C        2.5397680     0.4426120    -0.0000230
  C       -2.0377090    -0.3588510    -0.0000130
  C       -1.6838560     0.9546860     0.0000050
  H        1.6599850    -1.3368650     0.8764330
  H        1.6599860    -1.3369460    -0.8763220
  H        2.4145620     1.0741370    -0.8814520
  H        3.5546530     0.0364140    -0.0000210
  H        2.4145820     1.0741970     0.8813660
  H       -3.1404346    -1.0062276    -0.0000035
  H       -2.3195540     1.8284960    -0.0000070
units angstrom
no_reorient  #important for SAPT in psi4, default
symmetry c1  #important for SAPT in psi4, default
}

set PROPERTIES_ORIGIN ["COM"]
properties('MP2/aug-cc-pvtz', properties = ['dipole'])
--------------------------------------------------------------------------

    Molecular point group: c1
  Charge       = 0
  Multiplicity = 1
  Basis Set: AUG-CC-PVTZ
    Blend: AUG-CC-PVTZ
  Basis Set: (AUG-CC-PVTZ AUX)
    Blend: AUG-CC-PVTZ-JKFIT

    Orbital Energies [Eh]
    ---------------------

    Doubly Occupied:

       1A    -20.636164     2A    -15.561865     3A    -11.338617
       4A    -11.310393     5A    -11.261627     6A    -11.249217
       7A    -11.221200     8A     -1.477995     9A     -1.227246
      10A     -1.082268    11A     -0.992787    12A     -0.884213
      13A     -0.817143    14A     -0.781195    15A     -0.705506
      16A     -0.668200    17A     -0.609824    18A     -0.605797
      19A     -0.585016    20A     -0.562229    21A     -0.524029
      22A     -0.515030    23A     -0.505326    24A     -0.456924
      25A     -0.450415    26A     -0.332515

  @DF-RHF Final Energy:  -322.80350650564577

   => Energetics <=

    Nuclear Repulsion Energy =            291.4404489421537505
    One-Electron Energy =               -1015.7624302871829514
    Two-Electron Energy =                 401.5184748393833729
    Total Energy =                       -322.8035065056457711
  Basis Set: (AUG-CC-PVTZ AUX)
    Blend: AUG-CC-PVTZ-RI
    Molecular point group: c1

    Geometry (in Angstrom), charge = 0, multiplicity = 1:

       Center              X                  Y                   Z               Mass
    ------------   -----------------  -----------------  -----------------  -----------------
         O           -0.820067152289    -1.099966447134    -0.000012180989    15.994914619570
         N           -0.230237152289     1.064087552866     0.000017819011    14.003074004430
         C            1.588213847711    -0.687230447134     0.000024819011    12.000000000000
         C            0.189303847711    -0.174133447134     0.000002819011    12.000000000000
         C            2.607115847711     0.448013552866    -0.000023180989    12.000000000000
         C           -1.970361152289    -0.353449447134    -0.000013180989    12.000000000000
         C           -1.616508152289     0.960087552866     0.000004819011    12.000000000000
         H            1.727332847711    -1.331463447134     0.876432819011     1.007825032230
         H            1.727333847711    -1.331544447134    -0.876322180989     1.007825032230
         H            2.481909847711     1.079538552866    -0.881452180989     1.007825032230
         H            3.622000847711     0.041815552866    -0.000021180989     1.007825032230
         H            2.481929847711     1.079598552866     0.881365819011     1.007825032230
         H           -3.073086752289    -1.000826047134    -0.000003680989     1.007825032230
         H           -2.252206152289     1.833897552866    -0.000007180989     1.007825032230

  Basis Set: AUG-CC-PVTZ
    Blend: AUG-CC-PVTZ
  Basis Set: (AUG-CC-PVTZ AUX)
    Blend: AUG-CC-PVTZ-JKFIT
	 Reference Energy          =    -322.8035065056457711 [Eh]
	 Singles Energy            =      -0.0000000000000000 [Eh]
	 Same-Spin Energy          =      -0.3363350337382717 [Eh]
	 Opposite-Spin Energy      =      -1.0641173163849098 [Eh]
	 Correlation Energy        =      -1.4004523501231816 [Eh]
	 Total Energy              =    -324.2039588557689740 [Eh]

	 ================> DF-SCS-MP2 Energies <==================
	-----------------------------------------------------------
	 SCS Same-Spin Scale       =       0.3333333333333333 [-]
	 SCS Opposite-Spin Scale   =       1.2000000000000000 [-]
	 SCS Same-Spin Energy      =      -0.1121116779127572 [Eh]
	 SCS Opposite-Spin Energy  =      -1.2769407796618917 [Eh]
	 SCS Correlation Energy    =      -1.3890524575746488 [Eh]
	 SCS Total Energy          =    -324.1925589632203923 [Eh]
	-----------------------------------------------------------

  Dipole Moment: [D]
     X:    -0.3635      Y:    -1.2066      Z:    -0.0000     Total:     1.2602

*** Psi4 exiting successfully. Buy a developer a beer!
