                               Psi4 1.3.2 release

  ==> Input File <==

--------------------------------------------------------------------------
#psi4
#
memory 32 gb

molecule  {
0 1
  O       -0.8874150    -1.1053680    -0.0000120
  N       -0.4247160     1.0080489     0.0000141
  C        1.5208660    -0.6926320     0.0000250
  C        0.1219560    -0.1795350     0.0000030
  C        2.5397680     0.4426120    -0.0000230
  C       -2.0377090    -0.3588510    -0.0000130
  C       -1.6838560     0.9546860     0.0000050
  H        1.6599850    -1.3368650     0.8764330
  H        1.6599860    -1.3369460    -0.8763220
  H        2.4145620     1.0741370    -0.8814520
  H        3.5546530     0.0364140    -0.0000210
  H        2.4145820     1.0741970     0.8813660
  H       -2.9679600    -0.9049730    -0.0000050
  H       -2.3195540     1.8284960    -0.0000070
units angstrom
no_reorient  #important for SAPT in psi4, default
symmetry c1  #important for SAPT in psi4, default
}

set PROPERTIES_ORIGIN ["COM"]
properties('MP2/aug-cc-pvtz', properties = ['dipole'])
--------------------------------------------------------------------------

    Molecular point group: c1
  Charge       = 0
  Multiplicity = 1
  Basis Set: AUG-CC-PVTZ
    Blend: AUG-CC-PVTZ
  Basis Set: (AUG-CC-PVTZ AUX)
    Blend: AUG-CC-PVTZ-JKFIT

    Orbital Energies [Eh]
    ---------------------

    Doubly Occupied:

       1A    -20.633543     2A    -15.544503     3A    -11.333764
       4A    -11.282625     5A    -11.253044     6A    -11.246932
       7A    -11.223799     8A     -1.480619     9A     -1.253306
      10A     -1.086877    11A     -0.995872    12A     -0.883507
      13A     -0.838326    14A     -0.788896    15A     -0.720671
      16A     -0.669615    17A     -0.628992    18A     -0.611501
      19A     -0.606917    20A     -0.571884    21A     -0.528568
      22A     -0.520805    23A     -0.507501    24A     -0.466494
      25A     -0.434438    26A     -0.317834

  @DF-RHF Final Energy:  -322.80948336368107

   => Energetics <=

    Nuclear Repulsion Energy =            294.5611492330982628
    One-Electron Energy =               -1021.8795978007008216
    Two-Electron Energy =                 404.5089652039214911
    Total Energy =                       -322.8094833636810677
  Basis Set: (AUG-CC-PVTZ AUX)
    Blend: AUG-CC-PVTZ-RI
    Molecular point group: c1

    Geometry (in Angstrom), charge = 0, multiplicity = 1:

       Center              X                  Y                   Z               Mass
    ------------   -----------------  -----------------  -----------------  -----------------
         O           -0.803515325033    -1.093711827336    -0.000011602709    15.994914619570
         N           -0.340816325033     1.019705072664     0.000014497291    14.003074004430
         C            1.604765674967    -0.680975827336     0.000025397291    12.000000000000
         C            0.205855674967    -0.167878827336     0.000003397291    12.000000000000
         C            2.623667674967     0.454268172664    -0.000022602709    12.000000000000
         C           -1.953809325033    -0.347194827336    -0.000012602709    12.000000000000
         C           -1.599956325033     0.966342172664     0.000005397291    12.000000000000
         H            1.743884674967    -1.325208827336     0.876433397291     1.007825032230
         H            1.743885674967    -1.325289827336    -0.876321602709     1.007825032230
         H            2.498461674967     1.085793172664    -0.881451602709     1.007825032230
         H            3.638552674967     0.048070172664    -0.000020602709     1.007825032230
         H            2.498481674967     1.085853172664     0.881366397291     1.007825032230
         H           -2.884060325033    -0.893316827336    -0.000004602709     1.007825032230
         H           -2.235654325033     1.840152172664    -0.000006602709     1.007825032230

  Basis Set: AUG-CC-PVTZ
    Blend: AUG-CC-PVTZ
  Basis Set: (AUG-CC-PVTZ AUX)
    Blend: AUG-CC-PVTZ-JKFIT
	 Reference Energy          =    -322.8094833636810677 [Eh]
	 Singles Energy            =      -0.0000000000000000 [Eh]
	 Same-Spin Energy          =      -0.3377919267999687 [Eh]
	 Opposite-Spin Energy      =      -1.0616337410092327 [Eh]
	 Correlation Energy        =      -1.3994256678092014 [Eh]
	 Total Energy              =    -324.2089090314902933 [Eh]

	 ================> DF-SCS-MP2 Energies <==================
	-----------------------------------------------------------
	 SCS Same-Spin Scale       =       0.3333333333333333 [-]
	 SCS Opposite-Spin Scale   =       1.2000000000000000 [-]
	 SCS Same-Spin Energy      =      -0.1125973089333229 [Eh]
	 SCS Opposite-Spin Energy  =      -1.2739604892110792 [Eh]
	 SCS Correlation Energy    =      -1.3865577981444022 [Eh]
	 SCS Total Energy          =    -324.1960411618254625 [Eh]
	-----------------------------------------------------------

  Dipole Moment: [D]
     X:    -0.1123      Y:    -1.0472      Z:     0.0000     Total:     1.0532

*** Psi4 exiting successfully. Buy a developer a beer!
