                               Psi4 1.3.2 release

  ==> Input File <==

--------------------------------------------------------------------------
#psi4
#
memory 32 gb

molecule  {
0 1
  O       -0.8874150    -1.1053680    -0.0000120
  N       -0.2975850     1.0586860     0.0000180
  C        1.5208660    -0.6926320     0.0000250
  C        0.0345601    -0.2057845     0.0000019
  C        2.5397680     0.4426120    -0.0000230
  C       -2.0377090    -0.3588510    -0.0000130
  C       -1.6838560     0.9546860     0.0000050
  H        1.6599850    -1.3368650     0.8764330
  H        1.6599860    -1.3369460    -0.8763220
  H        2.4145620     1.0741370    -0.8814520
  H        3.5546530     0.0364140    -0.0000210
  H        2.4145820     1.0741970     0.8813660
  H       -2.9679600    -0.9049730    -0.0000050
  H       -2.3195540     1.8284960    -0.0000070
units angstrom
no_reorient  #important for SAPT in psi4, default
symmetry c1  #important for SAPT in psi4, default
}

set PROPERTIES_ORIGIN ["COM"]
properties('MP2/aug-cc-pvtz', properties = ['dipole'])
--------------------------------------------------------------------------

    Molecular point group: c1
  Charge       = 0
  Multiplicity = 1
  Basis Set: AUG-CC-PVTZ
    Blend: AUG-CC-PVTZ
  Basis Set: (AUG-CC-PVTZ AUX)
    Blend: AUG-CC-PVTZ-JKFIT

    Orbital Energies [Eh]
    ---------------------

    Doubly Occupied:

       1A    -20.648687     2A    -15.556740     3A    -11.336926
       4A    -11.289182     5A    -11.264757     6A    -11.247769
       7A    -11.217522     8A     -1.517579     9A     -1.233525
      10A     -1.071802    11A     -0.999517    12A     -0.875781
      13A     -0.839217    14A     -0.791720    15A     -0.721585
      16A     -0.684335    17A     -0.628050    18A     -0.608925
      19A     -0.588827    20A     -0.572206    21A     -0.523239
      22A     -0.499755    23A     -0.497635    24A     -0.463888
      25A     -0.452670    26A     -0.335515

  @DF-RHF Final Energy:  -322.82131153931687

   => Energetics <=

    Nuclear Repulsion Energy =            293.1591810412372752
    One-Electron Energy =               -1019.0262783413809302
    Two-Electron Energy =                 403.0457857608267886
    Total Energy =                       -322.8213115393168664
  Basis Set: (AUG-CC-PVTZ AUX)
    Blend: AUG-CC-PVTZ-RI
    Molecular point group: c1

    Geometry (in Angstrom), charge = 0, multiplicity = 1:

       Center              X                  Y                   Z               Mass
    ------------   -----------------  -----------------  -----------------  -----------------
         O           -0.811052194384    -1.097772309934    -0.000012029404    15.994914619570
         N           -0.221222194384     1.066281690066     0.000017970596    14.003074004430
         C            1.597228805616    -0.685036309934     0.000024970596    12.000000000000
         C            0.110922905616    -0.198188809934     0.000001870596    12.000000000000
         C            2.616130805616     0.450207690066    -0.000023029404    12.000000000000
         C           -1.961346194384    -0.351255309934    -0.000013029404    12.000000000000
         C           -1.607493194384     0.962281690066     0.000004970596    12.000000000000
         H            1.736347805616    -1.329269309934     0.876432970596     1.007825032230
         H            1.736348805616    -1.329350309934    -0.876322029404     1.007825032230
         H            2.490924805616     1.081732690066    -0.881452029404     1.007825032230
         H            3.631015805616     0.044009690066    -0.000021029404     1.007825032230
         H            2.490944805616     1.081792690066     0.881365970596     1.007825032230
         H           -2.891597194384    -0.897377309934    -0.000005029404     1.007825032230
         H           -2.243191194384     1.836091690066    -0.000007029404     1.007825032230

  Basis Set: AUG-CC-PVTZ
    Blend: AUG-CC-PVTZ
  Basis Set: (AUG-CC-PVTZ AUX)
    Blend: AUG-CC-PVTZ-JKFIT
	 Reference Energy          =    -322.8213115393168664 [Eh]
	 Singles Energy            =      -0.0000000000000000 [Eh]
	 Same-Spin Energy          =      -0.3345771124005479 [Eh]
	 Opposite-Spin Energy      =      -1.0595388082960300 [Eh]
	 Correlation Energy        =      -1.3941159206965779 [Eh]
	 Total Energy              =    -324.2154274600134158 [Eh]

	 ================> DF-SCS-MP2 Energies <==================
	-----------------------------------------------------------
	 SCS Same-Spin Scale       =       0.3333333333333333 [-]
	 SCS Opposite-Spin Scale   =       1.2000000000000000 [-]
	 SCS Same-Spin Energy      =      -0.1115257041335160 [Eh]
	 SCS Opposite-Spin Energy  =      -1.2714465699552360 [Eh]
	 SCS Correlation Energy    =      -1.3829722740887520 [Eh]
	 SCS Total Energy          =    -324.2042838134055955 [Eh]
	-----------------------------------------------------------

  Dipole Moment: [D]
     X:    -0.6533      Y:    -1.2610      Z:    -0.0000     Total:     1.4202

*** Psi4 exiting successfully. Buy a developer a beer!
