                               Psi4 1.3.2 release

  ==> Input File <==

--------------------------------------------------------------------------
#psi4
#
memory 32 gb

molecule  {
0 1
  O       -0.8874150    -1.1053680    -0.0000120
  N       -0.2975850     1.0586860     0.0000180
  C        1.5208660    -0.6926320     0.0000250
  C        0.1219560    -0.1795350     0.0000030
  C        2.5397680     0.4426120    -0.0000230
  C       -1.9538255    -0.4132896    -0.0000129
  C       -1.6838560     0.9546860     0.0000050
  H        1.6599850    -1.3368650     0.8764330
  H        1.6599860    -1.3369460    -0.8763220
  H        2.4145620     1.0741370    -0.8814520
  H        3.5546530     0.0364140    -0.0000210
  H        2.4145820     1.0741970     0.8813660
  H       -2.9679600    -0.9049730    -0.0000050
  H       -2.3195540     1.8284960    -0.0000070
units angstrom
no_reorient  #important for SAPT in psi4, default
symmetry c1  #important for SAPT in psi4, default
}

set PROPERTIES_ORIGIN ["COM"]
properties('MP2/aug-cc-pvtz', properties = ['dipole'])
--------------------------------------------------------------------------

    Molecular point group: c1
  Charge       = 0
  Multiplicity = 1
  Basis Set: AUG-CC-PVTZ
    Blend: AUG-CC-PVTZ
  Basis Set: (AUG-CC-PVTZ AUX)
    Blend: AUG-CC-PVTZ-JKFIT

    Orbital Energies [Eh]
    ---------------------

    Doubly Occupied:

       1A    -20.648633     2A    -15.564107     3A    -11.332598
       4A    -11.297108     5A    -11.255342     6A    -11.247992
       7A    -11.220433     8A     -1.521086     9A     -1.233151
      10A     -1.082420    11A     -0.992348    12A     -0.883015
      13A     -0.837907    14A     -0.789508    15A     -0.723397
      16A     -0.685947    17A     -0.636761    18A     -0.615319
      19A     -0.584177    20A     -0.564239    21A     -0.525713
      22A     -0.513786    23A     -0.505371    24A     -0.456700
      25A     -0.452538    26A     -0.318573

  @DF-RHF Final Energy:  -322.81539367269636

   => Energetics <=

    Nuclear Repulsion Energy =            294.0134351826087595
    One-Electron Energy =               -1020.6813252887661747
    Two-Electron Energy =                 403.8524964334610559
    Total Energy =                       -322.8153936726963593
  Basis Set: (AUG-CC-PVTZ AUX)
    Blend: AUG-CC-PVTZ-RI
    Molecular point group: c1

    Geometry (in Angstrom), charge = 0, multiplicity = 1:

       Center              X                  Y                   Z               Mass
    ------------   -----------------  -----------------  -----------------  -----------------
         O           -0.832229878753    -1.094286894511    -0.000012177777    15.994914619570
         N           -0.242399878753     1.069767105489     0.000017822223    14.003074004430
         C            1.576051121247    -0.681550894511     0.000024822223    12.000000000000
         C            0.177141121247    -0.168453894511     0.000002822223    12.000000000000
         C            2.594953121247     0.453693105489    -0.000023177777    12.000000000000
         C           -1.898640378753    -0.402208494511    -0.000013077777    12.000000000000
         C           -1.628670878753     0.965767105489     0.000004822223    12.000000000000
         H            1.715170121247    -1.325783894511     0.876432822223     1.007825032230
         H            1.715171121247    -1.325864894511    -0.876322177777     1.007825032230
         H            2.469747121247     1.085218105489    -0.881452177777     1.007825032230
         H            3.609838121247     0.047495105489    -0.000021177777     1.007825032230
         H            2.469767121247     1.085278105489     0.881365822223     1.007825032230
         H           -2.912774878753    -0.893891894511    -0.000005177777     1.007825032230
         H           -2.264368878753     1.839577105489    -0.000007177777     1.007825032230

  Basis Set: AUG-CC-PVTZ
    Blend: AUG-CC-PVTZ
  Basis Set: (AUG-CC-PVTZ AUX)
    Blend: AUG-CC-PVTZ-JKFIT
	 Reference Energy          =    -322.8153936726963593 [Eh]
	 Singles Energy            =      -0.0000000000000000 [Eh]
	 Same-Spin Energy          =      -0.3368968003565925 [Eh]
	 Opposite-Spin Energy      =      -1.0619390056957032 [Eh]
	 Correlation Energy        =      -1.3988358060522956 [Eh]
	 Total Energy              =    -324.2142294787486776 [Eh]

	 ================> DF-SCS-MP2 Energies <==================
	-----------------------------------------------------------
	 SCS Same-Spin Scale       =       0.3333333333333333 [-]
	 SCS Opposite-Spin Scale   =       1.2000000000000000 [-]
	 SCS Same-Spin Energy      =      -0.1122989334521975 [Eh]
	 SCS Opposite-Spin Energy  =      -1.2743268068348439 [Eh]
	 SCS Correlation Energy    =      -1.3866257402870414 [Eh]
	 SCS Total Energy          =    -324.2020194129834181 [Eh]
	-----------------------------------------------------------

  Dipole Moment: [D]
     X:    -0.2695      Y:    -1.3165      Z:    -0.0000     Total:     1.3438

*** Psi4 exiting successfully. Buy a developer a beer!
