                               Psi4 1.3.2 release

  ==> Input File <==

--------------------------------------------------------------------------
#psi4
#
memory 32 gb

molecule  {
0 1
  O       -0.8874150    -1.1053680    -0.0000120
  N       -0.2975850     1.0586860     0.0000180
  C        1.5208660    -0.6926320     0.0000250
  C        0.1219560    -0.1795350     0.0000030
  C        2.5397680     0.4426120    -0.0000230
  C       -2.2054759    -0.2499737    -0.0000131
  C       -1.6838560     0.9546860     0.0000050
  H        1.6599850    -1.3368650     0.8764330
  H        1.6599860    -1.3369460    -0.8763220
  H        2.4145620     1.0741370    -0.8814520
  H        3.5546530     0.0364140    -0.0000210
  H        2.4145820     1.0741970     0.8813660
  H       -2.9679600    -0.9049730    -0.0000050
  H       -2.3195540     1.8284960    -0.0000070
units angstrom
no_reorient  #important for SAPT in psi4, default
symmetry c1  #important for SAPT in psi4, default
}

set PROPERTIES_ORIGIN ["COM"]
properties('MP2/aug-cc-pvtz', properties = ['dipole'])
--------------------------------------------------------------------------

    Molecular point group: c1
  Charge       = 0
  Multiplicity = 1
  Basis Set: AUG-CC-PVTZ
    Blend: AUG-CC-PVTZ
  Basis Set: (AUG-CC-PVTZ AUX)
    Blend: AUG-CC-PVTZ-JKFIT

    Orbital Energies [Eh]
    ---------------------

    Doubly Occupied:

       1A    -20.605132     2A    -15.556343     3A    -11.343624
       4A    -11.291558     5A    -11.272937     6A    -11.248886
       7A    -11.220693     8A     -1.417611     9A     -1.214980
      10A     -1.083652    11A     -1.011726    12A     -0.886136
      13A     -0.827351    14A     -0.765557    15A     -0.708563
      16A     -0.649045    17A     -0.644181    18A     -0.592618
      19A     -0.587985    20A     -0.550124    21A     -0.516255
      22A     -0.510047    23A     -0.503712    24A     -0.454287
      25A     -0.444745    26A     -0.354332

  @DF-RHF Final Energy:  -322.79594741970709

   => Energetics <=

    Nuclear Repulsion Energy =            289.3863629854458281
    One-Electron Energy =               -1011.8404622746279529
    Two-Electron Energy =                 399.6581518694749775
    Total Energy =                       -322.7959474197070904
  Basis Set: (AUG-CC-PVTZ AUX)
    Blend: AUG-CC-PVTZ-RI
    Molecular point group: c1

    Geometry (in Angstrom), charge = 0, multiplicity = 1:

       Center              X                  Y                   Z               Mass
    ------------   -----------------  -----------------  -----------------  -----------------
         O           -0.801114795779    -1.114479939224    -0.000012153048    15.994914619570
         N           -0.211284795779     1.049574060776     0.000017846952    14.003074004430
         C            1.607166204221    -0.701743939224     0.000024846952    12.000000000000
         C            0.208256204221    -0.188646939224     0.000002846952    12.000000000000
         C            2.626068204221     0.433500060776    -0.000023153048    12.000000000000
         C           -2.119175695779    -0.259085639224    -0.000013253048    12.000000000000
         C           -1.597555795779     0.945574060776     0.000004846952    12.000000000000
         H            1.746285204221    -1.345976939224     0.876432846952     1.007825032230
         H            1.746286204221    -1.346057939224    -0.876322153048     1.007825032230
         H            2.500862204221     1.065025060776    -0.881452153048     1.007825032230
         H            3.640953204221     0.027302060776    -0.000021153048     1.007825032230
         H            2.500882204221     1.065085060776     0.881365846952     1.007825032230
         H           -2.881659795779    -0.914084939224    -0.000005153048     1.007825032230
         H           -2.233253795779     1.819384060776    -0.000007153048     1.007825032230

  Basis Set: AUG-CC-PVTZ
    Blend: AUG-CC-PVTZ
  Basis Set: (AUG-CC-PVTZ AUX)
    Blend: AUG-CC-PVTZ-JKFIT
	 Reference Energy          =    -322.7959474197070904 [Eh]
	 Singles Energy            =      -0.0000000000000000 [Eh]
	 Same-Spin Energy          =      -0.3349582480456811 [Eh]
	 Opposite-Spin Energy      =      -1.0637547506745604 [Eh]
	 Correlation Energy        =      -1.3987129987202414 [Eh]
	 Total Energy              =    -324.1946604184273042 [Eh]

	 ================> DF-SCS-MP2 Energies <==================
	-----------------------------------------------------------
	 SCS Same-Spin Scale       =       0.3333333333333333 [-]
	 SCS Opposite-Spin Scale   =       1.2000000000000000 [-]
	 SCS Same-Spin Energy      =      -0.1116527493485604 [Eh]
	 SCS Opposite-Spin Energy  =      -1.2765057008094725 [Eh]
	 SCS Correlation Energy    =      -1.3881584501580329 [Eh]
	 SCS Total Energy          =    -324.1841058698651068 [Eh]
	-----------------------------------------------------------

  Dipole Moment: [D]
     X:    -0.5396      Y:    -0.9742      Z:     0.0000     Total:     1.1137

*** Psi4 exiting successfully. Buy a developer a beer!
