                               Psi4 1.3.2 release

  ==> Input File <==

--------------------------------------------------------------------------
#psi4
#
memory 32 gb

molecule  {
0 1
  O       -0.8874150    -1.1053680    -0.0000120
  N       -0.2975850     1.0586860     0.0000180
  C        1.5208660    -0.6926320     0.0000250
  C        0.1540466    -0.2742461     0.0000019
  C        2.5397680     0.4426120    -0.0000230
  C       -2.0377090    -0.3588510    -0.0000130
  C       -1.6838560     0.9546860     0.0000050
  H        1.6599850    -1.3368650     0.8764330
  H        1.6599860    -1.3369460    -0.8763220
  H        2.4145620     1.0741370    -0.8814520
  H        3.5546530     0.0364140    -0.0000210
  H        2.4145820     1.0741970     0.8813660
  H       -2.9679600    -0.9049730    -0.0000050
  H       -2.3195540     1.8284960    -0.0000070
units angstrom
no_reorient  #important for SAPT in psi4, default
symmetry c1  #important for SAPT in psi4, default
}

set PROPERTIES_ORIGIN ["COM"]
properties('MP2/aug-cc-pvtz', properties = ['dipole'])
--------------------------------------------------------------------------

    Molecular point group: c1
  Charge       = 0
  Multiplicity = 1
  Basis Set: AUG-CC-PVTZ
    Blend: AUG-CC-PVTZ
  Basis Set: (AUG-CC-PVTZ AUX)
    Blend: AUG-CC-PVTZ-JKFIT

    Orbital Energies [Eh]
    ---------------------

    Doubly Occupied:

       1A    -20.643620     2A    -15.559472     3A    -11.346583
       4A    -11.286299     5A    -11.259751     6A    -11.249635
       7A    -11.224636     8A     -1.488361     9A     -1.193749
      10A     -1.097580    11A     -0.997167    12A     -0.894546
      13A     -0.825487    14A     -0.780919    15A     -0.717052
      16A     -0.674272    17A     -0.638633    18A     -0.613413
      19A     -0.584098    20A     -0.565463    21A     -0.540854
      22A     -0.515085    23A     -0.509748    24A     -0.442987
      25A     -0.434597    26A     -0.320672

  @DF-RHF Final Energy:  -322.80846240938337

   => Energetics <=

    Nuclear Repulsion Energy =            291.8617115430252511
    One-Electron Energy =               -1016.5309860882938437
    Two-Electron Energy =                 401.8608121358851690
    Total Energy =                       -322.8084624093833668
  Basis Set: (AUG-CC-PVTZ AUX)
    Blend: AUG-CC-PVTZ-RI
    Molecular point group: c1

    Geometry (in Angstrom), charge = 0, multiplicity = 1:

       Center              X                  Y                   Z               Mass
    ------------   -----------------  -----------------  -----------------  -----------------
         O           -0.825825993121    -1.089307438173    -0.000012029404    15.994914619570
         N           -0.235995993121     1.074746561827     0.000017970596    14.003074004430
         C            1.582455006879    -0.676571438173     0.000024970596    12.000000000000
         C            0.215635606879    -0.258185538173     0.000001870596    12.000000000000
         C            2.601357006879     0.458672561827    -0.000023029404    12.000000000000
         C           -1.976119993121    -0.342790438173    -0.000013029404    12.000000000000
         C           -1.622266993121     0.970746561827     0.000004970596    12.000000000000
         H            1.721574006879    -1.320804438173     0.876432970596     1.007825032230
         H            1.721575006879    -1.320885438173    -0.876322029404     1.007825032230
         H            2.476151006879     1.090197561827    -0.881452029404     1.007825032230
         H            3.616242006879     0.052474561827    -0.000021029404     1.007825032230
         H            2.476171006879     1.090257561827     0.881365970596     1.007825032230
         H           -2.906370993121    -0.888912438173    -0.000005029404     1.007825032230
         H           -2.257964993121     1.844556561827    -0.000007029404     1.007825032230

  Basis Set: AUG-CC-PVTZ
    Blend: AUG-CC-PVTZ
  Basis Set: (AUG-CC-PVTZ AUX)
    Blend: AUG-CC-PVTZ-JKFIT
	 Reference Energy          =    -322.8084624093833668 [Eh]
	 Singles Energy            =      -0.0000000000000000 [Eh]
	 Same-Spin Energy          =      -0.3384239354319467 [Eh]
	 Opposite-Spin Energy      =      -1.0652886717829162 [Eh]
	 Correlation Energy        =      -1.4037126072148629 [Eh]
	 Total Energy              =    -324.2121750165982235 [Eh]

	 ================> DF-SCS-MP2 Energies <==================
	-----------------------------------------------------------
	 SCS Same-Spin Scale       =       0.3333333333333333 [-]
	 SCS Opposite-Spin Scale   =       1.2000000000000000 [-]
	 SCS Same-Spin Energy      =      -0.1128079784773156 [Eh]
	 SCS Opposite-Spin Energy  =      -1.2783464061394993 [Eh]
	 SCS Correlation Energy    =      -1.3911543846168148 [Eh]
	 SCS Total Energy          =    -324.1996167940001783 [Eh]
	-----------------------------------------------------------

  Dipole Moment: [D]
     X:    -0.3166      Y:    -1.4058      Z:    -0.0000     Total:     1.4410

*** Psi4 exiting successfully. Buy a developer a beer!
