                               Psi4 1.3.2 release

  ==> Input File <==

--------------------------------------------------------------------------
#psi4
#
memory 32 gb

molecule  {
0 1
  O       -0.8745617    -1.0851789    -0.0000122
  N       -0.2975850     1.0586860     0.0000180
  C        1.5208660    -0.6926320     0.0000250
  C        0.1219560    -0.1795350     0.0000030
  C        2.5397680     0.4426120    -0.0000230
  C       -2.0377090    -0.3588510    -0.0000130
  C       -1.6838560     0.9546860     0.0000050
  H        1.6599850    -1.3368650     0.8764330
  H        1.6599860    -1.3369460    -0.8763220
  H        2.4145620     1.0741370    -0.8814520
  H        3.5546530     0.0364140    -0.0000210
  H        2.4145820     1.0741970     0.8813660
  H       -2.9679600    -0.9049730    -0.0000050
  H       -2.3195540     1.8284960    -0.0000070
units angstrom
no_reorient  #important for SAPT in psi4, default
symmetry c1  #important for SAPT in psi4, default
}

set PROPERTIES_ORIGIN ["COM"]
properties('MP2/aug-cc-pvtz', properties = ['dipole'])
--------------------------------------------------------------------------

    Molecular point group: c1
  Charge       = 0
  Multiplicity = 1
  Basis Set: AUG-CC-PVTZ
    Blend: AUG-CC-PVTZ
  Basis Set: (AUG-CC-PVTZ AUX)
    Blend: AUG-CC-PVTZ-JKFIT

    Orbital Energies [Eh]
    ---------------------

    Doubly Occupied:

       1A    -20.634694     2A    -15.557640     3A    -11.335641
       4A    -11.290277     5A    -11.260755     6A    -11.248328
       7A    -11.220420     8A     -1.485073     9A     -1.223991
      10A     -1.083769    11A     -0.999084    12A     -0.883858
      13A     -0.829823    14A     -0.781240    15A     -0.719042
      16A     -0.670961    17A     -0.633265    18A     -0.609757
      19A     -0.584588    20A     -0.571022    21A     -0.526996
      22A     -0.514244    23A     -0.504564    24A     -0.454924
      25A     -0.447366    26A     -0.332883

  @DF-RHF Final Energy:  -322.82836466008621

   => Energetics <=

    Nuclear Repulsion Energy =            292.9979108912391439
    One-Electron Energy =               -1018.8441405962960289
    Two-Electron Energy =                 403.0178650449706765
    Total Energy =                       -322.8283646600862085
  Basis Set: (AUG-CC-PVTZ AUX)
    Blend: AUG-CC-PVTZ-RI
    Molecular point group: c1

    Geometry (in Angstrom), charge = 0, multiplicity = 1:

       Center              X                  Y                   Z               Mass
    ------------   -----------------  -----------------  -----------------  -----------------
         O           -0.811123186143    -1.084156097768    -0.000012332451    15.994914619570
         N           -0.234146486143     1.059708802232     0.000017867549    14.003074004430
         C            1.584304513857    -0.691609197768     0.000024867549    12.000000000000
         C            0.185394513857    -0.178512197768     0.000002867549    12.000000000000
         C            2.603206513857     0.443634802232    -0.000023132451    12.000000000000
         C           -1.974270486143    -0.357828197768    -0.000013132451    12.000000000000
         C           -1.620417486143     0.955708802232     0.000004867549    12.000000000000
         H            1.723423513857    -1.335842197768     0.876432867549     1.007825032230
         H            1.723424513857    -1.335923197768    -0.876322132451     1.007825032230
         H            2.478000513857     1.075159802232    -0.881452132451     1.007825032230
         H            3.618091513857     0.037436802232    -0.000021132451     1.007825032230
         H            2.478020513857     1.075219802232     0.881365867549     1.007825032230
         H           -2.904521486143    -0.903950197768    -0.000005132451     1.007825032230
         H           -2.256115486143     1.829518802232    -0.000007132451     1.007825032230

  Basis Set: AUG-CC-PVTZ
    Blend: AUG-CC-PVTZ
  Basis Set: (AUG-CC-PVTZ AUX)
    Blend: AUG-CC-PVTZ-JKFIT
	 Reference Energy          =    -322.8283646600862085 [Eh]
	 Singles Energy            =      -0.0000000000000000 [Eh]
	 Same-Spin Energy          =      -0.3355150860214362 [Eh]
	 Opposite-Spin Energy      =      -1.0609017711329389 [Eh]
	 Correlation Energy        =      -1.3964168571543751 [Eh]
	 Total Energy              =    -324.2247815172405581 [Eh]

	 ================> DF-SCS-MP2 Energies <==================
	-----------------------------------------------------------
	 SCS Same-Spin Scale       =       0.3333333333333333 [-]
	 SCS Opposite-Spin Scale   =       1.2000000000000000 [-]
	 SCS Same-Spin Energy      =      -0.1118383620071454 [Eh]
	 SCS Opposite-Spin Energy  =      -1.2730821253595266 [Eh]
	 SCS Correlation Energy    =      -1.3849204873666721 [Eh]
	 SCS Total Energy          =    -324.2132851474528934 [Eh]
	-----------------------------------------------------------

  Dipole Moment: [D]
     X:    -0.4143      Y:    -1.2520      Z:    -0.0000     Total:     1.3187

*** Psi4 exiting successfully. Buy a developer a beer!
