                               Psi4 1.3.2 release

  ==> Input File <==

--------------------------------------------------------------------------
#psi4
#
memory 32 gb

molecule  {
0 1
  O       -0.8874150    -1.1053680    -0.0000120
  N       -0.2975850     1.0586860     0.0000180
  C        1.5208660    -0.6926320     0.0000250
  C        0.0890300    -0.1448725     0.0000031
  C        2.5397680     0.4426120    -0.0000230
  C       -2.0377090    -0.3588510    -0.0000130
  C       -1.6838560     0.9546860     0.0000050
  H        1.6599850    -1.3368650     0.8764330
  H        1.6599860    -1.3369460    -0.8763220
  H        2.4145620     1.0741370    -0.8814520
  H        3.5546530     0.0364140    -0.0000210
  H        2.4145820     1.0741970     0.8813660
  H       -2.9679600    -0.9049730    -0.0000050
  H       -2.3195540     1.8284960    -0.0000070
units angstrom
no_reorient  #important for SAPT in psi4, default
symmetry c1  #important for SAPT in psi4, default
}

set PROPERTIES_ORIGIN ["COM"]
properties('MP2/aug-cc-pvtz', properties = ['dipole'])
--------------------------------------------------------------------------

    Molecular point group: c1
  Charge       = 0
  Multiplicity = 1
  Basis Set: AUG-CC-PVTZ
    Blend: AUG-CC-PVTZ
  Basis Set: (AUG-CC-PVTZ AUX)
    Blend: AUG-CC-PVTZ-JKFIT

    Orbital Energies [Eh]
    ---------------------

    Doubly Occupied:

       1A    -20.633158     2A    -15.559346     3A    -11.333439
       4A    -11.292354     5A    -11.262024     6A    -11.248172
       7A    -11.218607     8A     -1.479667     9A     -1.244336
      10A     -1.074401    11A     -0.997883    12A     -0.877945
      13A     -0.831444    14A     -0.781599    15A     -0.718099
      16A     -0.667792    17A     -0.627131    18A     -0.607759
      19A     -0.585962    20A     -0.574632    21A     -0.521607
      22A     -0.509130    23A     -0.501943    24A     -0.462414
      25A     -0.458349    26A     -0.336942

  @DF-RHF Final Energy:  -322.82674895007375

   => Energetics <=

    Nuclear Repulsion Energy =            292.7604723440771863
    One-Electron Energy =               -1018.3621692669613594
    Two-Electron Energy =                 402.7749479728104802
    Total Energy =                       -322.8267489500737497
  Basis Set: (AUG-CC-PVTZ AUX)
    Blend: AUG-CC-PVTZ-RI
    Molecular point group: c1

    Geometry (in Angstrom), charge = 0, multiplicity = 1:

       Center              X                  Y                   Z               Mass
    ------------   -----------------  -----------------  -----------------  -----------------
         O           -0.817787075226    -1.105303718325    -0.000012177777    15.994914619570
         N           -0.227957075226     1.058750281675     0.000017822223    14.003074004430
         C            1.590493924774    -0.692567718325     0.000024822223    12.000000000000
         C            0.158657924774    -0.144808218325     0.000002922223    12.000000000000
         C            2.609395924774     0.442676281675    -0.000023177777    12.000000000000
         C           -1.968081075226    -0.358786718325    -0.000013177777    12.000000000000
         C           -1.614228075226     0.954750281675     0.000004822223    12.000000000000
         H            1.729612924774    -1.336800718325     0.876432822223     1.007825032230
         H            1.729613924774    -1.336881718325    -0.876322177777     1.007825032230
         H            2.484189924774     1.074201281675    -0.881452177777     1.007825032230
         H            3.624280924774     0.036478281675    -0.000021177777     1.007825032230
         H            2.484209924774     1.074261281675     0.881365822223     1.007825032230
         H           -2.898332075226    -0.904908718325    -0.000005177777     1.007825032230
         H           -2.249926075226     1.828560281675    -0.000007177777     1.007825032230

  Basis Set: AUG-CC-PVTZ
    Blend: AUG-CC-PVTZ
  Basis Set: (AUG-CC-PVTZ AUX)
    Blend: AUG-CC-PVTZ-JKFIT
	 Reference Energy          =    -322.8267489500737497 [Eh]
	 Singles Energy            =      -0.0000000000000000 [Eh]
	 Same-Spin Energy          =      -0.3345530572043917 [Eh]
	 Opposite-Spin Energy      =      -1.0602877302669689 [Eh]
	 Correlation Energy        =      -1.3948407874713604 [Eh]
	 Total Energy              =    -324.2215897375451163 [Eh]

	 ================> DF-SCS-MP2 Energies <==================
	-----------------------------------------------------------
	 SCS Same-Spin Scale       =       0.3333333333333333 [-]
	 SCS Opposite-Spin Scale   =       1.2000000000000000 [-]
	 SCS Same-Spin Energy      =      -0.1115176857347972 [Eh]
	 SCS Opposite-Spin Energy  =      -1.2723452763203627 [Eh]
	 SCS Correlation Energy    =      -1.3838629620551599 [Eh]
	 SCS Total Energy          =    -324.2106119121289112 [Eh]
	-----------------------------------------------------------

  Dipole Moment: [D]
     X:    -0.4557      Y:    -1.0889      Z:    -0.0000     Total:     1.1804

*** Psi4 exiting successfully. Buy a developer a beer!
