                               Psi4 1.3.2 release

  ==> Input File <==

--------------------------------------------------------------------------
#psi4
#
memory 32 gb

molecule  {
0 1
  O       -0.8874150    -1.1053680    -0.0000120
  N       -0.2975850     1.0586860     0.0000180
  C        1.5208660    -0.6926320     0.0000250
  C        0.1219560    -0.1795350     0.0000030
  C        2.5397680     0.4426120    -0.0000230
  C       -1.8699421    -0.4677283    -0.0000129
  C       -1.6838560     0.9546860     0.0000050
  H        1.6599850    -1.3368650     0.8764330
  H        1.6599860    -1.3369460    -0.8763220
  H        2.4145620     1.0741370    -0.8814520
  H        3.5546530     0.0364140    -0.0000210
  H        2.4145820     1.0741970     0.8813660
  H       -2.9679600    -0.9049730    -0.0000050
  H       -2.3195540     1.8284960    -0.0000070
units angstrom
no_reorient  #important for SAPT in psi4, default
symmetry c1  #important for SAPT in psi4, default
}

set PROPERTIES_ORIGIN ["COM"]
properties('MP2/aug-cc-pvtz', properties = ['dipole'])
--------------------------------------------------------------------------

    Molecular point group: c1
  Charge       = 0
  Multiplicity = 1
  Basis Set: AUG-CC-PVTZ
    Blend: AUG-CC-PVTZ
  Basis Set: (AUG-CC-PVTZ AUX)
    Blend: AUG-CC-PVTZ-JKFIT

    Orbital Energies [Eh]
    ---------------------

    Doubly Occupied:

       1A    -20.664557     2A    -15.568650     3A    -11.325801
       4A    -11.307753     5A    -11.249544     6A    -11.247020
       7A    -11.219873     8A     -1.580273     9A     -1.240868
      10A     -1.082624    11A     -0.991812    12A     -0.883312
      13A     -0.851126    14A     -0.801292    15A     -0.730885
      16A     -0.715735    17A     -0.647936    18A     -0.619317
      19A     -0.582467    20A     -0.549685    21A     -0.519438
      22A     -0.512535    23A     -0.505861    24A     -0.456464
      25A     -0.453644    26A     -0.304105

  @DF-RHF Final Energy:  -322.77223023379332

   => Energetics <=

    Nuclear Repulsion Energy =            295.8962130302604692
    One-Electron Energy =               -1024.1117327251629376
    Two-Electron Energy =                 405.4432894611091456
    Total Energy =                       -322.7722302337933229
  Basis Set: (AUG-CC-PVTZ AUX)
    Blend: AUG-CC-PVTZ-RI
    Molecular point group: c1

    Geometry (in Angstrom), charge = 0, multiplicity = 1:

       Center              X                  Y                   Z               Mass
    ------------   -----------------  -----------------  -----------------  -----------------
         O           -0.842601564835    -1.087555871363    -0.000012177777    15.994914619570
         N           -0.252771564835     1.076498128637     0.000017822223    14.003074004430
         C            1.565679435165    -0.674819871363     0.000024822223    12.000000000000
         C            0.166769435165    -0.161722871363     0.000002822223    12.000000000000
         C            2.584581435165     0.460424128637    -0.000023177777    12.000000000000
         C           -1.825128664835    -0.449916171363    -0.000013077777    12.000000000000
         C           -1.639042564835     0.972498128637     0.000004822223    12.000000000000
         H            1.704798435165    -1.319052871363     0.876432822223     1.007825032230
         H            1.704799435165    -1.319133871363    -0.876322177777     1.007825032230
         H            2.459375435165     1.091949128637    -0.881452177777     1.007825032230
         H            3.599466435165     0.054226128637    -0.000021177777     1.007825032230
         H            2.459395435165     1.092009128637     0.881365822223     1.007825032230
         H           -2.923146564835    -0.887160871363    -0.000005177777     1.007825032230
         H           -2.274740564835     1.846308128637    -0.000007177777     1.007825032230

  Basis Set: AUG-CC-PVTZ
    Blend: AUG-CC-PVTZ
  Basis Set: (AUG-CC-PVTZ AUX)
    Blend: AUG-CC-PVTZ-JKFIT
	 Reference Energy          =    -322.7722302337933229 [Eh]
	 Singles Energy            =      -0.0000000000000000 [Eh]
	 Same-Spin Energy          =      -0.3382026774360373 [Eh]
	 Opposite-Spin Energy      =      -1.0623624396108147 [Eh]
	 Correlation Energy        =      -1.4005651170468520 [Eh]
	 Total Energy              =    -324.1727953508401470 [Eh]

	 ================> DF-SCS-MP2 Energies <==================
	-----------------------------------------------------------
	 SCS Same-Spin Scale       =       0.3333333333333333 [-]
	 SCS Opposite-Spin Scale   =       1.2000000000000000 [-]
	 SCS Same-Spin Energy      =      -0.1127342258120124 [Eh]
	 SCS Opposite-Spin Energy  =      -1.2748349275329776 [Eh]
	 SCS Correlation Energy    =      -1.3875691533449901 [Eh]
	 SCS Total Energy          =    -324.1597993871383210 [Eh]
	-----------------------------------------------------------

  Dipole Moment: [D]
     X:    -0.1417      Y:    -1.4855      Z:    -0.0000     Total:     1.4923

*** Psi4 exiting successfully. Buy a developer a beer!
