                               Psi4 1.4a3.dev225

  ==> Input File <==

--------------------------------------------------------------------------
#psi4
#
memory 32 gb

molecule  {
0 1
  O       -0.8874150    -1.1053680    -0.0000120
  N       -0.2975850     1.0586860     0.0000180
  C        1.5208660    -0.6926320     0.0000250
  C        0.1219560    -0.1795350     0.0000030
  C        2.5397680     0.4426120    -0.0000230
  C       -2.0377090    -0.3588510    -0.0000130
  C       -1.6786537     0.9739975     0.0000053
  H        1.6599850    -1.3368650     0.8764330
  H        1.6599860    -1.3369460    -0.8763220
  H        2.4145620     1.0741370    -0.8814520
  H        3.5546530     0.0364140    -0.0000210
  H        2.4145820     1.0741970     0.8813660
  H       -2.9679600    -0.9049730    -0.0000050
  H       -2.3195540     1.8284960    -0.0000070
units angstrom
no_reorient  #important for SAPT in psi4, default
symmetry c1  #important for SAPT in psi4, default
}

set PROPERTIES_ORIGIN ["COM"]
properties('MP2/aug-cc-pvtz', properties = ['dipole'])
--------------------------------------------------------------------------

    Molecular point group: c1
  Charge       = 0
  Multiplicity = 1
  Basis Set: AUG-CC-PVTZ
    Blend: AUG-CC-PVTZ
  Basis Set: (AUG-CC-PVTZ AUX)
    Blend: AUG-CC-PVTZ-JKFIT

    Orbital Energies [Eh]
    ---------------------

    Doubly Occupied:

       1A    -20.635788     2A    -15.560850     3A    -11.337588
       4A    -11.293338     5A    -11.262362     6A    -11.248766
       7A    -11.220806     8A     -1.476578     9A     -1.227701
      10A     -1.081923    11A     -0.994579    12A     -0.883276
      13A     -0.830091    14A     -0.779914    15A     -0.717660
      16A     -0.666997    17A     -0.632510    18A     -0.608972
      19A     -0.589101    20A     -0.570857    21A     -0.526733
      22A     -0.515035    23A     -0.504861    24A     -0.455500
      25A     -0.450428    26A     -0.328041

  @DF-RHF Final Energy:  -322.82540414039545

   => Energetics <=

    Nuclear Repulsion Energy =            292.1271125364104932
    One-Electron Energy =               -1017.1045214933071748
    Two-Electron Energy =                 402.1520048165011758
    Total Energy =                       -322.8254041403954488
  Basis Set: (AUG-CC-PVTZ AUX)
    Blend: AUG-CC-PVTZ-RI
    Molecular point group: c1

    Geometry (in Angstrom), charge = 0, multiplicity = 1:

       Center              X                  Y                   Z               Mass
    ------------   -----------------  -----------------  -----------------  -----------------
         O           -0.822501413921    -1.103405658005    -0.000012202506    15.994914619570
         N           -0.232671413921     1.060648341995     0.000017797494    14.003074004430
         C            1.585779586079    -0.690669658005     0.000024797494    12.000000000000
         C            0.186869586079    -0.177572658005     0.000002797494    12.000000000000
         C            2.604681586079     0.444574341995    -0.000023202506    12.000000000000
         C           -1.972795413921    -0.356888658005    -0.000013202506    12.000000000000
         C           -1.613740113921     0.975959841995     0.000005097494    12.000000000000
         H            1.724898586079    -1.334902658005     0.876432797494     1.007825032230
         H            1.724899586079    -1.334983658005    -0.876322202506     1.007825032230
         H            2.479475586079     1.076099341995    -0.881452202506     1.007825032230
         H            3.619566586079     0.038376341995    -0.000021202506     1.007825032230
         H            2.479495586079     1.076159341995     0.881365797494     1.007825032230
         H           -2.903046413921    -0.903010658005    -0.000005202506     1.007825032230
         H           -2.254640413921     1.830458341995    -0.000007202506     1.007825032230

  Basis Set: AUG-CC-PVTZ
    Blend: AUG-CC-PVTZ
  Basis Set: (AUG-CC-PVTZ AUX)
    Blend: AUG-CC-PVTZ-JKFIT
	 Reference Energy          =    -322.8254041403954488 [Eh]
	 Singles Energy            =      -0.0000000000000000 [Eh]
	 Same-Spin Energy          =      -0.3361952656197756 [Eh]
	 Opposite-Spin Energy      =      -1.0625723541223220 [Eh]
	 Correlation Energy        =      -1.3987676197420975 [Eh]
	 Total Energy              =    -324.2241717601375512 [Eh]

	 ================> DF-SCS-MP2 Energies <==================
	-----------------------------------------------------------
	 SCS Same-Spin Scale       =       0.3333333333333333 [-]
	 SCS Opposite-Spin Scale   =       1.2000000000000000 [-]
	 SCS Same-Spin Energy      =      -0.1120650885399252 [Eh]
	 SCS Opposite-Spin Energy  =      -1.2750868249467864 [Eh]
	 SCS Correlation Energy    =      -1.3871519134867116 [Eh]
	 SCS Total Energy          =    -324.2125560538821674 [Eh]
	-----------------------------------------------------------

  Dipole Moment: [D]
     X:    -0.3715      Y:    -1.1716      Z:    -0.0000     Total:     1.2291

*** Psi4 exiting successfully. Buy a developer a beer!
