                               Psi4 1.4a3.dev225

  ==> Input File <==

--------------------------------------------------------------------------
#psi4
#
memory 32 gb

molecule  {
0 1
  O       -0.8874150    -1.1053680    -0.0000120
  N       -0.2975850     1.0586860     0.0000180
  C        1.5208660    -0.6926320     0.0000250
  C        0.1219560    -0.1795350     0.0000030
  C        2.5397680     0.4426120    -0.0000230
  C       -2.0209323    -0.3697387    -0.0000130
  C       -1.6838560     0.9546860     0.0000050
  H        1.6599850    -1.3368650     0.8764330
  H        1.6599860    -1.3369460    -0.8763220
  H        2.4145620     1.0741370    -0.8814520
  H        3.5546530     0.0364140    -0.0000210
  H        2.4145820     1.0741970     0.8813660
  H       -2.9679600    -0.9049730    -0.0000050
  H       -2.3195540     1.8284960    -0.0000070
units angstrom
no_reorient  #important for SAPT in psi4, default
symmetry c1  #important for SAPT in psi4, default
}

set PROPERTIES_ORIGIN ["COM"]
properties('MP2/aug-cc-pvtz', properties = ['dipole'])
--------------------------------------------------------------------------

    Molecular point group: c1
  Charge       = 0
  Multiplicity = 1
  Basis Set: AUG-CC-PVTZ
    Blend: AUG-CC-PVTZ
  Basis Set: (AUG-CC-PVTZ AUX)
    Blend: AUG-CC-PVTZ-JKFIT

    Orbital Energies [Eh]
    ---------------------

    Doubly Occupied:

       1A    -20.637094     2A    -15.561315     3A    -11.336889
       4A    -11.291718     5A    -11.259605     6A    -11.248641
       7A    -11.220781     8A     -1.484473     9A     -1.227622
      10A     -1.082629    11A     -0.995943    12A     -0.883904
      13A     -0.829218    14A     -0.782176    15A     -0.718257
      16A     -0.670239    17A     -0.630834    18A     -0.610598
      19A     -0.584884    20A     -0.571943    21A     -0.526890
      22A     -0.514532    23A     -0.505048    24A     -0.457063
      25A     -0.449992    26A     -0.329459

  @DF-RHF Final Energy:  -322.82667064961379

   => Energetics <=

    Nuclear Repulsion Energy =            292.6644109265850489
    One-Electron Energy =               -1018.1586683914463265
    Two-Electron Energy =                 402.6675868152474322
    Total Energy =                       -322.8266706496137886
  Basis Set: (AUG-CC-PVTZ AUX)
    Blend: AUG-CC-PVTZ-RI
    Molecular point group: c1

    Geometry (in Angstrom), charge = 0, multiplicity = 1:

       Center              X                  Y                   Z               Mass
    ------------   -----------------  -----------------  -----------------  -----------------
         O           -0.823932519996    -1.099671705610    -0.000012165413    15.994914619570
         N           -0.234102519996     1.064382294390     0.000017834587    14.003074004430
         C            1.584348480004    -0.686935705610     0.000024834587    12.000000000000
         C            0.185438480004    -0.173838705610     0.000002834587    12.000000000000
         C            2.603250480004     0.448308294390    -0.000023165413    12.000000000000
         C           -1.957449819996    -0.364042405610    -0.000013165413    12.000000000000
         C           -1.620373519996     0.960382294390     0.000004834587    12.000000000000
         H            1.723467480004    -1.331168705610     0.876432834587     1.007825032230
         H            1.723468480004    -1.331249705610    -0.876322165413     1.007825032230
         H            2.478044480004     1.079833294390    -0.881452165413     1.007825032230
         H            3.618135480004     0.042110294390    -0.000021165413     1.007825032230
         H            2.478064480004     1.079893294390     0.881365834587     1.007825032230
         H           -2.904477519996    -0.899276705610    -0.000005165413     1.007825032230
         H           -2.256071519996     1.834192294390    -0.000007165413     1.007825032230

  Basis Set: AUG-CC-PVTZ
    Blend: AUG-CC-PVTZ
  Basis Set: (AUG-CC-PVTZ AUX)
    Blend: AUG-CC-PVTZ-JKFIT
	 Reference Energy          =    -322.8266706496137886 [Eh]
	 Singles Energy            =      -0.0000000000000000 [Eh]
	 Same-Spin Energy          =      -0.3359618740633041 [Eh]
	 Opposite-Spin Energy      =      -1.0618575340561525 [Eh]
	 Correlation Energy        =      -1.3978194081194566 [Eh]
	 Total Energy              =    -324.2244900577332487 [Eh]

	 ================> DF-SCS-MP2 Energies <==================
	-----------------------------------------------------------
	 SCS Same-Spin Scale       =       0.3333333333333333 [-]
	 SCS Opposite-Spin Scale   =       1.2000000000000000 [-]
	 SCS Same-Spin Energy      =      -0.1119872913544347 [Eh]
	 SCS Opposite-Spin Energy  =      -1.2742290408673829 [Eh]
	 SCS Correlation Energy    =      -1.3862163322218175 [Eh]
	 SCS Total Energy          =    -324.2128869818355952 [Eh]
	-----------------------------------------------------------

  Dipole Moment: [D]
     X:    -0.3493      Y:    -1.2073      Z:    -0.0000     Total:     1.2568

*** Psi4 exiting successfully. Buy a developer a beer!
