                               Psi4 1.3.2 release

  ==> Input File <==

--------------------------------------------------------------------------
#psi4
#
memory 32 gb

molecule  {
0 1
  O       -0.8874150    -1.1053680    -0.0000120
  N       -0.2975850     1.0586860     0.0000180
  C        1.5208660    -0.6926320     0.0000250
  C        0.1173660    -0.1927074     0.0219511
  C        2.5397680     0.4426120    -0.0000230
  C       -2.0377090    -0.3588510    -0.0000130
  C       -1.6838560     0.9546860     0.0000050
  H        1.6599850    -1.3368650     0.8764330
  H        1.6599860    -1.3369460    -0.8763220
  H        2.4145620     1.0741370    -0.8814520
  H        3.5546530     0.0364140    -0.0000210
  H        2.4145820     1.0741970     0.8813660
  H       -2.9679600    -0.9049730    -0.0000050
  H       -2.3195540     1.8284960    -0.0000070
units angstrom
no_reorient  #important for SAPT in psi4, default
symmetry c1  #important for SAPT in psi4, default
}

set PROPERTIES_ORIGIN ["COM"]
properties('MP2/aug-cc-pvtz', properties = ['dipole'])
--------------------------------------------------------------------------

    Molecular point group: c1
  Charge       = 0
  Multiplicity = 1
  Basis Set: AUG-CC-PVTZ
    Blend: AUG-CC-PVTZ
  Basis Set: (AUG-CC-PVTZ AUX)
    Blend: AUG-CC-PVTZ-JKFIT

    Orbital Energies [Eh]
    ---------------------

    Doubly Occupied:

       1A    -20.636786     2A    -15.560396     3A    -11.338669
       4A    -11.290220     5A    -11.260918     6A    -11.248802
       7A    -11.220897     8A     -1.481452     9A     -1.222871
      10A     -1.083024    11A     -0.997318    12A     -0.884323
      13A     -0.828388    14A     -0.781691    15A     -0.717540
      16A     -0.669078    17A     -0.631125    18A     -0.609831
      19A     -0.583234    20A     -0.573308    21A     -0.528033
      22A     -0.513789    23A     -0.504860    24A     -0.456564
      25A     -0.447633    26A     -0.331276

  @DF-RHF Final Energy:  -322.82646466561880

   => Energetics <=

    Nuclear Repulsion Energy =            292.3460474615623639
    One-Electron Energy =               -1017.5409716413961405
    Two-Electron Energy =                 402.3684595142150329
    Total Energy =                       -322.8264646656188006
  Basis Set: (AUG-CC-PVTZ AUX)
    Blend: AUG-CC-PVTZ-RI
    Molecular point group: c1

    Geometry (in Angstrom), charge = 0, multiplicity = 1:

       Center              X                  Y                   Z               Mass
    ------------   -----------------  -----------------  -----------------  -----------------
         O           -0.821290653966    -1.099389215973    -0.002725918113    15.994914619570
         N           -0.231460653966     1.064664784027    -0.002695918113    14.003074004430
         C            1.586990346034    -0.686653215973    -0.002688918113    12.000000000000
         C            0.183490346034    -0.186728615973     0.019237181887    12.000000000000
         C            2.605892346034     0.448590784027    -0.002736918113    12.000000000000
         C           -1.971584653966    -0.352872215973    -0.002726918113    12.000000000000
         C           -1.617731653966     0.960664784027    -0.002708918113    12.000000000000
         H            1.726109346034    -1.330886215973     0.873719081887     1.007825032230
         H            1.726110346034    -1.330967215973    -0.879035918113     1.007825032230
         H            2.480686346034     1.080115784027    -0.884165918113     1.007825032230
         H            3.620777346034     0.042392784027    -0.002734918113     1.007825032230
         H            2.480706346034     1.080175784027     0.878652081887     1.007825032230
         H           -2.901835653966    -0.898994215973    -0.002718918113     1.007825032230
         H           -2.253429653966     1.834474784027    -0.002720918113     1.007825032230

  Basis Set: AUG-CC-PVTZ
    Blend: AUG-CC-PVTZ
  Basis Set: (AUG-CC-PVTZ AUX)
    Blend: AUG-CC-PVTZ-JKFIT
	 Reference Energy          =    -322.8264646656188006 [Eh]
	 Singles Energy            =      -0.0000000000000000 [Eh]
	 Same-Spin Energy          =      -0.3359027626538959 [Eh]
	 Opposite-Spin Energy      =      -1.0619701395077616 [Eh]
	 Correlation Energy        =      -1.3978729021616576 [Eh]
	 Total Energy              =    -324.2243375677804806 [Eh]

	 ================> DF-SCS-MP2 Energies <==================
	-----------------------------------------------------------
	 SCS Same-Spin Scale       =       0.3333333333333333 [-]
	 SCS Opposite-Spin Scale   =       1.2000000000000000 [-]
	 SCS Same-Spin Energy      =      -0.1119675875512986 [Eh]
	 SCS Opposite-Spin Energy  =      -1.2743641674093140 [Eh]
	 SCS Correlation Energy    =      -1.3863317549606127 [Eh]
	 SCS Total Energy          =    -324.2127964205794228 [Eh]
	-----------------------------------------------------------

  Dipole Moment: [D]
     X:    -0.3918      Y:    -1.2169      Z:     0.0067     Total:     1.2785

*** Psi4 exiting successfully. Buy a developer a beer!
