                               Psi4 1.3.2 release

  ==> Input File <==

--------------------------------------------------------------------------
#psi4
#
memory 32 gb

molecule  {
0 1
  O       -0.8874150    -1.1053680    -0.0000120
  N       -0.2975850     1.0586860     0.0000180
  C        1.5208660    -0.6926320     0.0000250
  C        0.2490870    -0.1288979     0.0000048
  C        2.5397680     0.4426120    -0.0000230
  C       -2.0377090    -0.3588510    -0.0000130
  C       -1.6838560     0.9546860     0.0000050
  H        1.6599850    -1.3368650     0.8764330
  H        1.6599860    -1.3369460    -0.8763220
  H        2.4145620     1.0741370    -0.8814520
  H        3.5546530     0.0364140    -0.0000210
  H        2.4145820     1.0741970     0.8813660
  H       -2.9679600    -0.9049730    -0.0000050
  H       -2.3195540     1.8284960    -0.0000070
units angstrom
no_reorient  #important for SAPT in psi4, default
symmetry c1  #important for SAPT in psi4, default
}

set PROPERTIES_ORIGIN ["COM"]
properties('MP2/aug-cc-pvtz', properties = ['dipole'])
--------------------------------------------------------------------------

    Molecular point group: c1
  Charge       = 0
  Multiplicity = 1
  Basis Set: AUG-CC-PVTZ
    Blend: AUG-CC-PVTZ
  Basis Set: (AUG-CC-PVTZ AUX)
    Blend: AUG-CC-PVTZ-JKFIT

    Orbital Energies [Eh]
    ---------------------

    Doubly Occupied:

       1A    -20.609183     2A    -15.568418     3A    -11.341841
       4A    -11.292785     5A    -11.255275     6A    -11.249305
       7A    -11.226901     8A     -1.425929     9A     -1.219315
      10A     -1.104720    11A     -0.993146    12A     -0.899121
      13A     -0.815964    14A     -0.761178    15A     -0.711892
      16A     -0.659266    17A     -0.638250    18A     -0.602488
      19A     -0.598743    20A     -0.552283    21A     -0.530313
      22A     -0.522234    23A     -0.512965    24A     -0.445655
      25A     -0.443904    26A     -0.325668

  @DF-RHF Final Energy:  -322.79993062752806

   => Energetics <=

    Nuclear Repulsion Energy =            291.4362354243301638
    One-Electron Energy =               -1015.8588430316796121
    Two-Electron Energy =                 401.6226769798213354
    Total Energy =                       -322.7999306275280560
  Basis Set: (AUG-CC-PVTZ AUX)
    Blend: AUG-CC-PVTZ-RI
    Molecular point group: c1

    Geometry (in Angstrom), charge = 0, multiplicity = 1:

       Center              X                  Y                   Z               Mass
    ------------   -----------------  -----------------  -----------------  -----------------
         O           -0.837577176238    -1.107278883095    -0.000012387972    15.994914619570
         N           -0.247747176238     1.056775116905     0.000017612028    14.003074004430
         C            1.570703823762    -0.694542883095     0.000024612028    12.000000000000
         C            0.298924823762    -0.130808783095     0.000004412028    12.000000000000
         C            2.589605823762     0.440701116905    -0.000023387972    12.000000000000
         C           -1.987871176238    -0.360761883095    -0.000013387972    12.000000000000
         C           -1.634018176238     0.952775116905     0.000004612028    12.000000000000
         H            1.709822823762    -1.338775883095     0.876432612028     1.007825032230
         H            1.709823823762    -1.338856883095    -0.876322387972     1.007825032230
         H            2.464399823762     1.072226116905    -0.881452387972     1.007825032230
         H            3.604490823762     0.034503116905    -0.000021387972     1.007825032230
         H            2.464419823762     1.072286116905     0.881365612028     1.007825032230
         H           -2.918122176238    -0.906883883095    -0.000005387972     1.007825032230
         H           -2.269716176238     1.826585116905    -0.000007387972     1.007825032230

  Basis Set: AUG-CC-PVTZ
    Blend: AUG-CC-PVTZ
  Basis Set: (AUG-CC-PVTZ AUX)
    Blend: AUG-CC-PVTZ-JKFIT
	 Reference Energy          =    -322.7999306275280560 [Eh]
	 Singles Energy            =      -0.0000000000000000 [Eh]
	 Same-Spin Energy          =      -0.3387978421046309 [Eh]
	 Opposite-Spin Energy      =      -1.0675212113484238 [Eh]
	 Correlation Energy        =      -1.4063190534530547 [Eh]
	 Total Energy              =    -324.2062496809811023 [Eh]

	 ================> DF-SCS-MP2 Energies <==================
	-----------------------------------------------------------
	 SCS Same-Spin Scale       =       0.3333333333333333 [-]
	 SCS Opposite-Spin Scale   =       1.2000000000000000 [-]
	 SCS Same-Spin Energy      =      -0.1129326140348770 [Eh]
	 SCS Opposite-Spin Energy  =      -1.2810254536181085 [Eh]
	 SCS Correlation Energy    =      -1.3939580676529855 [Eh]
	 SCS Total Energy          =    -324.1938886951810446 [Eh]
	-----------------------------------------------------------

  Dipole Moment: [D]
     X:     0.1386      Y:    -1.0238      Z:     0.0000     Total:     1.0331

*** Psi4 exiting successfully. Buy a developer a beer!
