                               Psi4 1.4a3.dev225

  ==> Input File <==

--------------------------------------------------------------------------
#psi4
#
memory 32 gb

molecule  {
0 1
  O       -0.8874150    -1.1053680    -0.0000120
  N       -0.2975850     1.0586860     0.0000180
  C        1.5208660    -0.6926320     0.0000250
  C        0.1219560    -0.1795350     0.0000030
  C        2.5397680     0.4426120    -0.0000230
  C       -2.0377090    -0.3588510    -0.0000130
  C       -1.6838560     0.9546860     0.0000050
  H        1.6599850    -1.3368650     0.8764330
  H        1.6599860    -1.3369460    -0.8763220
  H        2.4145620     1.0741370    -0.8814520
  H        3.5546530     0.0364140    -0.0000210
  H        2.4145820     1.0741970     0.8813660
  H       -2.9248413    -0.8796593    -0.0000054
  H       -2.3195540     1.8284960    -0.0000070
units angstrom
no_reorient  #important for SAPT in psi4, default
symmetry c1  #important for SAPT in psi4, default
}

set PROPERTIES_ORIGIN ["COM"]
properties('MP2/aug-cc-pvtz', properties = ['dipole'])
--------------------------------------------------------------------------

    Molecular point group: c1
  Charge       = 0
  Multiplicity = 1
  Basis Set: AUG-CC-PVTZ
    Blend: AUG-CC-PVTZ
  Basis Set: (AUG-CC-PVTZ AUX)
    Blend: AUG-CC-PVTZ-JKFIT

    Orbital Energies [Eh]
    ---------------------

    Doubly Occupied:

       1A    -20.633920     2A    -15.560520     3A    -11.337709
       4A    -11.285343     5A    -11.260582     6A    -11.248710
       7A    -11.220799     8A     -1.476334     9A     -1.226197
      10A     -1.083051    11A     -0.999023    12A     -0.884328
      13A     -0.832096    14A     -0.780195    15A     -0.721491
      16A     -0.667038    17A     -0.637152    18A     -0.609112
      19A     -0.585161    20A     -0.573131    21A     -0.527085
      22A     -0.514634    23A     -0.504919    24A     -0.457023
      25A     -0.449268    26A     -0.332069

  @DF-RHF Final Energy:  -322.82617613439783

   => Energetics <=

    Nuclear Repulsion Energy =            292.6061561359734355
    One-Electron Energy =               -1018.0508858416247904
    Two-Electron Energy =                 402.6185535712534715
    Total Energy =                       -322.8261761343978264
  Basis Set: (AUG-CC-PVTZ AUX)
    Blend: AUG-CC-PVTZ-RI
    Molecular point group: c1

    Geometry (in Angstrom), charge = 0, multiplicity = 1:

       Center              X                  Y                   Z               Mass
    ------------   -----------------  -----------------  -----------------  -----------------
         O           -0.822305937831    -1.101280770353    -0.000012161259    15.994914619570
         N           -0.232475937831     1.062773229647     0.000017838741    14.003074004430
         C            1.585975062169    -0.688544770353     0.000024838741    12.000000000000
         C            0.187065062169    -0.175447770353     0.000002838741    12.000000000000
         C            2.604877062169     0.446699229647    -0.000023161259    12.000000000000
         C           -1.972599937831    -0.354763770353    -0.000013161259    12.000000000000
         C           -1.618746937831     0.958773229647     0.000004838741    12.000000000000
         H            1.725094062169    -1.332777770353     0.876432838741     1.007825032230
         H            1.725095062169    -1.332858770353    -0.876322161259     1.007825032230
         H            2.479671062169     1.078224229647    -0.881452161259     1.007825032230
         H            3.619762062169     0.040501229647    -0.000021161259     1.007825032230
         H            2.479691062169     1.078284229647     0.881365838741     1.007825032230
         H           -2.859732237831    -0.875572070353    -0.000005561259     1.007825032230
         H           -2.254444937831     1.832583229647    -0.000007161259     1.007825032230

  Basis Set: AUG-CC-PVTZ
    Blend: AUG-CC-PVTZ
  Basis Set: (AUG-CC-PVTZ AUX)
    Blend: AUG-CC-PVTZ-JKFIT
	 Reference Energy          =    -322.8261761343978264 [Eh]
	 Singles Energy            =      -0.0000000000000000 [Eh]
	 Same-Spin Energy          =      -0.3356709668291690 [Eh]
	 Opposite-Spin Energy      =      -1.0616019524132294 [Eh]
	 Correlation Energy        =      -1.3972729192423983 [Eh]
	 Total Energy              =    -324.2234490536402518 [Eh]

	 ================> DF-SCS-MP2 Energies <==================
	-----------------------------------------------------------
	 SCS Same-Spin Scale       =       0.3333333333333333 [-]
	 SCS Opposite-Spin Scale   =       1.2000000000000000 [-]
	 SCS Same-Spin Energy      =      -0.1118903222763896 [Eh]
	 SCS Opposite-Spin Energy  =      -1.2739223428958752 [Eh]
	 SCS Correlation Energy    =      -1.3858126651722649 [Eh]
	 SCS Total Energy          =    -324.2119887995700651 [Eh]
	-----------------------------------------------------------

  Dipole Moment: [D]
     X:    -0.3625      Y:    -1.1741      Z:    -0.0000     Total:     1.2288

*** Psi4 exiting successfully. Buy a developer a beer!
