                               Psi4 1.3.2 release

  ==> Input File <==

--------------------------------------------------------------------------
#psi4
#
memory 32 gb

molecule  {
0 1
  O       -0.8874150    -1.1053680    -0.0000120
  N       -0.2975850     1.0586860     0.0000180
  C        1.5208660    -0.6926320     0.0000250
  C        0.1861371    -0.3689572     0.0000007
  C        2.5397680     0.4426120    -0.0000230
  C       -2.0377090    -0.3588510    -0.0000130
  C       -1.6838560     0.9546860     0.0000050
  H        1.6599850    -1.3368650     0.8764330
  H        1.6599860    -1.3369460    -0.8763220
  H        2.4145620     1.0741370    -0.8814520
  H        3.5546530     0.0364140    -0.0000210
  H        2.4145820     1.0741970     0.8813660
  H       -2.9679600    -0.9049730    -0.0000050
  H       -2.3195540     1.8284960    -0.0000070
units angstrom
no_reorient  #important for SAPT in psi4, default
symmetry c1  #important for SAPT in psi4, default
}

set PROPERTIES_ORIGIN ["COM"]
properties('MP2/aug-cc-pvtz', properties = ['dipole'])
--------------------------------------------------------------------------

    Molecular point group: c1
  Charge       = 0
  Multiplicity = 1
  Basis Set: AUG-CC-PVTZ
    Blend: AUG-CC-PVTZ
  Basis Set: (AUG-CC-PVTZ AUX)
    Blend: AUG-CC-PVTZ-JKFIT

    Orbital Energies [Eh]
    ---------------------

    Doubly Occupied:

       1A    -20.651654     2A    -15.554983     3A    -11.354900
       4A    -11.281089     5A    -11.258596     6A    -11.251491
       7A    -11.228997     8A     -1.499104     9A     -1.168982
      10A     -1.113920    11A     -0.998390    12A     -0.906023
      13A     -0.825692    14A     -0.777423    15A     -0.716573
      16A     -0.682859    17A     -0.646547    18A     -0.617893
      19A     -0.588171    20A     -0.561153    21A     -0.547732
      22A     -0.515267    23A     -0.509418    24A     -0.424910
      25A     -0.424466    26A     -0.307419

  @DF-RHF Final Energy:  -322.76877983175899

   => Energetics <=

    Nuclear Repulsion Energy =            291.4616959998167545
    One-Electron Energy =               -1015.6336470554248308
    Two-Electron Energy =                 401.4031712238491423
    Total Energy =                       -322.7687798317589909
  Basis Set: (AUG-CC-PVTZ AUX)
    Blend: AUG-CC-PVTZ-RI
    Molecular point group: c1

    Geometry (in Angstrom), charge = 0, multiplicity = 1:

       Center              X                  Y                   Z               Mass
    ------------   -----------------  -----------------  -----------------  -----------------
         O           -0.829793793570    -1.077596971053    -0.000011881031    15.994914619570
         N           -0.239963793570     1.086457028947     0.000018118969    14.003074004430
         C            1.578487206430    -0.664860971053     0.000025118969    12.000000000000
         C            0.243758306430    -0.341186171053     0.000000818969    12.000000000000
         C            2.597389206430     0.470383028947    -0.000022881031    12.000000000000
         C           -1.980087793570    -0.331079971053    -0.000012881031    12.000000000000
         C           -1.626234793570     0.982457028947     0.000005118969    12.000000000000
         H            1.717606206430    -1.309093971053     0.876433118969     1.007825032230
         H            1.717607206430    -1.309174971053    -0.876321881031     1.007825032230
         H            2.472183206430     1.101908028947    -0.881451881031     1.007825032230
         H            3.612274206430     0.064185028947    -0.000020881031     1.007825032230
         H            2.472203206430     1.101968028947     0.881366118969     1.007825032230
         H           -2.910338793570    -0.877201971053    -0.000004881031     1.007825032230
         H           -2.261932793570     1.856267028947    -0.000006881031     1.007825032230

  Basis Set: AUG-CC-PVTZ
    Blend: AUG-CC-PVTZ
  Basis Set: (AUG-CC-PVTZ AUX)
    Blend: AUG-CC-PVTZ-JKFIT
	 Reference Energy          =    -322.7687798317589909 [Eh]
	 Singles Energy            =      -0.0000000000000000 [Eh]
	 Same-Spin Energy          =      -0.3415660661676689 [Eh]
	 Opposite-Spin Energy      =      -1.0697899892464928 [Eh]
	 Correlation Energy        =      -1.4113560554141618 [Eh]
	 Total Energy              =    -324.1801358871731509 [Eh]

	 ================> DF-SCS-MP2 Energies <==================
	-----------------------------------------------------------
	 SCS Same-Spin Scale       =       0.3333333333333333 [-]
	 SCS Opposite-Spin Scale   =       1.2000000000000000 [-]
	 SCS Same-Spin Energy      =      -0.1138553553892230 [Eh]
	 SCS Opposite-Spin Energy  =      -1.2837479870957913 [Eh]
	 SCS Correlation Energy    =      -1.3976033424850143 [Eh]
	 SCS Total Energy          =    -324.1663831742440038 [Eh]
	-----------------------------------------------------------

  Dipole Moment: [D]
     X:    -0.2427      Y:    -1.5973      Z:    -0.0000     Total:     1.6156

*** Psi4 exiting successfully. Buy a developer a beer!
