                               Psi4 1.3.2 release

  ==> Input File <==

--------------------------------------------------------------------------
#psi4
#
memory 32 gb

molecule  {
0 1
  O       -0.9034193    -1.0876110    -0.0000123
  N       -0.2975850     1.0586860     0.0000180
  C        1.5208660    -0.6926320     0.0000250
  C        0.1219560    -0.1795350     0.0000030
  C        2.5397680     0.4426120    -0.0000230
  C       -2.0377090    -0.3588510    -0.0000130
  C       -1.6838560     0.9546860     0.0000050
  H        1.6599850    -1.3368650     0.8764330
  H        1.6599860    -1.3369460    -0.8763220
  H        2.4145620     1.0741370    -0.8814520
  H        3.5546530     0.0364140    -0.0000210
  H        2.4145820     1.0741970     0.8813660
  H       -2.9679600    -0.9049730    -0.0000050
  H       -2.3195540     1.8284960    -0.0000070
units angstrom
no_reorient  #important for SAPT in psi4, default
symmetry c1  #important for SAPT in psi4, default
}

set PROPERTIES_ORIGIN ["COM"]
properties('MP2/aug-cc-pvtz', properties = ['dipole'])
--------------------------------------------------------------------------

    Molecular point group: c1
  Charge       = 0
  Multiplicity = 1
  Basis Set: AUG-CC-PVTZ
    Blend: AUG-CC-PVTZ
  Basis Set: (AUG-CC-PVTZ AUX)
    Blend: AUG-CC-PVTZ-JKFIT

    Orbital Energies [Eh]
    ---------------------

    Doubly Occupied:

       1A    -20.634371     2A    -15.560545     3A    -11.336708
       4A    -11.289410     5A    -11.257763     6A    -11.249570
       7A    -11.221325     8A     -1.484134     9A     -1.225851
      10A     -1.083334    11A     -0.998230    12A     -0.884248
      13A     -0.830082    14A     -0.781292    15A     -0.719516
      16A     -0.669877    17A     -0.632896    18A     -0.611112
      19A     -0.584276    20A     -0.568942    21A     -0.528385
      22A     -0.515069    23A     -0.505564    24A     -0.456778
      25A     -0.448325    26A     -0.330491

  @DF-RHF Final Energy:  -322.82749882637057

   => Energetics <=

    Nuclear Repulsion Energy =            292.7901866276718579
    One-Electron Energy =               -1018.4191836446542538
    Two-Electron Energy =                 402.8014981906117669
    Total Energy =                       -322.8274988263705723
  Basis Set: (AUG-CC-PVTZ AUX)
    Blend: AUG-CC-PVTZ-RI
    Molecular point group: c1

    Geometry (in Angstrom), charge = 0, multiplicity = 1:

       Center              X                  Y                   Z               Mass
    ------------   -----------------  -----------------  -----------------  -----------------
         O           -0.835224869569    -1.086187372173    -0.000012415971    15.994914619570
         N           -0.229390569569     1.060109627827     0.000017884029    14.003074004430
         C            1.589060430431    -0.691208372173     0.000024884029    12.000000000000
         C            0.190150430431    -0.178111372173     0.000002884029    12.000000000000
         C            2.607962430431     0.444035627827    -0.000023115971    12.000000000000
         C           -1.969514569569    -0.357427372173    -0.000013115971    12.000000000000
         C           -1.615661569569     0.956109627827     0.000004884029    12.000000000000
         H            1.728179430431    -1.335441372173     0.876432884029     1.007825032230
         H            1.728180430431    -1.335522372173    -0.876322115971     1.007825032230
         H            2.482756430431     1.075560627827    -0.881452115971     1.007825032230
         H            3.622847430431     0.037837627827    -0.000021115971     1.007825032230
         H            2.482776430431     1.075620627827     0.881365884029     1.007825032230
         H           -2.899765569569    -0.903549372173    -0.000005115971     1.007825032230
         H           -2.251359569569     1.829919627827    -0.000007115971     1.007825032230

  Basis Set: AUG-CC-PVTZ
    Blend: AUG-CC-PVTZ
  Basis Set: (AUG-CC-PVTZ AUX)
    Blend: AUG-CC-PVTZ-JKFIT
	 Reference Energy          =    -322.8274988263705723 [Eh]
	 Singles Energy            =      -0.0000000000000000 [Eh]
	 Same-Spin Energy          =      -0.3358181148512797 [Eh]
	 Opposite-Spin Energy      =      -1.0613140804572587 [Eh]
	 Correlation Energy        =      -1.3971321953085383 [Eh]
	 Total Energy              =    -324.2246310216791017 [Eh]

	 ================> DF-SCS-MP2 Energies <==================
	-----------------------------------------------------------
	 SCS Same-Spin Scale       =       0.3333333333333333 [-]
	 SCS Opposite-Spin Scale   =       1.2000000000000000 [-]
	 SCS Same-Spin Energy      =      -0.1119393716170932 [Eh]
	 SCS Opposite-Spin Energy  =      -1.2735768965487104 [Eh]
	 SCS Correlation Energy    =      -1.3855162681658038 [Eh]
	 SCS Total Energy          =    -324.2130150945363880 [Eh]
	-----------------------------------------------------------

  Dipole Moment: [D]
     X:    -0.3256      Y:    -1.2492      Z:    -0.0000     Total:     1.2909

*** Psi4 exiting successfully. Buy a developer a beer!
