                               Psi4 1.3.2 release

  ==> Input File <==

--------------------------------------------------------------------------
#psi4
#
memory 32 gb

molecule  {
0 1
  O       -0.8874150    -1.1053680    -0.0000120
  N       -0.2975850     1.0586860     0.0000180
  C        1.5208660    -0.6926320     0.0000250
  C       -0.0658122    -0.1106647     0.0000000
  C        2.5397680     0.4426120    -0.0000230
  C       -2.0377090    -0.3588510    -0.0000130
  C       -1.6838560     0.9546860     0.0000050
  H        1.6599850    -1.3368650     0.8764330
  H        1.6599860    -1.3369460    -0.8763220
  H        2.4145620     1.0741370    -0.8814520
  H        3.5546530     0.0364140    -0.0000210
  H        2.4145820     1.0741970     0.8813660
  H       -2.9679600    -0.9049730    -0.0000050
  H       -2.3195540     1.8284960    -0.0000070
units angstrom
no_reorient  #important for SAPT in psi4, default
symmetry c1  #important for SAPT in psi4, default
}

set PROPERTIES_ORIGIN ["COM"]
properties('MP2/aug-cc-pvtz', properties = ['dipole'])
--------------------------------------------------------------------------

    Molecular point group: c1
  Charge       = 0
  Multiplicity = 1
  Basis Set: AUG-CC-PVTZ
    Blend: AUG-CC-PVTZ
  Basis Set: (AUG-CC-PVTZ AUX)
    Blend: AUG-CC-PVTZ-JKFIT

    Orbital Energies [Eh]
    ---------------------

    Doubly Occupied:

       1A    -20.647214     2A    -15.555186     3A    -11.329555
       4A    -11.295993     5A    -11.271452     6A    -11.240164
       7A    -11.210594     8A     -1.527647     9A     -1.292078
      10A     -1.055333    11A     -0.997795    12A     -0.869772
      13A     -0.838076    14A     -0.798426    15A     -0.725929
      16A     -0.693026    17A     -0.625989    18A     -0.600396
      19A     -0.599506    20A     -0.570225    21A     -0.510189
      22A     -0.497310    23A     -0.490387    24A     -0.480294
      25A     -0.446536    26A     -0.349383

  @DF-RHF Final Energy:  -322.77992340242679

   => Energetics <=

    Nuclear Repulsion Energy =            294.5716528617226686
    One-Electron Energy =               -1021.6662399607916996
    Two-Electron Energy =                 404.3146636966422420
    Total Energy =                       -322.7799234024267889
  Basis Set: (AUG-CC-PVTZ AUX)
    Blend: AUG-CC-PVTZ-RI
    Molecular point group: c1

    Geometry (in Angstrom), charge = 0, multiplicity = 1:

       Center              X                  Y                   Z               Mass
    ------------   -----------------  -----------------  -----------------  -----------------
         O           -0.798641753380    -1.109533310391    -0.000011794480    15.994914619570
         N           -0.208811753380     1.054520689609     0.000018205520    14.003074004430
         C            1.609639246620    -0.696797310391     0.000025205520    12.000000000000
         C            0.022961046620    -0.114830010391     0.000000205520    12.000000000000
         C            2.628541246620     0.438446689609    -0.000022794480    12.000000000000
         C           -1.948935753380    -0.363016310391    -0.000012794480    12.000000000000
         C           -1.595082753380     0.950520689609     0.000005205520    12.000000000000
         H            1.748758246620    -1.341030310391     0.876433205520     1.007825032230
         H            1.748759246620    -1.341111310391    -0.876321794480     1.007825032230
         H            2.503335246620     1.069971689609    -0.881451794480     1.007825032230
         H            3.643426246620     0.032248689609    -0.000020794480     1.007825032230
         H            2.503355246620     1.070031689609     0.881366205520     1.007825032230
         H           -2.879186753380    -0.909138310391    -0.000004794480     1.007825032230
         H           -2.230780753380     1.824330689609    -0.000006794480     1.007825032230

  Basis Set: AUG-CC-PVTZ
    Blend: AUG-CC-PVTZ
  Basis Set: (AUG-CC-PVTZ AUX)
    Blend: AUG-CC-PVTZ-JKFIT
	 Reference Energy          =    -322.7799234024267889 [Eh]
	 Singles Energy            =      -0.0000000000000000 [Eh]
	 Same-Spin Energy          =      -0.3330487530472739 [Eh]
	 Opposite-Spin Energy      =      -1.0583000113285050 [Eh]
	 Correlation Energy        =      -1.3913487643757789 [Eh]
	 Total Energy              =    -324.1712721668025665 [Eh]

	 ================> DF-SCS-MP2 Energies <==================
	-----------------------------------------------------------
	 SCS Same-Spin Scale       =       0.3333333333333333 [-]
	 SCS Opposite-Spin Scale   =       1.2000000000000000 [-]
	 SCS Same-Spin Energy      =      -0.1110162510157580 [Eh]
	 SCS Opposite-Spin Energy  =      -1.2699600135942060 [Eh]
	 SCS Correlation Energy    =      -1.3809762646099639 [Eh]
	 SCS Total Energy          =    -324.1608996670367446 [Eh]
	-----------------------------------------------------------

  Dipole Moment: [D]
     X:    -1.0453      Y:    -0.9541      Z:    -0.0000     Total:     1.4152

*** Psi4 exiting successfully. Buy a developer a beer!
