                               Psi4 1.3.2 release

  ==> Input File <==

--------------------------------------------------------------------------
#psi4
#
memory 32 gb

molecule  {
0 1
  O       -0.8874150    -1.1053680    -0.0000120
  N       -0.2975850     1.0586860     0.0000180
  C        1.5208660    -0.6926320     0.0000250
  C        0.0895718    -0.2783679     0.0000072
  C        2.5397680     0.4426120    -0.0000230
  C       -2.0377090    -0.3588510    -0.0000130
  C       -1.6838560     0.9546860     0.0000050
  H        1.6599850    -1.3368650     0.8764330
  H        1.6599860    -1.3369460    -0.8763220
  H        2.4145620     1.0741370    -0.8814520
  H        3.5546530     0.0364140    -0.0000210
  H        2.4145820     1.0741970     0.8813660
  H       -2.9679600    -0.9049730    -0.0000050
  H       -2.3195540     1.8284960    -0.0000070
units angstrom
no_reorient  #important for SAPT in psi4, default
symmetry c1  #important for SAPT in psi4, default
}

set PROPERTIES_ORIGIN ["COM"]
properties('MP2/aug-cc-pvtz', properties = ['dipole'])
--------------------------------------------------------------------------

    Molecular point group: c1
  Charge       = 0
  Multiplicity = 1
  Basis Set: AUG-CC-PVTZ
    Blend: AUG-CC-PVTZ
  Basis Set: (AUG-CC-PVTZ AUX)
    Blend: AUG-CC-PVTZ-JKFIT

    Orbital Energies [Eh]
    ---------------------

    Doubly Occupied:

       1A    -20.652161     2A    -15.556463     3A    -11.344219
       4A    -11.285294     5A    -11.262372     6A    -11.250027
       7A    -11.221786     8A     -1.516663     9A     -1.201754
      10A     -1.085982    11A     -1.000358    12A     -0.885513
      13A     -0.836554    14A     -0.787766    15A     -0.719756
      16A     -0.684451    17A     -0.634199    18A     -0.613520
      19A     -0.588329    20A     -0.564806    21A     -0.536674
      22A     -0.506173    23A     -0.505395    24A     -0.449484
      25A     -0.439046    26A     -0.324722

  @DF-RHF Final Energy:  -322.81418321206337

   => Energetics <=

    Nuclear Repulsion Energy =            292.4576911007445688
    One-Electron Energy =               -1017.6368156676194303
    Two-Electron Energy =                 402.3649413548114921
    Total Energy =                       -322.8141832120633694
  Basis Set: (AUG-CC-PVTZ AUX)
    Blend: AUG-CC-PVTZ-RI
    Molecular point group: c1

    Geometry (in Angstrom), charge = 0, multiplicity = 1:

       Center              X                  Y                   Z               Mass
    ------------   -----------------  -----------------  -----------------  -----------------
         O           -0.817854065591    -1.088797801992    -0.000012684718    15.994914619570
         N           -0.228024065591     1.075256198008     0.000017315282    14.003074004430
         C            1.590426934409    -0.676061801992     0.000024315282    12.000000000000
         C            0.159132734409    -0.261797701992     0.000006515282    12.000000000000
         C            2.609328934409     0.459182198008    -0.000023684718    12.000000000000
         C           -1.968148065591    -0.342280801992    -0.000013684718    12.000000000000
         C           -1.614295065591     0.971256198008     0.000004315282    12.000000000000
         H            1.729545934409    -1.320294801992     0.876432315282     1.007825032230
         H            1.729546934409    -1.320375801992    -0.876322684718     1.007825032230
         H            2.484122934409     1.090707198008    -0.881452684718     1.007825032230
         H            3.624213934409     0.052984198008    -0.000021684718     1.007825032230
         H            2.484142934409     1.090767198008     0.881365315282     1.007825032230
         H           -2.898399065591    -0.888402801992    -0.000005684718     1.007825032230
         H           -2.249993065591     1.845066198008    -0.000007684718     1.007825032230

  Basis Set: AUG-CC-PVTZ
    Blend: AUG-CC-PVTZ
  Basis Set: (AUG-CC-PVTZ AUX)
    Blend: AUG-CC-PVTZ-JKFIT
	 Reference Energy          =    -322.8141832120633694 [Eh]
	 Singles Energy            =      -0.0000000000000000 [Eh]
	 Same-Spin Energy          =      -0.3367418565218694 [Eh]
	 Opposite-Spin Energy      =      -1.0623154035549858 [Eh]
	 Correlation Energy        =      -1.3990572600768552 [Eh]
	 Total Energy              =    -324.2132404721402281 [Eh]

	 ================> DF-SCS-MP2 Energies <==================
	-----------------------------------------------------------
	 SCS Same-Spin Scale       =       0.3333333333333333 [-]
	 SCS Opposite-Spin Scale   =       1.2000000000000000 [-]
	 SCS Same-Spin Energy      =      -0.1122472855072898 [Eh]
	 SCS Opposite-Spin Energy  =      -1.2747784842659828 [Eh]
	 SCS Correlation Energy    =      -1.3870257697732726 [Eh]
	 SCS Total Energy          =    -324.2012089818366576 [Eh]
	-----------------------------------------------------------

  Dipole Moment: [D]
     X:    -0.4937      Y:    -1.4369      Z:    -0.0000     Total:     1.5193

*** Psi4 exiting successfully. Buy a developer a beer!
