                               Psi4 1.3.2 release

  ==> Input File <==

--------------------------------------------------------------------------
#psi4
#
memory 32 gb

molecule  {
0 1
  O       -0.8874150    -1.1053680    -0.0000120
  N       -0.2975850     1.0586860     0.0000180
  C        1.5208660    -0.6926320     0.0000250
  C        0.1840801    -0.2522004     0.0000028
  C        2.5397680     0.4426120    -0.0000230
  C       -2.0377090    -0.3588510    -0.0000130
  C       -1.6838560     0.9546860     0.0000050
  H        1.6599850    -1.3368650     0.8764330
  H        1.6599860    -1.3369460    -0.8763220
  H        2.4145620     1.0741370    -0.8814520
  H        3.5546530     0.0364140    -0.0000210
  H        2.4145820     1.0741970     0.8813660
  H       -2.9679600    -0.9049730    -0.0000050
  H       -2.3195540     1.8284960    -0.0000070
units angstrom
no_reorient  #important for SAPT in psi4, default
symmetry c1  #important for SAPT in psi4, default
}

set PROPERTIES_ORIGIN ["COM"]
properties('MP2/aug-cc-pvtz', properties = ['dipole'])
--------------------------------------------------------------------------

    Molecular point group: c1
  Charge       = 0
  Multiplicity = 1
  Basis Set: AUG-CC-PVTZ
    Blend: AUG-CC-PVTZ
  Basis Set: (AUG-CC-PVTZ AUX)
    Blend: AUG-CC-PVTZ-JKFIT

    Orbital Energies [Eh]
    ---------------------

    Doubly Occupied:

       1A    -20.636738     2A    -15.561805     3A    -11.346359
       4A    -11.287762     5A    -11.258509     6A    -11.249011
       7A    -11.225580     8A     -1.471406     9A     -1.195378
      10A     -1.101870    11A     -0.995125    12A     -0.897644
      13A     -0.819806    14A     -0.777299    15A     -0.715596
      16A     -0.669230    17A     -0.639749    18A     -0.611190
      19A     -0.585264    20A     -0.564505    21A     -0.539257
      22A     -0.519425    23A     -0.511280    24A     -0.442244
      25A     -0.434611    26A     -0.320609

  @DF-RHF Final Energy:  -322.80596000484599

   => Energetics <=

    Nuclear Repulsion Energy =            291.6522897307946209
    One-Electron Energy =               -1016.1619869064682007
    Two-Electron Energy =                 401.7037371708276510
    Total Energy =                       -322.8059600048459856
  Basis Set: (AUG-CC-PVTZ AUX)
    Blend: AUG-CC-PVTZ-RI
    Molecular point group: c1

    Geometry (in Angstrom), charge = 0, multiplicity = 1:

       Center              X                  Y                   Z               Mass
    ------------   -----------------  -----------------  -----------------  -----------------
         O           -0.829539457691    -1.092033258537    -0.000012140684    15.994914619570
         N           -0.239709457691     1.072020741463     0.000017859316    14.003074004430
         C            1.578741542309    -0.679297258537     0.000024859316    12.000000000000
         C            0.241955642309    -0.238865658537     0.000002659316    12.000000000000
         C            2.597643542309     0.455946741463    -0.000023140684    12.000000000000
         C           -1.979833457691    -0.345516258537    -0.000013140684    12.000000000000
         C           -1.625980457691     0.968020741463     0.000004859316    12.000000000000
         H            1.717860542309    -1.323530258537     0.876432859316     1.007825032230
         H            1.717861542309    -1.323611258537    -0.876322140684     1.007825032230
         H            2.472437542309     1.087471741463    -0.881452140684     1.007825032230
         H            3.612528542309     0.049748741463    -0.000021140684     1.007825032230
         H            2.472457542309     1.087531741463     0.881365859316     1.007825032230
         H           -2.910084457691    -0.891638258537    -0.000005140684     1.007825032230
         H           -2.261678457691     1.841830741463    -0.000007140684     1.007825032230

  Basis Set: AUG-CC-PVTZ
    Blend: AUG-CC-PVTZ
  Basis Set: (AUG-CC-PVTZ AUX)
    Blend: AUG-CC-PVTZ-JKFIT
	 Reference Energy          =    -322.8059600048459856 [Eh]
	 Singles Energy            =      -0.0000000000000000 [Eh]
	 Same-Spin Energy          =      -0.3389334420456974 [Eh]
	 Opposite-Spin Energy      =      -1.0664492502843177 [Eh]
	 Correlation Energy        =      -1.4053826923300150 [Eh]
	 Total Energy              =    -324.2113426971760077 [Eh]

	 ================> DF-SCS-MP2 Energies <==================
	-----------------------------------------------------------
	 SCS Same-Spin Scale       =       0.3333333333333333 [-]
	 SCS Opposite-Spin Scale   =       1.2000000000000000 [-]
	 SCS Same-Spin Energy      =      -0.1129778140152325 [Eh]
	 SCS Opposite-Spin Energy  =      -1.2797391003411811 [Eh]
	 SCS Correlation Energy    =      -1.3927169143564135 [Eh]
	 SCS Total Energy          =    -324.1986769192023985 [Eh]
	-----------------------------------------------------------

  Dipole Moment: [D]
     X:    -0.2163      Y:    -1.3469      Z:    -0.0000     Total:     1.3641

*** Psi4 exiting successfully. Buy a developer a beer!
