                               Psi4 1.3.2 release

  ==> Input File <==

--------------------------------------------------------------------------
#psi4
#
memory 32 gb

molecule  {
0 1
  O       -0.8874150    -1.1053680    -0.0000120
  N       -0.2975850     1.0586860     0.0000180
  C        1.5208660    -0.6926320     0.0000250
  C        0.1219560    -0.1795350     0.0000030
  C        2.5397680     0.4426120    -0.0000230
  C       -2.0377090    -0.3588510    -0.0000130
  C       -1.6318327     1.1478015     0.0000076
  H        1.6599850    -1.3368650     0.8764330
  H        1.6599860    -1.3369460    -0.8763220
  H        2.4145620     1.0741370    -0.8814520
  H        3.5546530     0.0364140    -0.0000210
  H        2.4145820     1.0741970     0.8813660
  H       -2.9679600    -0.9049730    -0.0000050
  H       -2.3195540     1.8284960    -0.0000070
units angstrom
no_reorient  #important for SAPT in psi4, default
symmetry c1  #important for SAPT in psi4, default
}

set PROPERTIES_ORIGIN ["COM"]
properties('MP2/aug-cc-pvtz', properties = ['dipole'])
--------------------------------------------------------------------------

    Molecular point group: c1
  Charge       = 0
  Multiplicity = 1
  Basis Set: AUG-CC-PVTZ
    Blend: AUG-CC-PVTZ
  Basis Set: (AUG-CC-PVTZ AUX)
    Blend: AUG-CC-PVTZ-JKFIT

    Orbital Energies [Eh]
    ---------------------

    Doubly Occupied:

       1A    -20.649629     2A    -15.564380     3A    -11.334574
       4A    -11.312433     5A    -11.277215     6A    -11.248341
       7A    -11.220218     8A     -1.477796     9A     -1.237480
      10A     -1.077810    11A     -0.980286    12A     -0.880787
      13A     -0.848574    14A     -0.775146    15A     -0.726011
      16A     -0.665843    17A     -0.661644    18A     -0.607250
      19A     -0.606913    20A     -0.555194    21A     -0.525519
      22A     -0.516416    23A     -0.503832    24A     -0.460280
      25A     -0.435675    26A     -0.297695

  @DF-RHF Final Energy:  -322.76919567961050

   => Energetics <=

    Nuclear Repulsion Energy =            290.3004318248677009
    One-Electron Energy =               -1013.2453697734589468
    Two-Electron Energy =                 400.1757422689807413
    Total Energy =                       -322.7691956796105046
  Basis Set: (AUG-CC-PVTZ AUX)
    Blend: AUG-CC-PVTZ-RI
    Molecular point group: c1

    Geometry (in Angstrom), charge = 0, multiplicity = 1:

       Center              X                  Y                   Z               Mass
    ------------   -----------------  -----------------  -----------------  -----------------
         O           -0.828290553536    -1.124895494227    -0.000012486887    15.994914619570
         N           -0.238460553536     1.039158505773     0.000017513113    14.003074004430
         C            1.579990446464    -0.712159494227     0.000024513113    12.000000000000
         C            0.181080446464    -0.199062494227     0.000002513113    12.000000000000
         C            2.598892446464     0.423084505773    -0.000023486887    12.000000000000
         C           -1.978584553536    -0.378378494227    -0.000013486887    12.000000000000
         C           -1.572708253536     1.128274005773     0.000007113113    12.000000000000
         H            1.719109446464    -1.356392494227     0.876432513113     1.007825032230
         H            1.719110446464    -1.356473494227    -0.876322486887     1.007825032230
         H            2.473686446464     1.054609505773    -0.881452486887     1.007825032230
         H            3.613777446464     0.016886505773    -0.000021486887     1.007825032230
         H            2.473706446464     1.054669505773     0.881365513113     1.007825032230
         H           -2.908835553536    -0.924500494227    -0.000005486887     1.007825032230
         H           -2.260429553536     1.808968505773    -0.000007486887     1.007825032230

  Basis Set: AUG-CC-PVTZ
    Blend: AUG-CC-PVTZ
  Basis Set: (AUG-CC-PVTZ AUX)
    Blend: AUG-CC-PVTZ-JKFIT
	 Reference Energy          =    -322.7691956796105046 [Eh]
	 Singles Energy            =      -0.0000000000000000 [Eh]
	 Same-Spin Energy          =      -0.3411534119728264 [Eh]
	 Opposite-Spin Energy      =      -1.0710130043264701 [Eh]
	 Correlation Energy        =      -1.4121664162992964 [Eh]
	 Total Energy              =    -324.1813620959097761 [Eh]

	 ================> DF-SCS-MP2 Energies <==================
	-----------------------------------------------------------
	 SCS Same-Spin Scale       =       0.3333333333333333 [-]
	 SCS Opposite-Spin Scale   =       1.2000000000000000 [-]
	 SCS Same-Spin Energy      =      -0.1137178039909421 [Eh]
	 SCS Opposite-Spin Energy  =      -1.2852156051917640 [Eh]
	 SCS Correlation Energy    =      -1.3989334091827061 [Eh]
	 SCS Total Energy          =    -324.1681290887931937 [Eh]
	-----------------------------------------------------------

  Dipole Moment: [D]
     X:    -0.3512      Y:    -1.0191      Z:    -0.0000     Total:     1.0779

*** Psi4 exiting successfully. Buy a developer a beer!
