                               Psi4 1.3.2 release

  ==> Input File <==

--------------------------------------------------------------------------
#psi4
#
memory 32 gb

molecule  {
0 1
  O       -0.8874150    -1.1053680    -0.0000120
  N       -0.2975850     1.0586860     0.0000180
  C        1.5208660    -0.6926320     0.0000250
  C        0.1311238    -0.1551988     0.0000020
  C        2.5397680     0.4426120    -0.0000230
  C       -2.0377090    -0.3588510    -0.0000130
  C       -1.6838560     0.9546860     0.0000050
  H        1.6599850    -1.3368650     0.8764330
  H        1.6599860    -1.3369460    -0.8763220
  H        2.4145620     1.0741370    -0.8814520
  H        3.5546530     0.0364140    -0.0000210
  H        2.4145820     1.0741970     0.8813660
  H       -2.9679600    -0.9049730    -0.0000050
  H       -2.3195540     1.8284960    -0.0000070
units angstrom
no_reorient  #important for SAPT in psi4, default
symmetry c1  #important for SAPT in psi4, default
}

set PROPERTIES_ORIGIN ["COM"]
properties('MP2/aug-cc-pvtz', properties = ['dipole'])
--------------------------------------------------------------------------

    Molecular point group: c1
  Charge       = 0
  Multiplicity = 1
  Basis Set: AUG-CC-PVTZ
    Blend: AUG-CC-PVTZ
  Basis Set: (AUG-CC-PVTZ AUX)
    Blend: AUG-CC-PVTZ-JKFIT

    Orbital Energies [Eh]
    ---------------------

    Doubly Occupied:

       1A    -20.629470     2A    -15.561337     3A    -11.336283
       4A    -11.291908     5A    -11.260174     6A    -11.248810
       7A    -11.220797     8A     -1.467668     9A     -1.232611
      10A     -1.082200    11A     -0.996901    12A     -0.883863
      13A     -0.826758    14A     -0.777469    15A     -0.716392
      16A     -0.663947    17A     -0.629652    18A     -0.607939
      19A     -0.589231    20A     -0.569015    21A     -0.524568
      22A     -0.516182    23A     -0.505035    24A     -0.457597
      25A     -0.452660    26A     -0.333262

  @DF-RHF Final Energy:  -322.82661092694553

   => Energetics <=

    Nuclear Repulsion Energy =            292.3269165450839182
    One-Electron Energy =               -1017.5435976988744642
    Two-Electron Energy =                 402.3900702268450118
    Total Energy =                       -322.8266109269455342
  Basis Set: (AUG-CC-PVTZ AUX)
    Blend: AUG-CC-PVTZ-RI
    Molecular point group: c1

    Geometry (in Angstrom), charge = 0, multiplicity = 1:

       Center              X                  Y                   Z               Mass
    ------------   -----------------  -----------------  -----------------  -----------------
         O           -0.822991724532    -1.104026932429    -0.000012041769    15.994914619570
         N           -0.233161724532     1.060027067571     0.000017958231    14.003074004430
         C            1.585289275468    -0.691290932429     0.000024958231    12.000000000000
         C            0.195547075468    -0.153857732429     0.000001958231    12.000000000000
         C            2.604191275468     0.443953067571    -0.000023041769    12.000000000000
         C           -1.973285724532    -0.357509932429    -0.000013041769    12.000000000000
         C           -1.619432724532     0.956027067571     0.000004958231    12.000000000000
         H            1.724408275468    -1.335523932429     0.876432958231     1.007825032230
         H            1.724409275468    -1.335604932429    -0.876322041769     1.007825032230
         H            2.478985275468     1.075478067571    -0.881452041769     1.007825032230
         H            3.619076275468     0.037755067571    -0.000021041769     1.007825032230
         H            2.479005275468     1.075538067571     0.881365958231     1.007825032230
         H           -2.903536724532    -0.903631932429    -0.000005041769     1.007825032230
         H           -2.255130724532     1.829837067571    -0.000007041769     1.007825032230

  Basis Set: AUG-CC-PVTZ
    Blend: AUG-CC-PVTZ
  Basis Set: (AUG-CC-PVTZ AUX)
    Blend: AUG-CC-PVTZ-JKFIT
	 Reference Energy          =    -322.8266109269455342 [Eh]
	 Singles Energy            =      -0.0000000000000000 [Eh]
	 Same-Spin Energy          =      -0.3355881888308433 [Eh]
	 Opposite-Spin Energy      =      -1.0618975508724606 [Eh]
	 Correlation Energy        =      -1.3974857397033040 [Eh]
	 Total Energy              =    -324.2240966666488475 [Eh]

	 ================> DF-SCS-MP2 Energies <==================
	-----------------------------------------------------------
	 SCS Same-Spin Scale       =       0.3333333333333333 [-]
	 SCS Opposite-Spin Scale   =       1.2000000000000000 [-]
	 SCS Same-Spin Energy      =      -0.1118627296102811 [Eh]
	 SCS Opposite-Spin Energy  =      -1.2742770610469527 [Eh]
	 SCS Correlation Energy    =      -1.3861397906572339 [Eh]
	 SCS Total Energy          =    -324.2127507176027734 [Eh]
	-----------------------------------------------------------

  Dipole Moment: [D]
     X:    -0.3197      Y:    -1.1157      Z:    -0.0000     Total:     1.1605

*** Psi4 exiting successfully. Buy a developer a beer!
