                               Psi4 1.3.2 release

  ==> Input File <==

--------------------------------------------------------------------------
#psi4
#
memory 32 gb

molecule  {
0 1
  O       -0.8874150    -1.1053680    -0.0000120
  N       -0.2975850     1.0586860     0.0000180
  C        1.5208660    -0.6926320     0.0000250
  C        0.1219560    -0.1795350     0.0000030
  C        2.5397680     0.4426120    -0.0000230
  C       -2.0377090    -0.3588510    -0.0000130
  C       -1.7098676     0.8581283     0.0000037
  H        1.6599850    -1.3368650     0.8764330
  H        1.6599860    -1.3369460    -0.8763220
  H        2.4145620     1.0741370    -0.8814520
  H        3.5546530     0.0364140    -0.0000210
  H        2.4145820     1.0741970     0.8813660
  H       -2.9679600    -0.9049730    -0.0000050
  H       -2.3195540     1.8284960    -0.0000070
units angstrom
no_reorient  #important for SAPT in psi4, default
symmetry c1  #important for SAPT in psi4, default
}

set PROPERTIES_ORIGIN ["COM"]
properties('MP2/aug-cc-pvtz', properties = ['dipole'])
--------------------------------------------------------------------------

    Molecular point group: c1
  Charge       = 0
  Multiplicity = 1
  Basis Set: AUG-CC-PVTZ
    Blend: AUG-CC-PVTZ
  Basis Set: (AUG-CC-PVTZ AUX)
    Blend: AUG-CC-PVTZ-JKFIT

    Orbital Energies [Eh]
    ---------------------

    Doubly Occupied:

       1A    -20.627124     2A    -15.560738     3A    -11.338713
       4A    -11.277063     5A    -11.251864     6A    -11.248746
       7A    -11.221009     8A     -1.477283     9A     -1.218891
      10A     -1.088859    11A     -1.012244    12A     -0.889072
      13A     -0.817590    14A     -0.778640    15A     -0.716076
      16A     -0.668761    17A     -0.625770    18A     -0.610659
      19A     -0.578756    20A     -0.559136    21A     -0.526576
      22A     -0.511365    23A     -0.505532    24A     -0.462604
      25A     -0.445246    26A     -0.353738

  @DF-RHF Final Energy:  -322.81604850413055

   => Energetics <=

    Nuclear Repulsion Energy =            293.5014568048483738
    One-Electron Energy =               -1019.8909001321649157
    Two-Electron Energy =                 403.5733948231859358
    Total Energy =                       -322.8160485041305492
  Basis Set: (AUG-CC-PVTZ AUX)
    Blend: AUG-CC-PVTZ-RI
    Molecular point group: c1

    Geometry (in Angstrom), charge = 0, multiplicity = 1:

       Center              X                  Y                   Z               Mass
    ------------   -----------------  -----------------  -----------------  -----------------
         O           -0.818641999875    -1.089079117010    -0.000012004675    15.994914619570
         N           -0.228811999875     1.074974882990     0.000017995325    14.003074004430
         C            1.589639000125    -0.676343117010     0.000024995325    12.000000000000
         C            0.190729000125    -0.163246117010     0.000002995325    12.000000000000
         C            2.608541000125     0.458900882990    -0.000023004675    12.000000000000
         C           -1.968935999875    -0.342562117010    -0.000013004675    12.000000000000
         C           -1.641094599875     0.874417182990     0.000003695325    12.000000000000
         H            1.728758000125    -1.320576117010     0.876432995325     1.007825032230
         H            1.728759000125    -1.320657117010    -0.876322004675     1.007825032230
         H            2.483335000125     1.090425882990    -0.881452004675     1.007825032230
         H            3.623426000125     0.052702882990    -0.000021004675     1.007825032230
         H            2.483355000125     1.090485882990     0.881365995325     1.007825032230
         H           -2.899186999875    -0.888684117010    -0.000005004675     1.007825032230
         H           -2.250780999875     1.844784882990    -0.000007004675     1.007825032230

  Basis Set: AUG-CC-PVTZ
    Blend: AUG-CC-PVTZ
  Basis Set: (AUG-CC-PVTZ AUX)
    Blend: AUG-CC-PVTZ-JKFIT
	 Reference Energy          =    -322.8160485041305492 [Eh]
	 Singles Energy            =      -0.0000000000000000 [Eh]
	 Same-Spin Energy          =      -0.3341255321129922 [Eh]
	 Opposite-Spin Energy      =      -1.0594699465177770 [Eh]
	 Correlation Energy        =      -1.3935954786307692 [Eh]
	 Total Energy              =    -324.2096439827612926 [Eh]

	 ================> DF-SCS-MP2 Energies <==================
	-----------------------------------------------------------
	 SCS Same-Spin Scale       =       0.3333333333333333 [-]
	 SCS Opposite-Spin Scale   =       1.2000000000000000 [-]
	 SCS Same-Spin Energy      =      -0.1113751773709974 [Eh]
	 SCS Opposite-Spin Energy  =      -1.2713639358213324 [Eh]
	 SCS Correlation Energy    =      -1.3827391131923299 [Eh]
	 SCS Total Energy          =    -324.1987876173228642 [Eh]
	-----------------------------------------------------------

  Dipole Moment: [D]
     X:    -0.3382      Y:    -1.2267      Z:    -0.0000     Total:     1.2725

*** Psi4 exiting successfully. Buy a developer a beer!
