                               Psi4 1.4a3.dev225

  ==> Input File <==

--------------------------------------------------------------------------
#psi4
#
memory 32 gb

molecule  {
0 1
  O       -0.8874150    -1.1053680    -0.0000120
  N       -0.2975850     1.0586860     0.0000180
  C        1.5208660    -0.6926320     0.0000250
  C        0.1219560    -0.1795350     0.0000030
  C        2.5397680     0.4426120    -0.0000230
  C       -2.0377090    -0.3588510    -0.0000130
  C       -1.6838560     0.9546860     0.0000050
  H        1.6599850    -1.3368650     0.8764330
  H        1.6599860    -1.3369460    -0.8763220
  H        2.4145620     1.0741370    -0.8814520
  H        3.5546530     0.0364140    -0.0000210
  H        2.4145820     1.0741970     0.8813660
  H       -3.0110787    -0.9302867    -0.0000046
  H       -2.3195540     1.8284960    -0.0000070
units angstrom
no_reorient  #important for SAPT in psi4, default
symmetry c1  #important for SAPT in psi4, default
}

set PROPERTIES_ORIGIN ["COM"]
properties('MP2/aug-cc-pvtz', properties = ['dipole'])
--------------------------------------------------------------------------

    Molecular point group: c1
  Charge       = 0
  Multiplicity = 1
  Basis Set: AUG-CC-PVTZ
    Blend: AUG-CC-PVTZ
  Basis Set: (AUG-CC-PVTZ AUX)
    Blend: AUG-CC-PVTZ-JKFIT

    Orbital Energies [Eh]
    ---------------------

    Doubly Occupied:

       1A    -20.634697     2A    -15.560949     3A    -11.337938
       4A    -11.296101     5A    -11.260812     6A    -11.248847
       7A    -11.220906     8A     -1.476886     9A     -1.226497
      10A     -1.082470    11A     -0.995614    12A     -0.884086
      13A     -0.824156    14A     -0.780510    15A     -0.713395
      16A     -0.667410    17A     -0.623764    18A     -0.609325
      19A     -0.585045    20A     -0.570660    21A     -0.526357
      22A     -0.514736    23A     -0.505024    24A     -0.456995
      25A     -0.449631    26A     -0.332076

  @DF-RHF Final Energy:  -322.82447130461355

   => Energetics <=

    Nuclear Repulsion Energy =            292.0982123585035879
    One-Electron Energy =               -1017.0755956795064776
    Two-Electron Energy =                 402.1529120163893367
    Total Energy =                       -322.8244713046135530
  Basis Set: (AUG-CC-PVTZ AUX)
    Blend: AUG-CC-PVTZ-RI
    Molecular point group: c1

    Geometry (in Angstrom), charge = 0, multiplicity = 1:

       Center              X                  Y                   Z               Mass
    ------------   -----------------  -----------------  -----------------  -----------------
         O           -0.821410422783    -1.100755040235    -0.000012169566    15.994914619570
         N           -0.231580422783     1.063298959765     0.000017830434    14.003074004430
         C            1.586870577217    -0.688019040235     0.000024830434    12.000000000000
         C            0.187960577217    -0.174922040235     0.000002830434    12.000000000000
         C            2.605772577217     0.447224959765    -0.000023169566    12.000000000000
         C           -1.971704422783    -0.354238040235    -0.000013169566    12.000000000000
         C           -1.617851422783     0.959298959765     0.000004830434    12.000000000000
         H            1.725989577217    -1.332252040235     0.876432830434     1.007825032230
         H            1.725990577217    -1.332333040235    -0.876322169566     1.007825032230
         H            2.480566577217     1.078749959765    -0.881452169566     1.007825032230
         H            3.620657577217     0.041026959765    -0.000021169566     1.007825032230
         H            2.480586577217     1.078809959765     0.881365830434     1.007825032230
         H           -2.945074122783    -0.925673740235    -0.000004769566     1.007825032230
         H           -2.253549422783     1.833108959765    -0.000007169566     1.007825032230

  Basis Set: AUG-CC-PVTZ
    Blend: AUG-CC-PVTZ
  Basis Set: (AUG-CC-PVTZ AUX)
    Blend: AUG-CC-PVTZ-JKFIT
	 Reference Energy          =    -322.8244713046135530 [Eh]
	 Singles Energy            =      -0.0000000000000000 [Eh]
	 Same-Spin Energy          =      -0.3358896487326226 [Eh]
	 Opposite-Spin Energy      =      -1.0623156958672504 [Eh]
	 Correlation Energy        =      -1.3982053445998730 [Eh]
	 Total Energy              =    -324.2226766492134402 [Eh]

	 ================> DF-SCS-MP2 Energies <==================
	-----------------------------------------------------------
	 SCS Same-Spin Scale       =       0.3333333333333333 [-]
	 SCS Opposite-Spin Scale   =       1.2000000000000000 [-]
	 SCS Same-Spin Energy      =      -0.1119632162442075 [Eh]
	 SCS Opposite-Spin Energy  =      -1.2747788350407003 [Eh]
	 SCS Correlation Energy    =      -1.3867420512849078 [Eh]
	 SCS Total Energy          =    -324.2112133558984510 [Eh]
	-----------------------------------------------------------

  Dipole Moment: [D]
     X:    -0.3699      Y:    -1.1901      Z:    -0.0000     Total:     1.2462

*** Psi4 exiting successfully. Buy a developer a beer!
