                               Psi4 1.4a3.dev225

  ==> Input File <==

--------------------------------------------------------------------------
#psi4
#
memory 32 gb

molecule  {
0 1
  O       -0.8874150    -1.1053680    -0.0000120
  N       -0.2975850     1.0586860     0.0000180
  C        1.5208660    -0.6926320     0.0000250
  C        0.1059107    -0.1321794     0.0000036
  C        2.5397680     0.4426120    -0.0000230
  C       -2.0377090    -0.3588510    -0.0000130
  C       -1.6838560     0.9546860     0.0000050
  H        1.6599850    -1.3368650     0.8764330
  H        1.6599860    -1.3369460    -0.8763220
  H        2.4145620     1.0741370    -0.8814520
  H        3.5546530     0.0364140    -0.0000210
  H        2.4145820     1.0741970     0.8813660
  H       -2.9679600    -0.9049730    -0.0000050
  H       -2.3195540     1.8284960    -0.0000070
units angstrom
no_reorient  #important for SAPT in psi4, default
symmetry c1  #important for SAPT in psi4, default
}

set PROPERTIES_ORIGIN ["COM"]
properties('MP2/aug-cc-pvtz', properties = ['dipole'])
--------------------------------------------------------------------------

    Molecular point group: c1
  Charge       = 0
  Multiplicity = 1
  Basis Set: AUG-CC-PVTZ
    Blend: AUG-CC-PVTZ
  Basis Set: (AUG-CC-PVTZ AUX)
    Blend: AUG-CC-PVTZ-JKFIT

    Orbital Energies [Eh]
    ---------------------

    Doubly Occupied:

       1A    -20.629090     2A    -15.560062     3A    -11.333097
       4A    -11.292873     5A    -11.261213     6A    -11.248475
       7A    -11.219163     8A     -1.470874     9A     -1.245409
      10A     -1.076000    11A     -0.997640    12A     -0.879169
      13A     -0.829781    14A     -0.778519    15A     -0.717129
      16A     -0.664534    17A     -0.627084    18A     -0.607241
      19A     -0.589642    20A     -0.570888    21A     -0.521557
      22A     -0.511818    23A     -0.502821    24A     -0.461197
      25A     -0.459156    26A     -0.336637

  @DF-RHF Final Energy:  -322.82607048509715

   => Energetics <=

    Nuclear Repulsion Energy =            292.6369186288536639
    One-Electron Energy =               -1018.1438433612393055
    Two-Electron Energy =                 402.6808542472884938
    Total Energy =                       -322.8260704850971479
  Basis Set: (AUG-CC-PVTZ AUX)
    Blend: AUG-CC-PVTZ-RI
    Molecular point group: c1

    Geometry (in Angstrom), charge = 0, multiplicity = 1:

       Center              X                  Y                   Z               Mass
    ------------   -----------------  -----------------  -----------------  -----------------
         O           -0.819874273900    -1.106873145036    -0.000012239599    15.994914619570
         N           -0.230044273900     1.057180854964     0.000017760401    14.003074004430
         C            1.588406726100    -0.694137145036     0.000024760401    12.000000000000
         C            0.173451426100    -0.133684545036     0.000003360401    12.000000000000
         C            2.607308726100     0.441106854964    -0.000023239599    12.000000000000
         C           -1.970168273900    -0.360356145036    -0.000013239599    12.000000000000
         C           -1.616315273900     0.953180854964     0.000004760401    12.000000000000
         H            1.727525726100    -1.338370145036     0.876432760401     1.007825032230
         H            1.727526726100    -1.338451145036    -0.876322239599     1.007825032230
         H            2.482102726100     1.072631854964    -0.881452239599     1.007825032230
         H            3.622193726100     0.034908854964    -0.000021239599     1.007825032230
         H            2.482122726100     1.072691854964     0.881365760401     1.007825032230
         H           -2.900419273900    -0.906478145036    -0.000005239599     1.007825032230
         H           -2.252013273900     1.826990854964    -0.000007239599     1.007825032230

  Basis Set: AUG-CC-PVTZ
    Blend: AUG-CC-PVTZ
  Basis Set: (AUG-CC-PVTZ AUX)
    Blend: AUG-CC-PVTZ-JKFIT
	 Reference Energy          =    -322.8260704850971479 [Eh]
	 Singles Energy            =      -0.0000000000000000 [Eh]
	 Same-Spin Energy          =      -0.3346958525486143 [Eh]
	 Opposite-Spin Energy      =      -1.0606801655501583 [Eh]
	 Correlation Energy        =      -1.3953760180987727 [Eh]
	 Total Energy              =    -324.2214465031959207 [Eh]

	 ================> DF-SCS-MP2 Energies <==================
	-----------------------------------------------------------
	 SCS Same-Spin Scale       =       0.3333333333333333 [-]
	 SCS Opposite-Spin Scale   =       1.2000000000000000 [-]
	 SCS Same-Spin Energy      =      -0.1115652841828714 [Eh]
	 SCS Opposite-Spin Energy  =      -1.2728161986601900 [Eh]
	 SCS Correlation Energy    =      -1.3843814828430614 [Eh]
	 SCS Total Energy          =    -324.2104519679402301 [Eh]
	-----------------------------------------------------------

  Dipole Moment: [D]
     X:    -0.3888      Y:    -1.0515      Z:    -0.0000     Total:     1.1211

*** Psi4 exiting successfully. Buy a developer a beer!
