                               Psi4 1.4a3.dev225

  ==> Input File <==

--------------------------------------------------------------------------
#psi4
#
memory 32 gb

molecule  {
0 1
  O       -0.8874150    -1.1053680    -0.0000120
  N       -0.2975850     1.0586860     0.0000180
  C        1.5208660    -0.6926320     0.0000250
  C        0.1031792    -0.1726480     0.0000027
  C        2.5397680     0.4426120    -0.0000230
  C       -2.0377090    -0.3588510    -0.0000130
  C       -1.6838560     0.9546860     0.0000050
  H        1.6599850    -1.3368650     0.8764330
  H        1.6599860    -1.3369460    -0.8763220
  H        2.4145620     1.0741370    -0.8814520
  H        3.5546530     0.0364140    -0.0000210
  H        2.4145820     1.0741970     0.8813660
  H       -2.9679600    -0.9049730    -0.0000050
  H       -2.3195540     1.8284960    -0.0000070
units angstrom
no_reorient  #important for SAPT in psi4, default
symmetry c1  #important for SAPT in psi4, default
}

set PROPERTIES_ORIGIN ["COM"]
properties('MP2/aug-cc-pvtz', properties = ['dipole'])
--------------------------------------------------------------------------

    Molecular point group: c1
  Charge       = 0
  Multiplicity = 1
  Basis Set: AUG-CC-PVTZ
    Blend: AUG-CC-PVTZ
  Basis Set: (AUG-CC-PVTZ AUX)
    Blend: AUG-CC-PVTZ-JKFIT

    Orbital Energies [Eh]
    ---------------------

    Doubly Occupied:

       1A    -20.635593     2A    -15.559909     3A    -11.336384
       4A    -11.291087     5A    -11.261453     6A    -11.248550
       7A    -11.219822     8A     -1.481592     9A     -1.232033
      10A     -1.078934    11A     -0.997609    12A     -0.881324
      13A     -0.829981    14A     -0.782014    15A     -0.717884
      16A     -0.668758    17A     -0.629201    18A     -0.608986
      19A     -0.583775    20A     -0.574732    21A     -0.524874
      22A     -0.511723    23A     -0.503522    24A     -0.459587
      25A     -0.452187    26A     -0.333908

  @DF-RHF Final Energy:  -322.82796563678716

   => Energetics <=

    Nuclear Repulsion Energy =            292.5401444600861396
    One-Electron Energy =               -1017.9253751003797106
    Two-Electron Energy =                 402.5572650035064157
    Total Energy =                       -322.8279656367871553
  Basis Set: (AUG-CC-PVTZ AUX)
    Blend: AUG-CC-PVTZ-RI
    Molecular point group: c1

    Geometry (in Angstrom), charge = 0, multiplicity = 1:

       Center              X                  Y                   Z               Mass
    ------------   -----------------  -----------------  -----------------  -----------------
         O           -0.819536540087    -1.101869442094    -0.000012128319    15.994914619570
         N           -0.229706540087     1.062184557906     0.000017871681    14.003074004430
         C            1.588744459913    -0.689133442094     0.000024871681    12.000000000000
         C            0.171057659913    -0.169149442094     0.000002571681    12.000000000000
         C            2.607646459913     0.446110557906    -0.000023128319    12.000000000000
         C           -1.969830540087    -0.355352442094    -0.000013128319    12.000000000000
         C           -1.615977540087     0.958184557906     0.000004871681    12.000000000000
         H            1.727863459913    -1.333366442094     0.876432871681     1.007825032230
         H            1.727864459913    -1.333447442094    -0.876322128319     1.007825032230
         H            2.482440459913     1.077635557906    -0.881452128319     1.007825032230
         H            3.622531459913     0.039912557906    -0.000021128319     1.007825032230
         H            2.482460459913     1.077695557906     0.881365871681     1.007825032230
         H           -2.900081540087    -0.901474442094    -0.000005128319     1.007825032230
         H           -2.251675540087     1.831994557906    -0.000007128319     1.007825032230

  Basis Set: AUG-CC-PVTZ
    Blend: AUG-CC-PVTZ
  Basis Set: (AUG-CC-PVTZ AUX)
    Blend: AUG-CC-PVTZ-JKFIT
	 Reference Energy          =    -322.8279656367871553 [Eh]
	 Singles Energy            =      -0.0000000000000000 [Eh]
	 Same-Spin Energy          =      -0.3352431892916516 [Eh]
	 Opposite-Spin Energy      =      -1.0610959593778642 [Eh]
	 Correlation Energy        =      -1.3963391486695158 [Eh]
	 Total Energy              =    -324.2243047854566953 [Eh]

	 ================> DF-SCS-MP2 Energies <==================
	-----------------------------------------------------------
	 SCS Same-Spin Scale       =       0.3333333333333333 [-]
	 SCS Opposite-Spin Scale   =       1.2000000000000000 [-]
	 SCS Same-Spin Energy      =      -0.1117477297638839 [Eh]
	 SCS Opposite-Spin Energy  =      -1.2733151512534369 [Eh]
	 SCS Correlation Energy    =      -1.3850628810173207 [Eh]
	 SCS Total Energy          =    -324.2130285178045028 [Eh]
	-----------------------------------------------------------

  Dipole Moment: [D]
     X:    -0.4244      Y:    -1.1660      Z:    -0.0000     Total:     1.2408

*** Psi4 exiting successfully. Buy a developer a beer!
