                               Psi4 1.3.2 release

  ==> Input File <==

--------------------------------------------------------------------------
#psi4
#
memory 32 gb

molecule  {
0 1
  O       -0.8874150    -1.1053680    -0.0000120
  N       -0.2759112     1.0658194     0.0000186
  C        1.5208660    -0.6926320     0.0000250
  C        0.1219560    -0.1795350     0.0000030
  C        2.5397680     0.4426120    -0.0000230
  C       -2.0377090    -0.3588510    -0.0000130
  C       -1.6838560     0.9546860     0.0000050
  H        1.6599850    -1.3368650     0.8764330
  H        1.6599860    -1.3369460    -0.8763220
  H        2.4145620     1.0741370    -0.8814520
  H        3.5546530     0.0364140    -0.0000210
  H        2.4145820     1.0741970     0.8813660
  H       -2.9679600    -0.9049730    -0.0000050
  H       -2.3195540     1.8284960    -0.0000070
units angstrom
no_reorient  #important for SAPT in psi4, default
symmetry c1  #important for SAPT in psi4, default
}

set PROPERTIES_ORIGIN ["COM"]
properties('MP2/aug-cc-pvtz', properties = ['dipole'])
--------------------------------------------------------------------------

    Molecular point group: c1
  Charge       = 0
  Multiplicity = 1
  Basis Set: AUG-CC-PVTZ
    Blend: AUG-CC-PVTZ
  Basis Set: (AUG-CC-PVTZ AUX)
    Blend: AUG-CC-PVTZ-JKFIT

    Orbital Energies [Eh]
    ---------------------

    Doubly Occupied:

       1A    -20.634491     2A    -15.563226     3A    -11.338379
       4A    -11.292257     5A    -11.262764     6A    -11.247995
       7A    -11.220310     8A     -1.476250     9A     -1.222788
      10A     -1.081804    11A     -0.997393    12A     -0.884262
      13A     -0.827336    14A     -0.777773    15A     -0.716814
      16A     -0.666987    17A     -0.630817    18A     -0.608885
      19A     -0.581686    20A     -0.572238    21A     -0.526384
      22A     -0.513344    23A     -0.504510    24A     -0.459700
      25A     -0.447086    26A     -0.334294

  @DF-RHF Final Energy:  -322.82620014620932

   => Energetics <=

    Nuclear Repulsion Energy =            292.0229972070185340
    One-Electron Energy =               -1016.9188490756205283
    Two-Electron Energy =                 402.0696517223926776
    Total Energy =                       -322.8262001462093167
  Basis Set: (AUG-CC-PVTZ AUX)
    Blend: AUG-CC-PVTZ-RI
    Molecular point group: c1

    Geometry (in Angstrom), charge = 0, multiplicity = 1:

       Center              X                  Y                   Z               Mass
    ------------   -----------------  -----------------  -----------------  -----------------
         O           -0.824985343443    -1.102047134387    -0.000012251983    15.994914619570
         N           -0.213481543443     1.069140265613     0.000018348017    14.003074004430
         C            1.583295656557    -0.689311134387     0.000024748017    12.000000000000
         C            0.184385656557    -0.176214134387     0.000002748017    12.000000000000
         C            2.602197656557     0.445932865613    -0.000023251983    12.000000000000
         C           -1.975279343443    -0.355530134387    -0.000013251983    12.000000000000
         C           -1.621426343443     0.958006865613     0.000004748017    12.000000000000
         H            1.722414656557    -1.333544134387     0.876432748017     1.007825032230
         H            1.722415656557    -1.333625134387    -0.876322251983     1.007825032230
         H            2.476991656557     1.077457865613    -0.881452251983     1.007825032230
         H            3.617082656557     0.039734865613    -0.000021251983     1.007825032230
         H            2.477011656557     1.077517865613     0.881365748017     1.007825032230
         H           -2.905530343443    -0.901652134387    -0.000005251983     1.007825032230
         H           -2.257124343443     1.831816865613    -0.000007251983     1.007825032230

  Basis Set: AUG-CC-PVTZ
    Blend: AUG-CC-PVTZ
  Basis Set: (AUG-CC-PVTZ AUX)
    Blend: AUG-CC-PVTZ-JKFIT
	 Reference Energy          =    -322.8262001462093167 [Eh]
	 Singles Energy            =      -0.0000000000000000 [Eh]
	 Same-Spin Energy          =      -0.3355726785322107 [Eh]
	 Opposite-Spin Energy      =      -1.0622073856157290 [Eh]
	 Correlation Energy        =      -1.3977800641479396 [Eh]
	 Total Energy              =    -324.2239802103572401 [Eh]

	 ================> DF-SCS-MP2 Energies <==================
	-----------------------------------------------------------
	 SCS Same-Spin Scale       =       0.3333333333333333 [-]
	 SCS Opposite-Spin Scale   =       1.2000000000000000 [-]
	 SCS Same-Spin Energy      =      -0.1118575595107369 [Eh]
	 SCS Opposite-Spin Energy  =      -1.2746488627388748 [Eh]
	 SCS Correlation Energy    =      -1.3865064222496117 [Eh]
	 SCS Total Energy          =    -324.2127065684589411 [Eh]
	-----------------------------------------------------------

  Dipole Moment: [D]
     X:    -0.4087      Y:    -1.1968      Z:    -0.0000     Total:     1.2647

*** Psi4 exiting successfully. Buy a developer a beer!
