                               Psi4 1.3.2 release

  ==> Input File <==

--------------------------------------------------------------------------
#psi4
#
memory 32 gb

molecule  {
0 1
  O       -0.8874150    -1.1053680    -0.0000120
  N       -0.2975850     1.0586860     0.0000180
  C        1.5208660    -0.6926320     0.0000250
  C        0.1219560    -0.1795350     0.0000030
  C        2.5397680     0.4426120    -0.0000230
  C       -2.0377090    -0.3588510    -0.0000130
  C       -1.6578444     1.0512437     0.0000063
  H        1.6599850    -1.3368650     0.8764330
  H        1.6599860    -1.3369460    -0.8763220
  H        2.4145620     1.0741370    -0.8814520
  H        3.5546530     0.0364140    -0.0000210
  H        2.4145820     1.0741970     0.8813660
  H       -2.9679600    -0.9049730    -0.0000050
  H       -2.3195540     1.8284960    -0.0000070
units angstrom
no_reorient  #important for SAPT in psi4, default
symmetry c1  #important for SAPT in psi4, default
}

set PROPERTIES_ORIGIN ["COM"]
properties('MP2/aug-cc-pvtz', properties = ['dipole'])
--------------------------------------------------------------------------

    Molecular point group: c1
  Charge       = 0
  Multiplicity = 1
  Basis Set: AUG-CC-PVTZ
    Blend: AUG-CC-PVTZ
  Basis Set: (AUG-CC-PVTZ AUX)
    Blend: AUG-CC-PVTZ-JKFIT

    Orbital Energies [Eh]
    ---------------------

    Doubly Occupied:

       1A    -20.641918     2A    -15.561880     3A    -11.336542
       4A    -11.302583     5A    -11.269016     6A    -11.248694
       7A    -11.220614     8A     -1.476861     9A     -1.232685
      10A     -1.079643    11A     -0.986393    12A     -0.880648
      13A     -0.839415    14A     -0.777196    15A     -0.720666
      16A     -0.666363    17A     -0.644003    18A     -0.608152
      19A     -0.600665    20A     -0.564555    21A     -0.526413
      22A     -0.515985    23A     -0.504452    24A     -0.454687
      25A     -0.448124    26A     -0.313289

  @DF-RHF Final Energy:  -322.80858413656330

   => Energetics <=

    Nuclear Repulsion Energy =            291.2931861712869477
    One-Electron Energy =               -1015.3606521812093888
    Two-Electron Energy =                 401.2588818733591438
    Total Energy =                       -322.8085841365632973
  Basis Set: (AUG-CC-PVTZ AUX)
    Blend: AUG-CC-PVTZ-RI
    Molecular point group: c1

    Geometry (in Angstrom), charge = 0, multiplicity = 1:

       Center              X                  Y                   Z               Mass
    ------------   -----------------  -----------------  -----------------  -----------------
         O           -0.825074360739    -1.112956693578    -0.000012326150    15.994914619570
         N           -0.235244360739     1.051097306422     0.000017673850    14.003074004430
         C            1.583206639261    -0.700220693578     0.000024673850    12.000000000000
         C            0.184296639261    -0.187123693578     0.000002673850    12.000000000000
         C            2.602108639261     0.435023306422    -0.000023326150    12.000000000000
         C           -1.975368360739    -0.366439693578    -0.000013326150    12.000000000000
         C           -1.595503760739     1.043655006422     0.000005973850    12.000000000000
         H            1.722325639261    -1.344453693578     0.876432673850     1.007825032230
         H            1.722326639261    -1.344534693578    -0.876322326150     1.007825032230
         H            2.476902639261     1.066548306422    -0.881452326150     1.007825032230
         H            3.616993639261     0.028825306422    -0.000021326150     1.007825032230
         H            2.476922639261     1.066608306422     0.881365673850     1.007825032230
         H           -2.905619360739    -0.912561693578    -0.000005326150     1.007825032230
         H           -2.257213360739     1.820907306422    -0.000007326150     1.007825032230

  Basis Set: AUG-CC-PVTZ
    Blend: AUG-CC-PVTZ
  Basis Set: (AUG-CC-PVTZ AUX)
    Blend: AUG-CC-PVTZ-JKFIT
	 Reference Energy          =    -322.8085841365632973 [Eh]
	 Singles Energy            =      -0.0000000000000000 [Eh]
	 Same-Spin Energy          =      -0.3381725319148282 [Eh]
	 Opposite-Spin Energy      =      -1.0658236108339167 [Eh]
	 Correlation Energy        =      -1.4039961427487448 [Eh]
	 Total Energy              =    -324.2125802793120215 [Eh]

	 ================> DF-SCS-MP2 Energies <==================
	-----------------------------------------------------------
	 SCS Same-Spin Scale       =       0.3333333333333333 [-]
	 SCS Opposite-Spin Scale   =       1.2000000000000000 [-]
	 SCS Same-Spin Energy      =      -0.1127241773049427 [Eh]
	 SCS Opposite-Spin Energy  =      -1.2789883330007001 [Eh]
	 SCS Correlation Energy    =      -1.3917125103056429 [Eh]
	 SCS Total Energy          =    -324.2002966468689351 [Eh]
	-----------------------------------------------------------

  Dipole Moment: [D]
     X:    -0.3790      Y:    -1.1176      Z:    -0.0000     Total:     1.1801

*** Psi4 exiting successfully. Buy a developer a beer!
