                               Psi4 1.3.2 release

  ==> Input File <==

--------------------------------------------------------------------------
#psi4
#
memory 32 gb

molecule  {
0 1
  O       -0.8874150    -1.1053680    -0.0000120
  N       -0.2975850     1.0586860     0.0000180
  C        1.5208660    -0.6926320     0.0000250
  C        0.1219560    -0.1795350     0.0000030
  C        2.5397680     0.4426120    -0.0000230
  C       -2.0377090    -0.3588510    -0.0000130
  C       -1.8832955     0.9397238     0.0000031
  H        1.6599850    -1.3368650     0.8764330
  H        1.6599860    -1.3369460    -0.8763220
  H        2.4145620     1.0741370    -0.8814520
  H        3.5546530     0.0364140    -0.0000210
  H        2.4145820     1.0741970     0.8813660
  H       -2.9679600    -0.9049730    -0.0000050
  H       -2.3195540     1.8284960    -0.0000070
units angstrom
no_reorient  #important for SAPT in psi4, default
symmetry c1  #important for SAPT in psi4, default
}

set PROPERTIES_ORIGIN ["COM"]
properties('MP2/aug-cc-pvtz', properties = ['dipole'])
--------------------------------------------------------------------------

    Molecular point group: c1
  Charge       = 0
  Multiplicity = 1
  Basis Set: AUG-CC-PVTZ
    Blend: AUG-CC-PVTZ
  Basis Set: (AUG-CC-PVTZ AUX)
    Blend: AUG-CC-PVTZ-JKFIT

    Orbital Energies [Eh]
    ---------------------

    Doubly Occupied:

       1A    -20.630993     2A    -15.561762     3A    -11.335117
       4A    -11.299184     5A    -11.261018     6A    -11.248602
       7A    -11.219315     8A     -1.471440     9A     -1.185041
      10A     -1.082985    11A     -1.011632    12A     -0.890299
      13A     -0.830591    14A     -0.770952    15A     -0.717328
      16A     -0.664062    17A     -0.632065    18A     -0.608781
      19A     -0.607834    20A     -0.557599    21A     -0.524979
      22A     -0.509451    23A     -0.504121    24A     -0.431006
      25A     -0.424499    26A     -0.359627

  @DF-RHF Final Energy:  -322.79508919835831

   => Energetics <=

    Nuclear Repulsion Energy =            289.6907981080213972
    One-Electron Energy =               -1012.2912086136010430
    Two-Electron Energy =                 399.8053213072213907
    Total Energy =                       -322.7950891983583119
  Basis Set: (AUG-CC-PVTZ AUX)
    Blend: AUG-CC-PVTZ-RI
    Molecular point group: c1

    Geometry (in Angstrom), charge = 0, multiplicity = 1:

       Center              X                  Y                   Z               Mass
    ------------   -----------------  -----------------  -----------------  -----------------
         O           -0.797198666193    -1.099167917793    -0.000011930489    15.994914619570
         N           -0.207368666193     1.064886082207     0.000018069511    14.003074004430
         C            1.611082333807    -0.686431917793     0.000025069511    12.000000000000
         C            0.212172333807    -0.173334917793     0.000003069511    12.000000000000
         C            2.629984333807     0.448812082207    -0.000022930489    12.000000000000
         C           -1.947492666193    -0.352650917793    -0.000012930489    12.000000000000
         C           -1.793079166193     0.945923882207     0.000003169511    12.000000000000
         H            1.750201333807    -1.330664917793     0.876433069511     1.007825032230
         H            1.750202333807    -1.330745917793    -0.876321930489     1.007825032230
         H            2.504778333807     1.080337082207    -0.881451930489     1.007825032230
         H            3.644869333807     0.042614082207    -0.000020930489     1.007825032230
         H            2.504798333807     1.080397082207     0.881366069511     1.007825032230
         H           -2.877743666193    -0.898772917793    -0.000004930489     1.007825032230
         H           -2.229337666193     1.834696082207    -0.000006930489     1.007825032230

  Basis Set: AUG-CC-PVTZ
    Blend: AUG-CC-PVTZ
  Basis Set: (AUG-CC-PVTZ AUX)
    Blend: AUG-CC-PVTZ-JKFIT
	 Reference Energy          =    -322.7950891983583119 [Eh]
	 Singles Energy            =      -0.0000000000000000 [Eh]
	 Same-Spin Energy          =      -0.3341150686691895 [Eh]
	 Opposite-Spin Energy      =      -1.0636897843798392 [Eh]
	 Correlation Energy        =      -1.3978048530490286 [Eh]
	 Total Energy              =    -324.1928940514073361 [Eh]

	 ================> DF-SCS-MP2 Energies <==================
	-----------------------------------------------------------
	 SCS Same-Spin Scale       =       0.3333333333333333 [-]
	 SCS Opposite-Spin Scale   =       1.2000000000000000 [-]
	 SCS Same-Spin Energy      =      -0.1113716895563965 [Eh]
	 SCS Opposite-Spin Energy  =      -1.2764277412558069 [Eh]
	 SCS Correlation Energy    =      -1.3877994308122035 [Eh]
	 SCS Total Energy          =    -324.1828886291705203 [Eh]
	-----------------------------------------------------------

  Dipole Moment: [D]
     X:    -0.4392      Y:    -1.1269      Z:    -0.0000     Total:     1.2094

*** Psi4 exiting successfully. Buy a developer a beer!
