                               Psi4 1.4a3.dev225

  ==> Input File <==

--------------------------------------------------------------------------
#psi4
#
memory 32 gb

molecule  {
0 1
  O       -0.8874150    -1.1053680    -0.0000120
  N       -0.2975850     1.0586860     0.0000180
  C        1.5208660    -0.6926320     0.0000250
  C        0.1219560    -0.1795350     0.0000030
  C        2.5397680     0.4426120    -0.0000230
  C       -2.0377090    -0.3588510    -0.0000130
  C       -1.6708502     1.0029649     0.0000057
  H        1.6599850    -1.3368650     0.8764330
  H        1.6599860    -1.3369460    -0.8763220
  H        2.4145620     1.0741370    -0.8814520
  H        3.5546530     0.0364140    -0.0000210
  H        2.4145820     1.0741970     0.8813660
  H       -2.9679600    -0.9049730    -0.0000050
  H       -2.3195540     1.8284960    -0.0000070
units angstrom
no_reorient  #important for SAPT in psi4, default
symmetry c1  #important for SAPT in psi4, default
}

set PROPERTIES_ORIGIN ["COM"]
properties('MP2/aug-cc-pvtz', properties = ['dipole'])
--------------------------------------------------------------------------

    Molecular point group: c1
  Charge       = 0
  Multiplicity = 1
  Basis Set: AUG-CC-PVTZ
    Blend: AUG-CC-PVTZ
  Basis Set: (AUG-CC-PVTZ AUX)
    Blend: AUG-CC-PVTZ-JKFIT

    Orbital Energies [Eh]
    ---------------------

    Doubly Occupied:

       1A    -20.638069     2A    -15.561141     3A    -11.337236
       4A    -11.296956     5A    -11.264879     6A    -11.248754
       7A    -11.220743     8A     -1.476626     9A     -1.229673
      10A     -1.080933    11A     -0.991133    12A     -0.882088
      13A     -0.833666    14A     -0.779012    15A     -0.718603
      16A     -0.666725    17A     -0.636147    18A     -0.608646
      19A     -0.594339    20A     -0.568685    21A     -0.526649
      22A     -0.515472    23A     -0.504711    24A     -0.452994
      25A     -0.451982    26A     -0.322271

  @DF-RHF Final Energy:  -322.82090597574012

   => Energetics <=

    Nuclear Repulsion Energy =            291.8085547678959983
    One-Electron Energy =               -1016.4426526264277300
    Two-Electron Energy =                 401.8131918827916138
    Total Energy =                       -322.8209059757401178
  Basis Set: (AUG-CC-PVTZ AUX)
    Blend: AUG-CC-PVTZ-RI
    Molecular point group: c1

    Geometry (in Angstrom), charge = 0, multiplicity = 1:

       Center              X                  Y                   Z               Mass
    ------------   -----------------  -----------------  -----------------  -----------------
         O           -0.823466270523    -1.106987305618    -0.000012251964    15.994914619570
         N           -0.233636270523     1.057066694382     0.000017748036    14.003074004430
         C            1.584814729477    -0.694251305618     0.000024748036    12.000000000000
         C            0.185904729477    -0.181154305618     0.000002748036    12.000000000000
         C            2.603716729477     0.440992694382    -0.000023251964    12.000000000000
         C           -1.973760270523    -0.360470305618    -0.000013251964    12.000000000000
         C           -1.606901470523     1.001345594382     0.000005448036    12.000000000000
         H            1.723933729477    -1.338484305618     0.876432748036     1.007825032230
         H            1.723934729477    -1.338565305618    -0.876322251964     1.007825032230
         H            2.478510729477     1.072517694382    -0.881452251964     1.007825032230
         H            3.618601729477     0.034794694382    -0.000021251964     1.007825032230
         H            2.478530729477     1.072577694382     0.881365748036     1.007825032230
         H           -2.904011270523    -0.906592305618    -0.000005251964     1.007825032230
         H           -2.255605270523     1.826876694382    -0.000007251964     1.007825032230

  Basis Set: AUG-CC-PVTZ
    Blend: AUG-CC-PVTZ
  Basis Set: (AUG-CC-PVTZ AUX)
    Blend: AUG-CC-PVTZ-JKFIT
	 Reference Energy          =    -322.8209059757401178 [Eh]
	 Singles Energy            =      -0.0000000000000000 [Eh]
	 Same-Spin Energy          =      -0.3368872071881336 [Eh]
	 Opposite-Spin Energy      =      -1.0636877079564455 [Eh]
	 Correlation Energy        =      -1.4005749151445792 [Eh]
	 Total Energy              =    -324.2214808908847203 [Eh]

	 ================> DF-SCS-MP2 Energies <==================
	-----------------------------------------------------------
	 SCS Same-Spin Scale       =       0.3333333333333333 [-]
	 SCS Opposite-Spin Scale   =       1.2000000000000000 [-]
	 SCS Same-Spin Energy      =      -0.1122957357293779 [Eh]
	 SCS Opposite-Spin Energy  =      -1.2764252495477346 [Eh]
	 SCS Correlation Energy    =      -1.3887209852771125 [Eh]
	 SCS Total Energy          =    -324.2096269610172499 [Eh]
	-----------------------------------------------------------

  Dipole Moment: [D]
     X:    -0.3763      Y:    -1.1534      Z:    -0.0000     Total:     1.2132

*** Psi4 exiting successfully. Buy a developer a beer!
