                               Psi4 1.3.2 release

  ==> Input File <==

--------------------------------------------------------------------------
#psi4
#
memory 32 gb

molecule  {
0 1
  O       -0.8874150    -1.1053680    -0.0000120
  N       -0.2975850     1.0586860     0.0000180
  C        1.5208660    -0.6926320     0.0000250
  C        0.1219560    -0.1795350     0.0000030
  C        2.5397680     0.4426120    -0.0000230
  C       -2.0377090    -0.3588510    -0.0000130
  C       -1.4844165     0.9696482     0.0000069
  H        1.6599850    -1.3368650     0.8764330
  H        1.6599860    -1.3369460    -0.8763220
  H        2.4145620     1.0741370    -0.8814520
  H        3.5546530     0.0364140    -0.0000210
  H        2.4145820     1.0741970     0.8813660
  H       -2.9679600    -0.9049730    -0.0000050
  H       -2.3195540     1.8284960    -0.0000070
units angstrom
no_reorient  #important for SAPT in psi4, default
symmetry c1  #important for SAPT in psi4, default
}

set PROPERTIES_ORIGIN ["COM"]
properties('MP2/aug-cc-pvtz', properties = ['dipole'])
--------------------------------------------------------------------------

    Molecular point group: c1
  Charge       = 0
  Multiplicity = 1
  Basis Set: AUG-CC-PVTZ
    Blend: AUG-CC-PVTZ
  Basis Set: (AUG-CC-PVTZ AUX)
    Blend: AUG-CC-PVTZ-JKFIT

    Orbital Energies [Eh]
    ---------------------

    Doubly Occupied:

       1A    -20.644166     2A    -15.557329     3A    -11.342297
       4A    -11.284034     5A    -11.266233     6A    -11.250127
       7A    -11.223693     8A     -1.488753     9A     -1.299568
      10A     -1.085056    11A     -0.981846    12A     -0.877446
      13A     -0.846013    14A     -0.798516    15A     -0.713359
      16A     -0.676055    17A     -0.636748    18A     -0.611736
      19A     -0.597737    20A     -0.549976    21A     -0.528805
      22A     -0.518686    23A     -0.507123    24A     -0.493255
      25A     -0.449567    26A     -0.301049

  @DF-RHF Final Energy:  -322.76463875017208

   => Energetics <=

    Nuclear Repulsion Energy =            295.5053897086567076
    One-Electron Energy =               -1023.4817076211594440
    Two-Electron Energy =                 405.2116791623306540
    Total Energy =                       -322.7646387501720824
  Basis Set: (AUG-CC-PVTZ AUX)
    Blend: AUG-CC-PVTZ-RI
    Molecular point group: c1

    Geometry (in Angstrom), charge = 0, multiplicity = 1:

       Center              X                  Y                   Z               Mass
    ------------   -----------------  -----------------  -----------------  -----------------
         O           -0.846517694422    -1.102867892794    -0.000012400336    15.994914619570
         N           -0.256687694422     1.061186107206     0.000017599664    14.003074004430
         C            1.561763305578    -0.690131892794     0.000024599664    12.000000000000
         C            0.162853305578    -0.177034892794     0.000002599664    12.000000000000
         C            2.580665305578     0.445112107206    -0.000023400336    12.000000000000
         C           -1.996811694422    -0.356350892794    -0.000013400336    12.000000000000
         C           -1.443519194422     0.972148307206     0.000006499664    12.000000000000
         H            1.700882305578    -1.334364892794     0.876432599664     1.007825032230
         H            1.700883305578    -1.334445892794    -0.876322400336     1.007825032230
         H            2.455459305578     1.076637107206    -0.881452400336     1.007825032230
         H            3.595550305578     0.038914107206    -0.000021400336     1.007825032230
         H            2.455479305578     1.076697107206     0.881365599664     1.007825032230
         H           -2.927062694422    -0.902472892794    -0.000005400336     1.007825032230
         H           -2.278656694422     1.830996107206    -0.000007400336     1.007825032230

  Basis Set: AUG-CC-PVTZ
    Blend: AUG-CC-PVTZ
  Basis Set: (AUG-CC-PVTZ AUX)
    Blend: AUG-CC-PVTZ-JKFIT
	 Reference Energy          =    -322.7646387501720824 [Eh]
	 Singles Energy            =      -0.0000000000000000 [Eh]
	 Same-Spin Energy          =      -0.3406718961157847 [Eh]
	 Opposite-Spin Energy      =      -1.0664250124610477 [Eh]
	 Correlation Energy        =      -1.4070969085768326 [Eh]
	 Total Energy              =    -324.1717356587489007 [Eh]

	 ================> DF-SCS-MP2 Energies <==================
	-----------------------------------------------------------
	 SCS Same-Spin Scale       =       0.3333333333333333 [-]
	 SCS Opposite-Spin Scale   =       1.2000000000000000 [-]
	 SCS Same-Spin Energy      =      -0.1135572987052616 [Eh]
	 SCS Opposite-Spin Energy  =      -1.2797100149532572 [Eh]
	 SCS Correlation Energy    =      -1.3932673136585187 [Eh]
	 SCS Total Energy          =    -324.1579060638305805 [Eh]
	-----------------------------------------------------------

  Dipole Moment: [D]
     X:    -0.1628      Y:    -1.2136      Z:     0.0000     Total:     1.2245

*** Psi4 exiting successfully. Buy a developer a beer!
