                               Psi4 1.3.2 release

  ==> Input File <==

--------------------------------------------------------------------------
#psi4
#
memory 32 gb

molecule  {
0 1
  O       -0.8874150    -1.1053680    -0.0000120
  N       -0.2975850     1.0586860     0.0000180
  C        1.5208660    -0.6926320     0.0000250
  C        0.1219560    -0.1795350     0.0000030
  C        2.5397680     0.4426120    -0.0000230
  C       -2.0377090    -0.3588510    -0.0000130
  C       -1.6838560     0.9546860     0.0000050
  H        1.6599850    -1.3368650     0.8764330
  H        1.6599860    -1.3369460    -0.8763220
  H        2.4145620     1.0741370    -0.8814520
  H        3.5546530     0.0364140    -0.0000210
  H        2.4145820     1.0741970     0.8813660
  H       -2.9679600    -0.9049730    -0.0000050
  H       -2.3195540     1.8284960    -0.0000070
units angstrom
no_reorient  #important for SAPT in psi4, default
symmetry c1  #important for SAPT in psi4, default
}

set PROPERTIES_ORIGIN ["COM"]
properties('MP2/aug-cc-pvtz', properties = ['dipole'])
--------------------------------------------------------------------------

    Molecular point group: c1
  Charge       = 0
  Multiplicity = 1
  Basis Set: AUG-CC-PVTZ
    Blend: AUG-CC-PVTZ
  Basis Set: (AUG-CC-PVTZ AUX)
    Blend: AUG-CC-PVTZ-JKFIT

    Orbital Energies [Eh]
    ---------------------

    Doubly Occupied:

       1A    -20.634286     2A    -15.560716     3A    -11.337801
       4A    -11.290824     5A    -11.260664     6A    -11.248767
       7A    -11.220843     8A     -1.476590     9A     -1.226326
      10A     -1.082704    11A     -0.997125    12A     -0.884163
      13A     -0.827726    14A     -0.780338    15A     -0.717156
      16A     -0.667208    17A     -0.630595    18A     -0.609206
      19A     -0.585095    20A     -0.572099    21A     -0.526765
      22A     -0.514675    23A     -0.504962    24A     -0.457006
      25A     -0.449433    26A     -0.332042

  @DF-RHF Final Energy:  -322.82705520788613

   => Energetics <=

    Nuclear Repulsion Energy =            292.3441783893343882
    One-Electron Energy =               -1017.5522336362561191
    Two-Electron Energy =                 402.3810000390355981
    Total Energy =                       -322.8270552078861328
  Basis Set: (AUG-CC-PVTZ AUX)
    Blend: AUG-CC-PVTZ-RI
    Molecular point group: c1

    Geometry (in Angstrom), charge = 0, multiplicity = 1:

       Center              X                  Y                   Z               Mass
    ------------   -----------------  -----------------  -----------------  -----------------
         O           -0.821858180307    -1.101017905294    -0.000012165413    15.994914619570
         N           -0.232028180307     1.063036094706     0.000017834587    14.003074004430
         C            1.586422819693    -0.688281905294     0.000024834587    12.000000000000
         C            0.187512819693    -0.175184905294     0.000002834587    12.000000000000
         C            2.605324819693     0.446962094706    -0.000023165413    12.000000000000
         C           -1.972152180307    -0.354500905294    -0.000013165413    12.000000000000
         C           -1.618299180307     0.959036094706     0.000004834587    12.000000000000
         H            1.725541819693    -1.332514905294     0.876432834587     1.007825032230
         H            1.725542819693    -1.332595905294    -0.876322165413     1.007825032230
         H            2.480118819693     1.078487094706    -0.881452165413     1.007825032230
         H            3.620209819693     0.040764094706    -0.000021165413     1.007825032230
         H            2.480138819693     1.078547094706     0.881365834587     1.007825032230
         H           -2.902403180307    -0.900622905294    -0.000005165413     1.007825032230
         H           -2.253997180307     1.832846094706    -0.000007165413     1.007825032230

  Basis Set: AUG-CC-PVTZ
    Blend: AUG-CC-PVTZ
  Basis Set: (AUG-CC-PVTZ AUX)
    Blend: AUG-CC-PVTZ-JKFIT
	 Reference Energy          =    -322.8270552078861328 [Eh]
	 Singles Energy            =      -0.0000000000000000 [Eh]
	 Same-Spin Energy          =      -0.3357698277461554 [Eh]
	 Opposite-Spin Energy      =      -1.0619014103766142 [Eh]
	 Correlation Energy        =      -1.3976712381227696 [Eh]
	 Total Energy              =    -324.2247264460089013 [Eh]

	 ================> DF-SCS-MP2 Energies <==================
	-----------------------------------------------------------
	 SCS Same-Spin Scale       =       0.3333333333333333 [-]
	 SCS Opposite-Spin Scale   =       1.2000000000000000 [-]
	 SCS Same-Spin Energy      =      -0.1119232759153851 [Eh]
	 SCS Opposite-Spin Energy  =      -1.2742816924519371 [Eh]
	 SCS Correlation Energy    =      -1.3862049683673223 [Eh]
	 SCS Total Energy          =    -324.2132601762534705 [Eh]
	-----------------------------------------------------------

  Dipole Moment: [D]
     X:    -0.3674      Y:    -1.1826      Z:    -0.0000     Total:     1.2383

*** Psi4 exiting successfully. Buy a developer a beer!
