                               Psi4 1.3.2 release

  ==> Input File <==

--------------------------------------------------------------------------
#psi4
#
memory 32 gb

molecule  {
0 1
  O       -0.8874150    -1.1053680    -0.0000120
  N       -0.2975850     1.0586860     0.0000180
  C        1.5208660    -0.6926320     0.0000250
  C        0.1219560    -0.1795350     0.0000030
  C        2.5397680     0.4426120    -0.0000230
  C       -2.0377090    -0.3588510    -0.0000130
  C       -1.6838560     0.9546860     0.0000050
  H        1.6599850    -1.3368650     0.8764330
  H        1.6599860    -1.3369460    -0.8763220
  H        2.4145620     1.0741370    -0.8814520
  H        3.5546530     0.0364140    -0.0000210
  H        2.4145820     1.0741970     0.8813660
  H       -2.9679600    -0.9049730    -0.0000050
  H       -2.2607247     1.7476312    -0.0000059
units angstrom
no_reorient  #important for SAPT in psi4, default
symmetry c1  #important for SAPT in psi4, default
}

set PROPERTIES_ORIGIN ["COM"]
properties('MP2/aug-cc-pvtz', properties = ['dipole'])
--------------------------------------------------------------------------

    Molecular point group: c1
  Charge       = 0
  Multiplicity = 1
  Basis Set: AUG-CC-PVTZ
    Blend: AUG-CC-PVTZ
  Basis Set: (AUG-CC-PVTZ AUX)
    Blend: AUG-CC-PVTZ-JKFIT

    Orbital Energies [Eh]
    ---------------------

    Doubly Occupied:

       1A    -20.633920     2A    -15.559950     3A    -11.337219
       4A    -11.290611     5A    -11.249349     6A    -11.248489
       7A    -11.220668     8A     -1.476172     9A     -1.226184
      10A     -1.083278    11A     -0.999197    12A     -0.886226
      13A     -0.836315    14A     -0.781285    15A     -0.723929
      16A     -0.666838    17A     -0.635324    18A     -0.608951
      19A     -0.594442    20A     -0.574048    21A     -0.526547
      22A     -0.514797    23A     -0.504764    24A     -0.456828
      25A     -0.449017    26A     -0.331888

  @DF-RHF Final Energy:  -322.82080089492325

   => Energetics <=

    Nuclear Repulsion Energy =            292.8801440451471763
    One-Electron Energy =               -1018.5694192682495895
    Two-Electron Energy =                 402.8684743281791611
    Total Energy =                       -322.8208008949232521
  Basis Set: (AUG-CC-PVTZ AUX)
    Blend: AUG-CC-PVTZ-RI
    Molecular point group: c1

    Geometry (in Angstrom), charge = 0, multiplicity = 1:

       Center              X                  Y                   Z               Mass
    ------------   -----------------  -----------------  -----------------  -----------------
         O           -0.822469081417    -1.100178180937    -0.000012176835    15.994914619570
         N           -0.232639081417     1.063875819063     0.000017823165    14.003074004430
         C            1.585811918583    -0.687442180937     0.000024823165    12.000000000000
         C            0.186901918583    -0.174345180937     0.000002823165    12.000000000000
         C            2.604713918583     0.447801819063    -0.000023176835    12.000000000000
         C           -1.972763081417    -0.353661180937    -0.000013176835    12.000000000000
         C           -1.618910081417     0.959875819063     0.000004823165    12.000000000000
         H            1.724930918583    -1.331675180937     0.876432823165     1.007825032230
         H            1.724931918583    -1.331756180937    -0.876322176835     1.007825032230
         H            2.479507918583     1.079326819063    -0.881452176835     1.007825032230
         H            3.619598918583     0.041603819063    -0.000021176835     1.007825032230
         H            2.479527918583     1.079386819063     0.881365823165     1.007825032230
         H           -2.903014081417    -0.899783180937    -0.000005176835     1.007825032230
         H           -2.195778781417     1.752821019063    -0.000006076835     1.007825032230

  Basis Set: AUG-CC-PVTZ
    Blend: AUG-CC-PVTZ
  Basis Set: (AUG-CC-PVTZ AUX)
    Blend: AUG-CC-PVTZ-JKFIT
	 Reference Energy          =    -322.8208008949232521 [Eh]
	 Singles Energy            =      -0.0000000000000000 [Eh]
	 Same-Spin Energy          =      -0.3356388406638934 [Eh]
	 Opposite-Spin Energy      =      -1.0615330747650309 [Eh]
	 Correlation Energy        =      -1.3971719154289244 [Eh]
	 Total Energy              =    -324.2179728103521938 [Eh]

	 ================> DF-SCS-MP2 Energies <==================
	-----------------------------------------------------------
	 SCS Same-Spin Scale       =       0.3333333333333333 [-]
	 SCS Opposite-Spin Scale   =       1.2000000000000000 [-]
	 SCS Same-Spin Energy      =      -0.1118796135546311 [Eh]
	 SCS Opposite-Spin Energy  =      -1.2738396897180371 [Eh]
	 SCS Correlation Energy    =      -1.3857193032726682 [Eh]
	 SCS Total Energy          =    -324.2065201981959035 [Eh]
	-----------------------------------------------------------

  Dipole Moment: [D]
     X:    -0.3827      Y:    -1.1961      Z:    -0.0000     Total:     1.2558

*** Psi4 exiting successfully. Buy a developer a beer!
