                               Psi4 1.4a3.dev225

  ==> Input File <==

--------------------------------------------------------------------------
#psi4
#
memory 32 gb

molecule  {
0 1
  O       -0.8874150    -1.1053680    -0.0000120
  N       -0.2975850     1.0586860     0.0000180
  C        1.5208660    -0.6926320     0.0000250
  C        0.1219560    -0.1795350     0.0000030
  C        2.5397680     0.4426120    -0.0000230
  C       -2.0377090    -0.3588510    -0.0000130
  C       -1.6838560     0.9546860     0.0000050
  H        1.6599850    -1.3368650     0.8764330
  H        1.6599860    -1.3369460    -0.8763220
  H        2.4145620     1.0741370    -0.8814520
  H        3.5546530     0.0364140    -0.0000210
  H        2.4145820     1.0741970     0.8813660
  H       -2.9679600    -0.9049730    -0.0000050
  H       -2.3489686     1.8689284    -0.0000076
units angstrom
no_reorient  #important for SAPT in psi4, default
symmetry c1  #important for SAPT in psi4, default
}

set PROPERTIES_ORIGIN ["COM"]
properties('MP2/aug-cc-pvtz', properties = ['dipole'])
--------------------------------------------------------------------------

    Molecular point group: c1
  Charge       = 0
  Multiplicity = 1
  Basis Set: AUG-CC-PVTZ
    Blend: AUG-CC-PVTZ
  Basis Set: (AUG-CC-PVTZ AUX)
    Blend: AUG-CC-PVTZ-JKFIT

    Orbital Energies [Eh]
    ---------------------

    Doubly Occupied:

       1A    -20.634545     2A    -15.561194     3A    -11.338155
       4A    -11.291059     5A    -11.266083     6A    -11.248941
       7A    -11.220954     8A     -1.476869     9A     -1.226529
      10A     -1.082582    11A     -0.996462    12A     -0.883604
      13A     -0.824538    14A     -0.779987    15A     -0.714205
      16A     -0.667451    17A     -0.628890    18A     -0.609374
      19A     -0.581289    20A     -0.568888    21A     -0.526905
      22A     -0.514560    23A     -0.505088    24A     -0.457099
      25A     -0.449722    26A     -0.332207

  @DF-RHF Final Energy:  -322.82452654692935

   => Energetics <=

    Nuclear Repulsion Energy =            292.1010268029351096
    One-Electron Energy =               -1017.0767474455641377
    Two-Electron Energy =                 402.1511940956997364
    Total Energy =                       -322.8245265469293486
  Basis Set: (AUG-CC-PVTZ AUX)
    Blend: AUG-CC-PVTZ-RI
    Molecular point group: c1

    Geometry (in Angstrom), charge = 0, multiplicity = 1:

       Center              X                  Y                   Z               Mass
    ------------   -----------------  -----------------  -----------------  -----------------
         O           -0.821552730271    -1.101437767472    -0.000012159182    15.994914619570
         N           -0.231722730271     1.062616232528     0.000017840818    14.003074004430
         C            1.586728269729    -0.688701767472     0.000024840818    12.000000000000
         C            0.187818269729    -0.175604767472     0.000002840818    12.000000000000
         C            2.605630269729     0.446542232528    -0.000023159182    12.000000000000
         C           -1.971846730271    -0.354920767472    -0.000013159182    12.000000000000
         C           -1.617993730271     0.958616232528     0.000004840818    12.000000000000
         H            1.725847269729    -1.332934767472     0.876432840818     1.007825032230
         H            1.725848269729    -1.333015767472    -0.876322159182     1.007825032230
         H            2.480424269729     1.078067232528    -0.881452159182     1.007825032230
         H            3.620515269729     0.040344232528    -0.000021159182     1.007825032230
         H            2.480444269729     1.078127232528     0.881365840818     1.007825032230
         H           -2.902097730271    -0.901042767472    -0.000005159182     1.007825032230
         H           -2.283106330271     1.872858632528    -0.000007759182     1.007825032230

  Basis Set: AUG-CC-PVTZ
    Blend: AUG-CC-PVTZ
  Basis Set: (AUG-CC-PVTZ AUX)
    Blend: AUG-CC-PVTZ-JKFIT
	 Reference Energy          =    -322.8245265469293486 [Eh]
	 Singles Energy            =      -0.0000000000000000 [Eh]
	 Same-Spin Energy          =      -0.3358673093363626 [Eh]
	 Opposite-Spin Energy      =      -1.0622614744681169 [Eh]
	 Correlation Energy        =      -1.3981287838044794 [Eh]
	 Total Energy              =    -324.2226553307338008 [Eh]

	 ================> DF-SCS-MP2 Energies <==================
	-----------------------------------------------------------
	 SCS Same-Spin Scale       =       0.3333333333333333 [-]
	 SCS Opposite-Spin Scale   =       1.2000000000000000 [-]
	 SCS Same-Spin Energy      =      -0.1119557697787875 [Eh]
	 SCS Opposite-Spin Energy  =      -1.2747137693617403 [Eh]
	 SCS Correlation Energy    =      -1.3866695391405277 [Eh]
	 SCS Total Energy          =    -324.2111960860698900 [Eh]
	-----------------------------------------------------------

  Dipole Moment: [D]
     X:    -0.3564      Y:    -1.1791      Z:    -0.0000     Total:     1.2318

*** Psi4 exiting successfully. Buy a developer a beer!
