                               Psi4 1.3.2 release

  ==> Input File <==

--------------------------------------------------------------------------
#psi4
#
memory 32 gb

molecule  {
0 1
  O       -0.8544890    -1.1400305    -0.0000124
  N       -0.2975850     1.0586860     0.0000180
  C        1.5208660    -0.6926320     0.0000250
  C        0.1219560    -0.1795350     0.0000030
  C        2.5397680     0.4426120    -0.0000230
  C       -2.0377090    -0.3588510    -0.0000130
  C       -1.6838560     0.9546860     0.0000050
  H        1.6599850    -1.3368650     0.8764330
  H        1.6599860    -1.3369460    -0.8763220
  H        2.4145620     1.0741370    -0.8814520
  H        3.5546530     0.0364140    -0.0000210
  H        2.4145820     1.0741970     0.8813660
  H       -2.9679600    -0.9049730    -0.0000050
  H       -2.3195540     1.8284960    -0.0000070
units angstrom
no_reorient  #important for SAPT in psi4, default
symmetry c1  #important for SAPT in psi4, default
}

set PROPERTIES_ORIGIN ["COM"]
properties('MP2/aug-cc-pvtz', properties = ['dipole'])
--------------------------------------------------------------------------

    Molecular point group: c1
  Charge       = 0
  Multiplicity = 1
  Basis Set: AUG-CC-PVTZ
    Blend: AUG-CC-PVTZ
  Basis Set: (AUG-CC-PVTZ AUX)
    Blend: AUG-CC-PVTZ-JKFIT

    Orbital Energies [Eh]
    ---------------------

    Doubly Occupied:

       1A    -20.633977     2A    -15.561082     3A    -11.339889
       4A    -11.293845     5A    -11.266311     6A    -11.247099
       7A    -11.219816     8A     -1.462845     9A     -1.227604
      10A     -1.081327    11A     -0.995318    12A     -0.883887
      13A     -0.824345    14A     -0.777334    15A     -0.713200
      16A     -0.662679    17A     -0.626529    18A     -0.605287
      19A     -0.586517    20A     -0.577213    21A     -0.523211
      22A     -0.513625    23A     -0.503700    24A     -0.457457
      25A     -0.451784    26A     -0.334907

  @DF-RHF Final Energy:  -322.82329497393818

   => Energetics <=

    Nuclear Repulsion Energy =            291.5004984857371824
    One-Electron Energy =               -1015.9060092347807540
    Two-Electron Energy =                 401.5822157751053396
    Total Energy =                       -322.8232949739381752
  Basis Set: (AUG-CC-PVTZ AUX)
    Blend: AUG-CC-PVTZ-RI
    Molecular point group: c1

    Geometry (in Angstrom), charge = 0, multiplicity = 1:

       Center              X                  Y                   Z               Mass
    ------------   -----------------  -----------------  -----------------  -----------------
         O           -0.794358595155    -1.129967804168    -0.000012499490    15.994914619570
         N           -0.237454595155     1.068748695832     0.000017900510    14.003074004430
         C            1.580996404845    -0.682569304168     0.000024900510    12.000000000000
         C            0.182086404845    -0.169472304168     0.000002900510    12.000000000000
         C            2.599898404845     0.452674695832    -0.000023099490    12.000000000000
         C           -1.977578595155    -0.348788304168    -0.000013099490    12.000000000000
         C           -1.623725595155     0.964748695832     0.000004900510    12.000000000000
         H            1.720115404845    -1.326802304168     0.876432900510     1.007825032230
         H            1.720116404845    -1.326883304168    -0.876322099490     1.007825032230
         H            2.474692404845     1.084199695832    -0.881452099490     1.007825032230
         H            3.614783404845     0.046476695832    -0.000021099490     1.007825032230
         H            2.474712404845     1.084259695832     0.881365900510     1.007825032230
         H           -2.907829595155    -0.894910304168    -0.000005099490     1.007825032230
         H           -2.259423595155     1.838558695832    -0.000007099490     1.007825032230

  Basis Set: AUG-CC-PVTZ
    Blend: AUG-CC-PVTZ
  Basis Set: (AUG-CC-PVTZ AUX)
    Blend: AUG-CC-PVTZ-JKFIT
	 Reference Energy          =    -322.8232949739381752 [Eh]
	 Singles Energy            =      -0.0000000000000000 [Eh]
	 Same-Spin Energy          =      -0.3357504701722132 [Eh]
	 Opposite-Spin Energy      =      -1.0631926297769123 [Eh]
	 Correlation Energy        =      -1.3989430999491255 [Eh]
	 Total Energy              =    -324.2222380738872971 [Eh]

	 ================> DF-SCS-MP2 Energies <==================
	-----------------------------------------------------------
	 SCS Same-Spin Scale       =       0.3333333333333333 [-]
	 SCS Opposite-Spin Scale   =       1.2000000000000000 [-]
	 SCS Same-Spin Energy      =      -0.1119168233907377 [Eh]
	 SCS Opposite-Spin Energy  =      -1.2758311557322948 [Eh]
	 SCS Correlation Energy    =      -1.3877479791230325 [Eh]
	 SCS Total Energy          =    -324.2110429530612237 [Eh]
	-----------------------------------------------------------

  Dipole Moment: [D]
     X:    -0.4539      Y:    -1.0572      Z:    -0.0000     Total:     1.1506

*** Psi4 exiting successfully. Buy a developer a beer!
