                               Psi4 1.3.2 release

  ==> Input File <==

--------------------------------------------------------------------------
#psi4
#
memory 32 gb

molecule  {
0 1
  O       -0.8874150    -1.1053680    -0.0000120
  N       -0.2975850     1.0586860     0.0000180
  C        1.5208660    -0.6926320     0.0000250
  C        0.1219560    -0.1795350     0.0000030
  C        2.5397680     0.4426120    -0.0000230
  C       -2.0377090    -0.3588510    -0.0000130
  C       -1.5930903     0.9268028     0.0000027
  H        1.6599850    -1.3368650     0.8764330
  H        1.6599860    -1.3369460    -0.8763220
  H        2.4145620     1.0741370    -0.8814520
  H        3.5546530     0.0364140    -0.0000210
  H        2.4145820     1.0741970     0.8813660
  H       -2.9679600    -0.9049730    -0.0000050
  H       -2.3195540     1.8284960    -0.0000070
units angstrom
no_reorient  #important for SAPT in psi4, default
symmetry c1  #important for SAPT in psi4, default
}

set PROPERTIES_ORIGIN ["COM"]
properties('MP2/aug-cc-pvtz', properties = ['dipole'])
--------------------------------------------------------------------------

    Molecular point group: c1
  Charge       = 0
  Multiplicity = 1
  Basis Set: AUG-CC-PVTZ
    Blend: AUG-CC-PVTZ
  Basis Set: (AUG-CC-PVTZ AUX)
    Blend: AUG-CC-PVTZ-JKFIT

    Orbital Energies [Eh]
    ---------------------

    Doubly Occupied:

       1A    -20.635415     2A    -15.559205     3A    -11.340465
       4A    -11.283579     5A    -11.260320     6A    -11.249346
       7A    -11.222164     8A     -1.481906     9A     -1.255345
      10A     -1.084725    11A     -0.993875    12A     -0.883007
      13A     -0.827717    14A     -0.793123    15A     -0.714680
      16A     -0.671138    17A     -0.631407    18A     -0.610637
      19A     -0.587968    20A     -0.553095    21A     -0.528164
      22A     -0.515864    23A     -0.506044    24A     -0.466075
      25A     -0.464051    26A     -0.323894

  @DF-RHF Final Energy:  -322.81426728448179

   => Energetics <=

    Nuclear Repulsion Energy =            294.2347894309143612
    One-Electron Energy =               -1021.2116942827155981
    Two-Electron Energy =                 404.1626375673194502
    Total Energy =                       -322.8142672844817866
  Basis Set: (AUG-CC-PVTZ AUX)
    Blend: AUG-CC-PVTZ-RI
    Molecular point group: c1

    Geometry (in Angstrom), charge = 0, multiplicity = 1:

       Center              X                  Y                   Z               Mass
    ------------   -----------------  -----------------  -----------------  -----------------
         O           -0.833080822062    -1.097570312595    -0.000011881031    15.994914619570
         N           -0.243250822062     1.066483687405     0.000018118969    14.003074004430
         C            1.575200177938    -0.684834312595     0.000025118969    12.000000000000
         C            0.176290177938    -0.171737312595     0.000003118969    12.000000000000
         C            2.594102177938     0.450409687405    -0.000022881031    12.000000000000
         C           -1.983374822062    -0.351053312595    -0.000012881031    12.000000000000
         C           -1.538756122062     0.934600487405     0.000002818969    12.000000000000
         H            1.714319177938    -1.329067312595     0.876433118969     1.007825032230
         H            1.714320177938    -1.329148312595    -0.876321881031     1.007825032230
         H            2.468896177938     1.081934687405    -0.881451881031     1.007825032230
         H            3.608987177938     0.044211687405    -0.000020881031     1.007825032230
         H            2.468916177938     1.081994687405     0.881366118969     1.007825032230
         H           -2.913625822062    -0.897175312595    -0.000004881031     1.007825032230
         H           -2.265219822062     1.836293687405    -0.000006881031     1.007825032230

  Basis Set: AUG-CC-PVTZ
    Blend: AUG-CC-PVTZ
  Basis Set: (AUG-CC-PVTZ AUX)
    Blend: AUG-CC-PVTZ-JKFIT
	 Reference Energy          =    -322.8142672844817866 [Eh]
	 Singles Energy            =      -0.0000000000000000 [Eh]
	 Same-Spin Energy          =      -0.3371054378016997 [Eh]
	 Opposite-Spin Energy      =      -1.0621608240746614 [Eh]
	 Correlation Energy        =      -1.3992662618763612 [Eh]
	 Total Energy              =    -324.2135335463581214 [Eh]

	 ================> DF-SCS-MP2 Energies <==================
	-----------------------------------------------------------
	 SCS Same-Spin Scale       =       0.3333333333333333 [-]
	 SCS Opposite-Spin Scale   =       1.2000000000000000 [-]
	 SCS Same-Spin Energy      =      -0.1123684792672332 [Eh]
	 SCS Opposite-Spin Energy  =      -1.2745929888895937 [Eh]
	 SCS Correlation Energy    =      -1.3869614681568270 [Eh]
	 SCS Total Energy          =    -324.2012287526385990 [Eh]
	-----------------------------------------------------------

  Dipole Moment: [D]
     X:    -0.2617      Y:    -1.2418      Z:     0.0000     Total:     1.2691

*** Psi4 exiting successfully. Buy a developer a beer!
