                               Psi4 1.3.2 release

  ==> Input File <==

--------------------------------------------------------------------------
#psi4
#
memory 32 gb

molecule  {
0 1
  O       -0.8874150    -1.1053680    -0.0000120
  N       -0.2975850     1.0586860     0.0000180
  C        1.5208660    -0.6926320     0.0000250
  C        0.1219560    -0.1795350     0.0000030
  C        2.5397680     0.4426120    -0.0000230
  C       -2.0377090    -0.3588510    -0.0000130
  C       -1.6838560     0.9546860     0.0000050
  H        1.6599850    -1.3368650     0.8764330
  H        1.6599860    -1.3369460    -0.8763220
  H        2.4145620     1.0741370    -0.8814520
  H        3.5546530     0.0364140    -0.0000210
  H        2.4145820     1.0741970     0.8813660
  H       -2.7954854    -0.8037184    -0.0000065
  H       -2.3195540     1.8284960    -0.0000070
units angstrom
no_reorient  #important for SAPT in psi4, default
symmetry c1  #important for SAPT in psi4, default
}

set PROPERTIES_ORIGIN ["COM"]
properties('MP2/aug-cc-pvtz', properties = ['dipole'])
--------------------------------------------------------------------------

    Molecular point group: c1
  Charge       = 0
  Multiplicity = 1
  Basis Set: AUG-CC-PVTZ
    Blend: AUG-CC-PVTZ
  Basis Set: (AUG-CC-PVTZ AUX)
    Blend: AUG-CC-PVTZ-JKFIT

    Orbital Energies [Eh]
    ---------------------

    Doubly Occupied:

       1A    -20.633140     2A    -15.560159     3A    -11.337714
       4A    -11.268671     5A    -11.260753     6A    -11.248677
       7A    -11.220778     8A     -1.475828     9A     -1.226073
      10A     -1.085087    11A     -1.007914    12A     -0.885796
      13A     -0.850427    14A     -0.779949    15A     -0.736503
      16A     -0.666729    17A     -0.652905    18A     -0.608986
      19A     -0.585450    20A     -0.574948    21A     -0.527784
      22A     -0.514640    23A     -0.504912    24A     -0.457169
      25A     -0.448971    26A     -0.332533

  @DF-RHF Final Energy:  -322.79001898414811

   => Energetics <=

    Nuclear Repulsion Energy =            293.5108789655682244
    One-Electron Energy =               -1019.6968004229784128
    Two-Electron Energy =                 403.3959024732620264
    Total Energy =                       -322.7900189841481051
  Basis Set: (AUG-CC-PVTZ AUX)
    Blend: AUG-CC-PVTZ-RI
    Molecular point group: c1

    Geometry (in Angstrom), charge = 0, multiplicity = 1:

       Center              X                  Y                   Z               Mass
    ------------   -----------------  -----------------  -----------------  -----------------
         O           -0.823649208325    -1.102069363454    -0.000012149836    15.994914619570
         N           -0.233819208325     1.061984636546     0.000017850164    14.003074004430
         C            1.584631791675    -0.689333363454     0.000024850164    12.000000000000
         C            0.185721791675    -0.176236363454     0.000002850164    12.000000000000
         C            2.603533791675     0.445910636546    -0.000023149836    12.000000000000
         C           -1.973943208325    -0.355552363454    -0.000013149836    12.000000000000
         C           -1.620090208325     0.957984636546     0.000004850164    12.000000000000
         H            1.723750791675    -1.333566363454     0.876432850164     1.007825032230
         H            1.723751791675    -1.333647363454    -0.876322149836     1.007825032230
         H            2.478327791675     1.077435636546    -0.881452149836     1.007825032230
         H            3.618418791675     0.039712636546    -0.000021149836     1.007825032230
         H            2.478347791675     1.077495636546     0.881365850164     1.007825032230
         H           -2.731719608325    -0.800419763454    -0.000006649836     1.007825032230
         H           -2.255788208325     1.831794636546    -0.000007149836     1.007825032230

  Basis Set: AUG-CC-PVTZ
    Blend: AUG-CC-PVTZ
  Basis Set: (AUG-CC-PVTZ AUX)
    Blend: AUG-CC-PVTZ-JKFIT
	 Reference Energy          =    -322.7900189841481051 [Eh]
	 Singles Energy            =      -0.0000000000000000 [Eh]
	 Same-Spin Energy          =      -0.3355433444793714 [Eh]
	 Opposite-Spin Energy      =      -1.0614301366540055 [Eh]
	 Correlation Energy        =      -1.3969734811333769 [Eh]
	 Total Energy              =    -324.1869924652814916 [Eh]

	 ================> DF-SCS-MP2 Energies <==================
	-----------------------------------------------------------
	 SCS Same-Spin Scale       =       0.3333333333333333 [-]
	 SCS Opposite-Spin Scale   =       1.2000000000000000 [-]
	 SCS Same-Spin Energy      =      -0.1118477814931238 [Eh]
	 SCS Opposite-Spin Energy  =      -1.2737161639848067 [Eh]
	 SCS Correlation Energy    =      -1.3855639454779305 [Eh]
	 SCS Total Energy          =    -324.1755829296260458 [Eh]
	-----------------------------------------------------------

  Dipole Moment: [D]
     X:    -0.3339      Y:    -1.1433      Z:    -0.0000     Total:     1.1911

*** Psi4 exiting successfully. Buy a developer a beer!
