                               Psi4 1.3.2 release

  ==> Input File <==

--------------------------------------------------------------------------
#psi4
#
memory 32 gb

molecule  {
0 1
  O       -0.8874150    -1.1053680    -0.0000120
  N       -0.2975850     1.0586860     0.0000180
  C        1.5208660    -0.6926320     0.0000250
  C       -0.0097716    -0.2166059     0.0000014
  C        2.5397680     0.4426120    -0.0000230
  C       -2.0377090    -0.3588510    -0.0000130
  C       -1.6838560     0.9546860     0.0000050
  H        1.6599850    -1.3368650     0.8764330
  H        1.6599860    -1.3369460    -0.8763220
  H        2.4145620     1.0741370    -0.8814520
  H        3.5546530     0.0364140    -0.0000210
  H        2.4145820     1.0741970     0.8813660
  H       -2.9679600    -0.9049730    -0.0000050
  H       -2.3195540     1.8284960    -0.0000070
units angstrom
no_reorient  #important for SAPT in psi4, default
symmetry c1  #important for SAPT in psi4, default
}

set PROPERTIES_ORIGIN ["COM"]
properties('MP2/aug-cc-pvtz', properties = ['dipole'])
--------------------------------------------------------------------------

    Molecular point group: c1
  Charge       = 0
  Multiplicity = 1
  Basis Set: AUG-CC-PVTZ
    Blend: AUG-CC-PVTZ
  Basis Set: (AUG-CC-PVTZ AUX)
    Blend: AUG-CC-PVTZ-JKFIT

    Orbital Energies [Eh]
    ---------------------

    Doubly Occupied:

       1A    -20.655504     2A    -15.555149     3A    -11.337295
       4A    -11.288504     5A    -11.267123     6A    -11.246692
       7A    -11.215865     8A     -1.540468     9A     -1.238070
      10A     -1.067710    11A     -1.000391    12A     -0.873839
      13A     -0.843690    14A     -0.797548    15A     -0.723884
      16A     -0.695804    17A     -0.627238    18A     -0.607391
      19A     -0.596849    20A     -0.567399    21A     -0.520552
      22A     -0.497105    23A     -0.486215    24A     -0.466571
      25A     -0.454746    26A     -0.337073

  @DF-RHF Final Energy:  -322.80959299951206

   => Energetics <=

    Nuclear Repulsion Energy =            293.6350964401248120
    One-Electron Energy =               -1019.8720305818579845
    Two-Electron Energy =                 403.4273411422211097
    Total Energy =                       -322.8095929995120628
  Basis Set: (AUG-CC-PVTZ AUX)
    Blend: AUG-CC-PVTZ-RI
    Molecular point group: c1

    Geometry (in Angstrom), charge = 0, multiplicity = 1:

       Center              X                  Y                   Z               Mass
    ------------   -----------------  -----------------  -----------------  -----------------
         O           -0.805570841984    -1.096434307853    -0.000011967582    15.994914619570
         N           -0.215740841984     1.067619692147     0.000018032418    14.003074004430
         C            1.602710158016    -0.683698307853     0.000025032418    12.000000000000
         C            0.072072558016    -0.207672207853     0.000001432418    12.000000000000
         C            2.621612158016     0.451545692147    -0.000022967582    12.000000000000
         C           -1.955864841984    -0.349917307853    -0.000012967582    12.000000000000
         C           -1.602011841984     0.963619692147     0.000005032418    12.000000000000
         H            1.741829158016    -1.327931307853     0.876433032418     1.007825032230
         H            1.741830158016    -1.328012307853    -0.876321967582     1.007825032230
         H            2.496406158016     1.083070692147    -0.881451967582     1.007825032230
         H            3.636497158016     0.045347692147    -0.000020967582     1.007825032230
         H            2.496426158016     1.083130692147     0.881366032418     1.007825032230
         H           -2.886115841984    -0.896039307853    -0.000004967582     1.007825032230
         H           -2.237709841984     1.837429692147    -0.000006967582     1.007825032230

  Basis Set: AUG-CC-PVTZ
    Blend: AUG-CC-PVTZ
  Basis Set: (AUG-CC-PVTZ AUX)
    Blend: AUG-CC-PVTZ-JKFIT
	 Reference Energy          =    -322.8095929995120628 [Eh]
	 Singles Energy            =      -0.0000000000000000 [Eh]
	 Same-Spin Energy          =      -0.3342359998545250 [Eh]
	 Opposite-Spin Energy      =      -1.0588428040654481 [Eh]
	 Correlation Energy        =      -1.3930788039199731 [Eh]
	 Total Energy              =    -324.2026718034320538 [Eh]

	 ================> DF-SCS-MP2 Energies <==================
	-----------------------------------------------------------
	 SCS Same-Spin Scale       =       0.3333333333333333 [-]
	 SCS Opposite-Spin Scale   =       1.2000000000000000 [-]
	 SCS Same-Spin Energy      =      -0.1114119999515083 [Eh]
	 SCS Opposite-Spin Energy  =      -1.2706113648785375 [Eh]
	 SCS Correlation Energy    =      -1.3820233648300460 [Eh]
	 SCS Total Energy          =    -324.1916163643421100 [Eh]
	-----------------------------------------------------------

  Dipole Moment: [D]
     X:    -0.7929      Y:    -1.2932      Z:    -0.0000     Total:     1.5169

*** Psi4 exiting successfully. Buy a developer a beer!
