                               Psi4 1.3.2 release

  ==> Input File <==

--------------------------------------------------------------------------
#psi4
#
memory 32 gb

molecule  {
0 1
  O       -0.8874150    -1.1053680    -0.0000120
  N       -0.2975850     1.0586860     0.0000180
  C        1.5208660    -0.6926320     0.0000250
  C        0.1649137    -0.1641389     0.0000036
  C        2.5397680     0.4426120    -0.0000230
  C       -2.0377090    -0.3588510    -0.0000130
  C       -1.6838560     0.9546860     0.0000050
  H        1.6599850    -1.3368650     0.8764330
  H        1.6599860    -1.3369460    -0.8763220
  H        2.4145620     1.0741370    -0.8814520
  H        3.5546530     0.0364140    -0.0000210
  H        2.4145820     1.0741970     0.8813660
  H       -2.9679600    -0.9049730    -0.0000050
  H       -2.3195540     1.8284960    -0.0000070
units angstrom
no_reorient  #important for SAPT in psi4, default
symmetry c1  #important for SAPT in psi4, default
}

set PROPERTIES_ORIGIN ["COM"]
properties('MP2/aug-cc-pvtz', properties = ['dipole'])
--------------------------------------------------------------------------

    Molecular point group: c1
  Charge       = 0
  Multiplicity = 1
  Basis Set: AUG-CC-PVTZ
    Blend: AUG-CC-PVTZ
  Basis Set: (AUG-CC-PVTZ AUX)
    Blend: AUG-CC-PVTZ-JKFIT

    Orbital Energies [Eh]
    ---------------------

    Doubly Occupied:

       1A    -20.626493     2A    -15.563043     3A    -11.338843
       4A    -11.291609     5A    -11.258816     6A    -11.248962
       7A    -11.222651     8A     -1.458383     9A     -1.223535
      10A     -1.089378    11A     -0.995794    12A     -0.889115
      13A     -0.822732    14A     -0.774238    15A     -0.715147
      16A     -0.662145    17A     -0.632476    18A     -0.607283
      19A     -0.591670    20A     -0.564546    21A     -0.526973
      22A     -0.520723    23A     -0.507591    24A     -0.453037
      25A     -0.448107    26A     -0.330078

  @DF-RHF Final Energy:  -322.82221387740537

   => Energetics <=

    Nuclear Repulsion Energy =            292.0023965138053086
    One-Electron Energy =               -1016.9224930197103731
    Two-Electron Energy =                 402.0978826284997467
    Total Energy =                       -322.8222138774053747
  Basis Set: (AUG-CC-PVTZ AUX)
    Blend: AUG-CC-PVTZ-RI
    Molecular point group: c1

    Geometry (in Angstrom), charge = 0, multiplicity = 1:

       Center              X                  Y                   Z               Mass
    ------------   -----------------  -----------------  -----------------  -----------------
         O           -0.827169645736    -1.102921541962    -0.000012239599    15.994914619570
         N           -0.237339645736     1.061132458038     0.000017760401    14.003074004430
         C            1.581111354264    -0.690185541962     0.000024760401    12.000000000000
         C            0.225159054264    -0.161692441962     0.000003360401    12.000000000000
         C            2.600013354264     0.445058458038    -0.000023239599    12.000000000000
         C           -1.977463645736    -0.356404541962    -0.000013239599    12.000000000000
         C           -1.623610645736     0.957132458038     0.000004760401    12.000000000000
         H            1.720230354264    -1.334418541962     0.876432760401     1.007825032230
         H            1.720231354264    -1.334499541962    -0.876322239599     1.007825032230
         H            2.474807354264     1.076583458038    -0.881452239599     1.007825032230
         H            3.614898354264     0.038860458038    -0.000021239599     1.007825032230
         H            2.474827354264     1.076643458038     0.881365760401     1.007825032230
         H           -2.907714645736    -0.902526541962    -0.000005239599     1.007825032230
         H           -2.259308645736     1.830942458038    -0.000007239599     1.007825032230

  Basis Set: AUG-CC-PVTZ
    Blend: AUG-CC-PVTZ
  Basis Set: (AUG-CC-PVTZ AUX)
    Blend: AUG-CC-PVTZ-JKFIT
	 Reference Energy          =    -322.8222138774053747 [Eh]
	 Singles Energy            =      -0.0000000000000000 [Eh]
	 Same-Spin Energy          =      -0.3366181145747609 [Eh]
	 Opposite-Spin Energy      =      -1.0635310062088190 [Eh]
	 Correlation Energy        =      -1.4001491207835799 [Eh]
	 Total Energy              =    -324.2223629981889417 [Eh]

	 ================> DF-SCS-MP2 Energies <==================
	-----------------------------------------------------------
	 SCS Same-Spin Scale       =       0.3333333333333333 [-]
	 SCS Opposite-Spin Scale   =       1.2000000000000000 [-]
	 SCS Same-Spin Energy      =      -0.1122060381915870 [Eh]
	 SCS Opposite-Spin Energy  =      -1.2762372074505828 [Eh]
	 SCS Correlation Energy    =      -1.3884432456421698 [Eh]
	 SCS Total Energy          =    -324.2106571230475538 [Eh]
	-----------------------------------------------------------

  Dipole Moment: [D]
     X:    -0.2121      Y:    -1.1359      Z:    -0.0000     Total:     1.1555

*** Psi4 exiting successfully. Buy a developer a beer!
