                               Psi4 1.4a3.dev225

  ==> Input File <==

--------------------------------------------------------------------------
#psi4
#
memory 32 gb

molecule  {
0 1
  O       -0.8874150    -1.1053680    -0.0000120
  N       -0.2975850     1.0586860     0.0000180
  C        1.5208660    -0.6926320     0.0000250
  C        0.1219560    -0.1795350     0.0000030
  C        2.5397680     0.4426120    -0.0000230
  C       -2.0377090    -0.3588510    -0.0000130
  C       -1.7038000     0.9531898     0.0000048
  H        1.6599850    -1.3368650     0.8764330
  H        1.6599860    -1.3369460    -0.8763220
  H        2.4145620     1.0741370    -0.8814520
  H        3.5546530     0.0364140    -0.0000210
  H        2.4145820     1.0741970     0.8813660
  H       -2.9679600    -0.9049730    -0.0000050
  H       -2.3195540     1.8284960    -0.0000070
units angstrom
no_reorient  #important for SAPT in psi4, default
symmetry c1  #important for SAPT in psi4, default
}

set PROPERTIES_ORIGIN ["COM"]
properties('MP2/aug-cc-pvtz', properties = ['dipole'])
--------------------------------------------------------------------------

    Molecular point group: c1
  Charge       = 0
  Multiplicity = 1
  Basis Set: AUG-CC-PVTZ
    Blend: AUG-CC-PVTZ
  Basis Set: (AUG-CC-PVTZ AUX)
    Blend: AUG-CC-PVTZ-JKFIT

    Orbital Energies [Eh]
    ---------------------

    Doubly Occupied:

       1A    -20.633711     2A    -15.560975     3A    -11.337484
       4A    -11.291521     5A    -11.260328     6A    -11.248717
       7A    -11.220651     8A     -1.475854     9A     -1.220914
      10A     -1.082624    11A     -0.998709    12A     -0.884843
      13A     -0.827506    14A     -0.778217    15A     -0.717502
      16A     -0.666731    17A     -0.630143    18A     -0.609106
      19A     -0.585332    20A     -0.573750    21A     -0.526560
      22A     -0.514278    23A     -0.504844    24A     -0.455303
      25A     -0.446221    26A     -0.335043

  @DF-RHF Final Energy:  -322.82704097806823

   => Energetics <=

    Nuclear Repulsion Energy =            292.0631474245172967
    One-Electron Energy =               -1017.0066442115363543
    Two-Electron Energy =                 402.1164558089508319
    Total Energy =                       -322.8270409780682257
  Basis Set: (AUG-CC-PVTZ AUX)
    Blend: AUG-CC-PVTZ-RI
    Molecular point group: c1

    Geometry (in Angstrom), charge = 0, multiplicity = 1:

       Center              X                  Y                   Z               Mass
    ------------   -----------------  -----------------  -----------------  -----------------
         O           -0.819392222713    -1.100832909017    -0.000012140684    15.994914619570
         N           -0.229562222713     1.063221090983     0.000017859316    14.003074004430
         C            1.588888777287    -0.688096909017     0.000024859316    12.000000000000
         C            0.189978777287    -0.174999909017     0.000002859316    12.000000000000
         C            2.607790777287     0.447147090983    -0.000023140684    12.000000000000
         C           -1.969686222713    -0.354315909017    -0.000013140684    12.000000000000
         C           -1.635777222713     0.957724890983     0.000004659316    12.000000000000
         H            1.728007777287    -1.332329909017     0.876432859316     1.007825032230
         H            1.728008777287    -1.332410909017    -0.876322140684     1.007825032230
         H            2.482584777287     1.078672090983    -0.881452140684     1.007825032230
         H            3.622675777287     0.040949090983    -0.000021140684     1.007825032230
         H            2.482604777287     1.078732090983     0.881365859316     1.007825032230
         H           -2.899937222713    -0.900437909017    -0.000005140684     1.007825032230
         H           -2.251531222713     1.833031090983    -0.000007140684     1.007825032230

  Basis Set: AUG-CC-PVTZ
    Blend: AUG-CC-PVTZ
  Basis Set: (AUG-CC-PVTZ AUX)
    Blend: AUG-CC-PVTZ-JKFIT
	 Reference Energy          =    -322.8270409780682257 [Eh]
	 Singles Energy            =      -0.0000000000000000 [Eh]
	 Same-Spin Energy          =      -0.3354368501813200 [Eh]
	 Opposite-Spin Energy      =      -1.0618021468196903 [Eh]
	 Correlation Energy        =      -1.3972389970010104 [Eh]
	 Total Energy              =    -324.2242799750692370 [Eh]

	 ================> DF-SCS-MP2 Energies <==================
	-----------------------------------------------------------
	 SCS Same-Spin Scale       =       0.3333333333333333 [-]
	 SCS Opposite-Spin Scale   =       1.2000000000000000 [-]
	 SCS Same-Spin Energy      =      -0.1118122833937733 [Eh]
	 SCS Opposite-Spin Energy  =      -1.2741625761836284 [Eh]
	 SCS Correlation Energy    =      -1.3859748595774017 [Eh]
	 SCS Total Energy          =    -324.2130158376456279 [Eh]
	-----------------------------------------------------------

  Dipole Moment: [D]
     X:    -0.3803      Y:    -1.1781      Z:    -0.0000     Total:     1.2379

*** Psi4 exiting successfully. Buy a developer a beer!
