                               Psi4 1.3.2 release

  ==> Input File <==

--------------------------------------------------------------------------
#psi4
#
memory 32 gb

molecule  {
0 1
  O       -0.9422915    -1.1837900    -0.0000134
  N       -0.2975850     1.0586860     0.0000180
  C        1.5208660    -0.6926320     0.0000250
  C        0.1219560    -0.1795350     0.0000030
  C        2.5397680     0.4426120    -0.0000230
  C       -2.0377090    -0.3588510    -0.0000130
  C       -1.6838560     0.9546860     0.0000050
  H        1.6599850    -1.3368650     0.8764330
  H        1.6599860    -1.3369460    -0.8763220
  H        2.4145620     1.0741370    -0.8814520
  H        3.5546530     0.0364140    -0.0000210
  H        2.4145820     1.0741970     0.8813660
  H       -2.9679600    -0.9049730    -0.0000050
  H       -2.3195540     1.8284960    -0.0000070
units angstrom
no_reorient  #important for SAPT in psi4, default
symmetry c1  #important for SAPT in psi4, default
}

set PROPERTIES_ORIGIN ["COM"]
properties('MP2/aug-cc-pvtz', properties = ['dipole'])
--------------------------------------------------------------------------

    Molecular point group: c1
  Charge       = 0
  Multiplicity = 1
  Basis Set: AUG-CC-PVTZ
    Blend: AUG-CC-PVTZ
  Basis Set: (AUG-CC-PVTZ AUX)
    Blend: AUG-CC-PVTZ-JKFIT

    Orbital Energies [Eh]
    ---------------------

    Doubly Occupied:

       1A    -20.631898     2A    -15.572324     3A    -11.346215
       4A    -11.292990     5A    -11.260241     6A    -11.250896
       7A    -11.222745     8A     -1.446737     9A     -1.235393
      10A     -1.079904    11A     -0.990679    12A     -0.885841
      13A     -0.821297    14A     -0.775138    15A     -0.710688
      16A     -0.655457    17A     -0.619872    18A     -0.606215
      19A     -0.588921    20A     -0.574256    21A     -0.523719
      22A     -0.515947    23A     -0.506845    24A     -0.464360
      25A     -0.457365    26A     -0.328755

  @DF-RHF Final Energy:  -322.81378270455980

   => Energetics <=

    Nuclear Repulsion Energy =            289.8559760491974089
    One-Electron Energy =               -1012.6101227842096932
    Two-Electron Energy =                 399.9403640304524288
    Total Energy =                       -322.8137827045597987
  Basis Set: (AUG-CC-PVTZ AUX)
    Blend: AUG-CC-PVTZ-RI
    Molecular point group: c1

    Geometry (in Angstrom), charge = 0, multiplicity = 1:

       Center              X                  Y                   Z               Mass
    ------------   -----------------  -----------------  -----------------  -----------------
         O           -0.867690683029    -1.166515459409    -0.000013334684    15.994914619570
         N           -0.222984183029     1.075960540591     0.000018065316    14.003074004430
         C            1.595466816971    -0.675357459409     0.000025065316    12.000000000000
         C            0.196556816971    -0.162260459409     0.000003065316    12.000000000000
         C            2.614368816971     0.459886540591    -0.000022934684    12.000000000000
         C           -1.963108183029    -0.341576459409    -0.000012934684    12.000000000000
         C           -1.609255183029     0.971960540591     0.000005065316    12.000000000000
         H            1.734585816971    -1.319590459409     0.876433065316     1.007825032230
         H            1.734586816971    -1.319671459409    -0.876321934684     1.007825032230
         H            2.489162816971     1.091411540591    -0.881451934684     1.007825032230
         H            3.629253816971     0.053688540591    -0.000020934684     1.007825032230
         H            2.489182816971     1.091471540591     0.881366065316     1.007825032230
         H           -2.893359183029    -0.887698459409    -0.000004934684     1.007825032230
         H           -2.244953183029     1.845770540591    -0.000006934684     1.007825032230

  Basis Set: AUG-CC-PVTZ
    Blend: AUG-CC-PVTZ
  Basis Set: (AUG-CC-PVTZ AUX)
    Blend: AUG-CC-PVTZ-JKFIT
	 Reference Energy          =    -322.8137827045597987 [Eh]
	 Singles Energy            =      -0.0000000000000000 [Eh]
	 Same-Spin Energy          =      -0.3370244734960588 [Eh]
	 Opposite-Spin Energy      =      -1.0663189588567925 [Eh]
	 Correlation Energy        =      -1.4033434323528513 [Eh]
	 Total Energy              =    -324.2171261369126682 [Eh]

	 ================> DF-SCS-MP2 Energies <==================
	-----------------------------------------------------------
	 SCS Same-Spin Scale       =       0.3333333333333333 [-]
	 SCS Opposite-Spin Scale   =       1.2000000000000000 [-]
	 SCS Same-Spin Energy      =      -0.1123414911653529 [Eh]
	 SCS Opposite-Spin Energy  =      -1.2795827506281510 [Eh]
	 SCS Correlation Energy    =      -1.3919242417935038 [Eh]
	 SCS Total Energy          =    -324.2057069463533026 [Eh]
	-----------------------------------------------------------

  Dipole Moment: [D]
     X:    -0.1511      Y:    -0.9158      Z:     0.0000     Total:     0.9281

*** Psi4 exiting successfully. Buy a developer a beer!
