                               Psi4 1.3.2 release

  ==> Input File <==

--------------------------------------------------------------------------
#psi4
#
memory 32 gb

molecule  {
0 1
  O       -0.8874150    -1.1053680    -0.0000120
  N       -0.2975850     1.0586860     0.0000180
  C        1.5208660    -0.6926320     0.0000250
  C        0.0280719    -0.1450999     0.0000015
  C        2.5397680     0.4426120    -0.0000230
  C       -2.0377090    -0.3588510    -0.0000130
  C       -1.6838560     0.9546860     0.0000050
  H        1.6599850    -1.3368650     0.8764330
  H        1.6599860    -1.3369460    -0.8763220
  H        2.4145620     1.0741370    -0.8814520
  H        3.5546530     0.0364140    -0.0000210
  H        2.4145820     1.0741970     0.8813660
  H       -2.9679600    -0.9049730    -0.0000050
  H       -2.3195540     1.8284960    -0.0000070
units angstrom
no_reorient  #important for SAPT in psi4, default
symmetry c1  #important for SAPT in psi4, default
}

set PROPERTIES_ORIGIN ["COM"]
properties('MP2/aug-cc-pvtz', properties = ['dipole'])
--------------------------------------------------------------------------

    Molecular point group: c1
  Charge       = 0
  Multiplicity = 1
  Basis Set: AUG-CC-PVTZ
    Blend: AUG-CC-PVTZ
  Basis Set: (AUG-CC-PVTZ AUX)
    Blend: AUG-CC-PVTZ-JKFIT

    Orbital Energies [Eh]
    ---------------------

    Doubly Occupied:

       1A    -20.640651     2A    -15.557040     3A    -11.331654
       4A    -11.292562     5A    -11.265111     6A    -11.246434
       7A    -11.215834     8A     -1.501817     9A     -1.256807
      10A     -1.066228    11A     -0.998617    12A     -0.872167
      13A     -0.837190    14A     -0.788922    15A     -0.721096
      16A     -0.677571    17A     -0.625741    18A     -0.606408
      19A     -0.586109    20A     -0.577412    21A     -0.518097
      22A     -0.497989    23A     -0.497836    24A     -0.466005
      25A     -0.463890    26A     -0.340929

  @DF-RHF Final Energy:  -322.81893909279444

   => Energetics <=

    Nuclear Repulsion Energy =            293.3905213979418818
    One-Electron Energy =               -1019.5186854843797164
    Two-Electron Energy =                 403.3092249936434541
    Total Energy =                       -322.8189390927944373
  Basis Set: (AUG-CC-PVTZ AUX)
    Blend: AUG-CC-PVTZ-RI
    Molecular point group: c1

    Geometry (in Angstrom), charge = 0, multiplicity = 1:

       Center              X                  Y                   Z               Mass
    ------------   -----------------  -----------------  -----------------  -----------------
         O           -0.810249966843    -1.105275601660    -0.000011979947    15.994914619570
         N           -0.220419966843     1.058778398340     0.000018020053    14.003074004430
         C            1.598031033157    -0.692539601660     0.000025020053    12.000000000000
         C            0.105236933157    -0.145007501660     0.000001520053    12.000000000000
         C            2.616933033157     0.442704398340    -0.000022979947    12.000000000000
         C           -1.960543966843    -0.358758601660    -0.000012979947    12.000000000000
         C           -1.606690966843     0.954778398340     0.000005020053    12.000000000000
         H            1.737150033157    -1.336772601660     0.876433020053     1.007825032230
         H            1.737151033157    -1.336853601660    -0.876321979947     1.007825032230
         H            2.491727033157     1.074229398340    -0.881451979947     1.007825032230
         H            3.631818033157     0.036506398340    -0.000020979947     1.007825032230
         H            2.491747033157     1.074289398340     0.881366020053     1.007825032230
         H           -2.890794966843    -0.904880601660    -0.000004979947     1.007825032230
         H           -2.242388966843     1.828588398340    -0.000006979947     1.007825032230

  Basis Set: AUG-CC-PVTZ
    Blend: AUG-CC-PVTZ
  Basis Set: (AUG-CC-PVTZ AUX)
    Blend: AUG-CC-PVTZ-JKFIT
	 Reference Energy          =    -322.8189390927944373 [Eh]
	 Singles Energy            =      -0.0000000000000000 [Eh]
	 Same-Spin Energy          =      -0.3336971742341335 [Eh]
	 Opposite-Spin Energy      =      -1.0588674531286082 [Eh]
	 Correlation Energy        =      -1.3925646273627417 [Eh]
	 Total Energy              =    -324.2115037201571681 [Eh]

	 ================> DF-SCS-MP2 Energies <==================
	-----------------------------------------------------------
	 SCS Same-Spin Scale       =       0.3333333333333333 [-]
	 SCS Opposite-Spin Scale   =       1.2000000000000000 [-]
	 SCS Same-Spin Energy      =      -0.1112323914113778 [Eh]
	 SCS Opposite-Spin Energy  =      -1.2706409437543298 [Eh]
	 SCS Correlation Energy    =      -1.3818733351657075 [Eh]
	 SCS Total Energy          =    -324.2008124279601589 [Eh]
	-----------------------------------------------------------

  Dipole Moment: [D]
     X:    -0.6682      Y:    -1.0874      Z:    -0.0000     Total:     1.2763

*** Psi4 exiting successfully. Buy a developer a beer!
