                               Psi4 1.4a3.dev225

  ==> Input File <==

--------------------------------------------------------------------------
#psi4
#
memory 32 gb

molecule  {
0 1
  O       -0.8874150    -1.1053680    -0.0000120
  N       -0.2975850     1.0586860     0.0000180
  C        1.5208660    -0.6926320     0.0000250
  C        0.1219560    -0.1795350     0.0000030
  C        2.5397680     0.4426120    -0.0000230
  C       -2.0377090    -0.3588510    -0.0000130
  C       -1.6838560     0.9546860     0.0000050
  H        1.6599850    -1.3368650     0.8764330
  H        1.6599860    -1.3369460    -0.8763220
  H        2.4145620     1.0741370    -0.8814520
  H        3.5546530     0.0364140    -0.0000210
  H        2.4145820     1.0741970     0.8813660
  H       -2.9679600    -0.9049730    -0.0000050
  H       -2.3077881     1.8123230    -0.0000068
units angstrom
no_reorient  #important for SAPT in psi4, default
symmetry c1  #important for SAPT in psi4, default
}

set PROPERTIES_ORIGIN ["COM"]
properties('MP2/aug-cc-pvtz', properties = ['dipole'])
--------------------------------------------------------------------------

    Molecular point group: c1
  Charge       = 0
  Multiplicity = 1
  Basis Set: AUG-CC-PVTZ
    Blend: AUG-CC-PVTZ
  Basis Set: (AUG-CC-PVTZ AUX)
    Blend: AUG-CC-PVTZ-JKFIT

    Orbital Energies [Eh]
    ---------------------

    Doubly Occupied:

       1A    -20.634196     2A    -15.560542     3A    -11.337671
       4A    -11.290753     5A    -11.258442     6A    -11.248704
       7A    -11.220803     8A     -1.476492     9A     -1.226268
      10A     -1.082781    11A     -0.997453    12A     -0.884459
      13A     -0.829203    14A     -0.780502    15A     -0.718430
      16A     -0.667121    17A     -0.631401    18A     -0.609147
      19A     -0.586981    20A     -0.572787    21A     -0.526714
      22A     -0.514708    23A     -0.504916    24A     -0.456968
      25A     -0.449333    26A     -0.331993

  @DF-RHF Final Energy:  -322.82716638495606

   => Energetics <=

    Nuclear Repulsion Energy =            292.4457778801518657
    One-Electron Energy =               -1017.7483508854155616
    Two-Electron Energy =                 402.4754066203075809
    Total Energy =                       -322.8271663849560582
  Basis Set: (AUG-CC-PVTZ AUX)
    Blend: AUG-CC-PVTZ-RI
    Molecular point group: c1

    Geometry (in Angstrom), charge = 0, multiplicity = 1:

       Center              X                  Y                   Z               Mass
    ------------   -----------------  -----------------  -----------------  -----------------
         O           -0.821980360944    -1.100849960007    -0.000012167490    15.994914619570
         N           -0.232150360944     1.063204039993     0.000017832510    14.003074004430
         C            1.586300639056    -0.688113960007     0.000024832510    12.000000000000
         C            0.187390639056    -0.175016960007     0.000002832510    12.000000000000
         C            2.605202639056     0.447130039993    -0.000023167490    12.000000000000
         C           -1.972274360944    -0.354332960007    -0.000013167490    12.000000000000
         C           -1.618421360944     0.959204039993     0.000004832510    12.000000000000
         H            1.725419639056    -1.332346960007     0.876432832510     1.007825032230
         H            1.725420639056    -1.332427960007    -0.876322167490     1.007825032230
         H            2.479996639056     1.078655039993    -0.881452167490     1.007825032230
         H            3.620087639056     0.040932039993    -0.000021167490     1.007825032230
         H            2.480016639056     1.078715039993     0.881365832510     1.007825032230
         H           -2.902525360944    -0.900454960007    -0.000005167490     1.007825032230
         H           -2.242353460944     1.816841039993    -0.000006967490     1.007825032230

  Basis Set: AUG-CC-PVTZ
    Blend: AUG-CC-PVTZ
  Basis Set: (AUG-CC-PVTZ AUX)
    Blend: AUG-CC-PVTZ-JKFIT
	 Reference Energy          =    -322.8271663849560582 [Eh]
	 Singles Energy            =      -0.0000000000000000 [Eh]
	 Same-Spin Energy          =      -0.3357361410548489 [Eh]
	 Opposite-Spin Energy      =      -1.0617897086477668 [Eh]
	 Correlation Energy        =      -1.3975258497026157 [Eh]
	 Total Energy              =    -324.2246922346586757 [Eh]

	 ================> DF-SCS-MP2 Energies <==================
	-----------------------------------------------------------
	 SCS Same-Spin Scale       =       0.3333333333333333 [-]
	 SCS Opposite-Spin Scale   =       1.2000000000000000 [-]
	 SCS Same-Spin Energy      =      -0.1119120470182830 [Eh]
	 SCS Opposite-Spin Energy  =      -1.2741476503773201 [Eh]
	 SCS Correlation Energy    =      -1.3860596973956032 [Eh]
	 SCS Total Energy          =    -324.2132260823516390 [Eh]
	-----------------------------------------------------------

  Dipole Moment: [D]
     X:    -0.3711      Y:    -1.1846      Z:    -0.0000     Total:     1.2413

*** Psi4 exiting successfully. Buy a developer a beer!
