                               Psi4 1.4a3.dev225

  ==> Input File <==

--------------------------------------------------------------------------
#psi4
#
memory 32 gb

molecule  {
0 1
  O       -0.8874150    -1.1053680    -0.0000120
  N       -0.2975850     1.0586860     0.0000180
  C        1.5208660    -0.6926320     0.0000250
  C        0.1219560    -0.1795350     0.0000030
  C        2.5397680     0.4426120    -0.0000230
  C       -2.0544857    -0.3479633    -0.0000130
  C       -1.6838560     0.9546860     0.0000050
  H        1.6599850    -1.3368650     0.8764330
  H        1.6599860    -1.3369460    -0.8763220
  H        2.4145620     1.0741370    -0.8814520
  H        3.5546530     0.0364140    -0.0000210
  H        2.4145820     1.0741970     0.8813660
  H       -2.9679600    -0.9049730    -0.0000050
  H       -2.3195540     1.8284960    -0.0000070
units angstrom
no_reorient  #important for SAPT in psi4, default
symmetry c1  #important for SAPT in psi4, default
}

set PROPERTIES_ORIGIN ["COM"]
properties('MP2/aug-cc-pvtz', properties = ['dipole'])
--------------------------------------------------------------------------

    Molecular point group: c1
  Charge       = 0
  Multiplicity = 1
  Basis Set: AUG-CC-PVTZ
    Blend: AUG-CC-PVTZ
  Basis Set: (AUG-CC-PVTZ AUX)
    Blend: AUG-CC-PVTZ-JKFIT

    Orbital Energies [Eh]
    ---------------------

    Doubly Occupied:

       1A    -20.631486     2A    -15.560152     3A    -11.338649
       4A    -11.290112     5A    -11.261735     6A    -11.248877
       7A    -11.220893     8A     -1.469154     9A     -1.225063
      10A     -1.082785    11A     -0.998390    12A     -0.884422
      13A     -0.826540    14A     -0.778495    15A     -0.716123
      16A     -0.664477    17A     -0.630931    18A     -0.607741
      19A     -0.585382    20A     -0.571397    21A     -0.526466
      22A     -0.514798    23A     -0.504871    24A     -0.456904
      25A     -0.448901    26A     -0.334565

  @DF-RHF Final Energy:  -322.82661857831584

   => Energetics <=

    Nuclear Repulsion Energy =            292.0297267076012417
    One-Electron Energy =               -1016.9540712841226195
    Two-Electron Energy =                 402.0977259982055898
    Total Energy =                       -322.8266185783158448
  Basis Set: (AUG-CC-PVTZ AUX)
    Blend: AUG-CC-PVTZ-RI
    Molecular point group: c1

    Geometry (in Angstrom), charge = 0, multiplicity = 1:

       Center              X                  Y                   Z               Mass
    ------------   -----------------  -----------------  -----------------  -----------------
         O           -0.819783840618    -1.102364104977    -0.000012165413    15.994914619570
         N           -0.229953840618     1.061689895023     0.000017834587    14.003074004430
         C            1.588497159382    -0.689628104977     0.000024834587    12.000000000000
         C            0.189587159382    -0.176531104977     0.000002834587    12.000000000000
         C            2.607399159382     0.445615895023    -0.000023165413    12.000000000000
         C           -1.986854540618    -0.344959404977    -0.000013165413    12.000000000000
         C           -1.616224840618     0.957689895023     0.000004834587    12.000000000000
         H            1.727616159382    -1.333861104977     0.876432834587     1.007825032230
         H            1.727617159382    -1.333942104977    -0.876322165413     1.007825032230
         H            2.482193159382     1.077140895023    -0.881452165413     1.007825032230
         H            3.622284159382     0.039417895023    -0.000021165413     1.007825032230
         H            2.482213159382     1.077200895023     0.881365834587     1.007825032230
         H           -2.900328840618    -0.901969104977    -0.000005165413     1.007825032230
         H           -2.251922840618     1.831499895023    -0.000007165413     1.007825032230

  Basis Set: AUG-CC-PVTZ
    Blend: AUG-CC-PVTZ
  Basis Set: (AUG-CC-PVTZ AUX)
    Blend: AUG-CC-PVTZ-JKFIT
	 Reference Energy          =    -322.8266185783158448 [Eh]
	 Singles Energy            =      -0.0000000000000000 [Eh]
	 Same-Spin Energy          =      -0.3355978773850129 [Eh]
	 Opposite-Spin Energy      =      -1.0619740259709103 [Eh]
	 Correlation Energy        =      -1.3975719033559231 [Eh]
	 Total Energy              =    -324.2241904816717692 [Eh]

	 ================> DF-SCS-MP2 Energies <==================
	-----------------------------------------------------------
	 SCS Same-Spin Scale       =       0.3333333333333333 [-]
	 SCS Opposite-Spin Scale   =       1.2000000000000000 [-]
	 SCS Same-Spin Energy      =      -0.1118659591283376 [Eh]
	 SCS Opposite-Spin Energy  =      -1.2743688311650923 [Eh]
	 SCS Correlation Energy    =      -1.3862347902934298 [Eh]
	 SCS Total Energy          =    -324.2128533686092737 [Eh]
	-----------------------------------------------------------

  Dipole Moment: [D]
     X:    -0.3849      Y:    -1.1587      Z:    -0.0000     Total:     1.2210

*** Psi4 exiting successfully. Buy a developer a beer!
