                               Psi4 1.3.2 release

  ==> Input File <==

--------------------------------------------------------------------------
#psi4
#
memory 32 gb

molecule  {
0 1
  O       -0.8203734    -1.1735229    -0.0000109
  N       -0.2975850     1.0586860     0.0000180
  C        1.5208660    -0.6926320     0.0000250
  C        0.1219560    -0.1795350     0.0000030
  C        2.5397680     0.4426120    -0.0000230
  C       -2.0377090    -0.3588510    -0.0000130
  C       -1.6838560     0.9546860     0.0000050
  H        1.6599850    -1.3368650     0.8764330
  H        1.6599860    -1.3369460    -0.8763220
  H        2.4145620     1.0741370    -0.8814520
  H        3.5546530     0.0364140    -0.0000210
  H        2.4145820     1.0741970     0.8813660
  H       -2.9679600    -0.9049730    -0.0000050
  H       -2.3195540     1.8284960    -0.0000070
units angstrom
no_reorient  #important for SAPT in psi4, default
symmetry c1  #important for SAPT in psi4, default
}

set PROPERTIES_ORIGIN ["COM"]
properties('MP2/aug-cc-pvtz', properties = ['dipole'])
--------------------------------------------------------------------------

    Molecular point group: c1
  Charge       = 0
  Multiplicity = 1
  Basis Set: AUG-CC-PVTZ
    Blend: AUG-CC-PVTZ
  Basis Set: (AUG-CC-PVTZ AUX)
    Blend: AUG-CC-PVTZ-JKFIT

    Orbital Energies [Eh]
    ---------------------

    Doubly Occupied:

       1A    -20.633450     2A    -15.561484     3A    -11.341846
       4A    -11.297086     5A    -11.271750     6A    -11.245348
       7A    -11.218703     8A     -1.450748     9A     -1.229244
      10A     -1.079820    11A     -0.994023    12A     -0.883468
      13A     -0.822690    14A     -0.773039    15A     -0.710133
      16A     -0.659031    17A     -0.623761    18A     -0.601318
      19A     -0.587739    20A     -0.580262    21A     -0.519491
      22A     -0.511937    23A     -0.502370    24A     -0.457903
      25A     -0.454254    26A     -0.337494

  @DF-RHF Final Energy:  -322.81633669256149

   => Energetics <=

    Nuclear Repulsion Energy =            290.7196250546583656
    One-Electron Energy =               -1014.3751398413957077
    Two-Electron Energy =                 400.8391780941757929
    Total Energy =                       -322.8163366925614923
  Basis Set: (AUG-CC-PVTZ AUX)
    Blend: AUG-CC-PVTZ-RI
    Molecular point group: c1

    Geometry (in Angstrom), charge = 0, multiplicity = 1:

       Center              X                  Y                   Z               Mass
    ------------   -----------------  -----------------  -----------------  -----------------
         O           -0.765865463671    -1.157940442987    -0.000011246700    15.994914619570
         N           -0.243077063671     1.074268457013     0.000017653300    14.003074004430
         C            1.575373936329    -0.677049542987     0.000024653300    12.000000000000
         C            0.176463936329    -0.163952542987     0.000002653300    12.000000000000
         C            2.594275936329     0.458194457013    -0.000023346700    12.000000000000
         C           -1.983201063671    -0.343268542987    -0.000013346700    12.000000000000
         C           -1.629348063671     0.970268457013     0.000004653300    12.000000000000
         H            1.714492936329    -1.321282542987     0.876432653300     1.007825032230
         H            1.714493936329    -1.321363542987    -0.876322346700     1.007825032230
         H            2.469069936329     1.089719457013    -0.881452346700     1.007825032230
         H            3.609160936329     0.051996457013    -0.000021346700     1.007825032230
         H            2.469089936329     1.089779457013     0.881365653300     1.007825032230
         H           -2.913452063671    -0.889390542987    -0.000005346700     1.007825032230
         H           -2.265046063671     1.844078457013    -0.000007346700     1.007825032230

  Basis Set: AUG-CC-PVTZ
    Blend: AUG-CC-PVTZ
  Basis Set: (AUG-CC-PVTZ AUX)
    Blend: AUG-CC-PVTZ-JKFIT
	 Reference Energy          =    -322.8163366925614923 [Eh]
	 Singles Energy            =      -0.0000000000000000 [Eh]
	 Same-Spin Energy          =      -0.3358372585994258 [Eh]
	 Opposite-Spin Energy      =      -1.0646342770633099 [Eh]
	 Correlation Energy        =      -1.4004715356627357 [Eh]
	 Total Energy              =    -324.2168082282242381 [Eh]

	 ================> DF-SCS-MP2 Energies <==================
	-----------------------------------------------------------
	 SCS Same-Spin Scale       =       0.3333333333333333 [-]
	 SCS Opposite-Spin Scale   =       1.2000000000000000 [-]
	 SCS Same-Spin Energy      =      -0.1119457528664753 [Eh]
	 SCS Opposite-Spin Energy  =      -1.2775611324759719 [Eh]
	 SCS Correlation Energy    =      -1.3895068853424473 [Eh]
	 SCS Total Energy          =    -324.2058435779039200 [Eh]
	-----------------------------------------------------------

  Dipole Moment: [D]
     X:    -0.5442      Y:    -0.9421      Z:    -0.0000     Total:     1.0880

*** Psi4 exiting successfully. Buy a developer a beer!
