                               Psi4 1.3.2 release

  ==> Input File <==

--------------------------------------------------------------------------
#psi4
#
memory 32 gb

molecule  {
0 1
  O       -0.8874150    -1.1053680    -0.0000120
  N       -0.2975850     1.0586860     0.0000180
  C        1.5208660    -0.6926320     0.0000250
  C        0.1219560    -0.1795350     0.0000030
  C        2.5397680     0.4426120    -0.0000230
  C       -2.0377090    -0.3588510    -0.0000130
  C       -1.6838560     0.9546860     0.0000050
  H        1.6599850    -1.3368650     0.8764330
  H        1.6599860    -1.3369460    -0.8763220
  H        2.4145620     1.0741370    -0.8814520
  H        3.5546530     0.0364140    -0.0000210
  H        2.4145820     1.0741970     0.8813660
  H       -2.9679600    -0.9049730    -0.0000050
  H       -2.3783833     1.9093608    -0.0000081
units angstrom
no_reorient  #important for SAPT in psi4, default
symmetry c1  #important for SAPT in psi4, default
}

set PROPERTIES_ORIGIN ["COM"]
properties('MP2/aug-cc-pvtz', properties = ['dipole'])
--------------------------------------------------------------------------

    Molecular point group: c1
  Charge       = 0
  Multiplicity = 1
  Basis Set: AUG-CC-PVTZ
    Blend: AUG-CC-PVTZ
  Basis Set: (AUG-CC-PVTZ AUX)
    Blend: AUG-CC-PVTZ-JKFIT

    Orbital Energies [Eh]
    ---------------------

    Doubly Occupied:

       1A    -20.634854     2A    -15.561731     3A    -11.338551
       4A    -11.291376     5A    -11.271278     6A    -11.249138
       7A    -11.221079     8A     -1.477195     9A     -1.226810
      10A     -1.082548    11A     -0.995991    12A     -0.883244
      13A     -0.822004    14A     -0.779727    15A     -0.711614
      16A     -0.667734    17A     -0.627596    18A     -0.609569
      19A     -0.579372    20A     -0.563143    21A     -0.527065
      22A     -0.514369    23A     -0.505233    24A     -0.457179
      25A     -0.450064    26A     -0.332429

  @DF-RHF Final Energy:  -322.81942411091438

   => Energetics <=

    Nuclear Repulsion Energy =            291.8720360650677890
    One-Electron Energy =               -1016.6211379384573092
    Two-Electron Energy =                 401.9296777624750803
    Total Energy =                       -322.8194241109143832
  Basis Set: (AUG-CC-PVTZ AUX)
    Blend: AUG-CC-PVTZ-RI
    Molecular point group: c1

    Geometry (in Angstrom), charge = 0, multiplicity = 1:

       Center              X                  Y                   Z               Mass
    ------------   -----------------  -----------------  -----------------  -----------------
         O           -0.821247279197    -1.101857629650    -0.000012153990    15.994914619570
         N           -0.231417279197     1.062196370350     0.000017846010    14.003074004430
         C            1.587033720803    -0.689121629650     0.000024846010    12.000000000000
         C            0.188123720803    -0.176024629650     0.000002846010    12.000000000000
         C            2.605935720803     0.446122370350    -0.000023153990    12.000000000000
         C           -1.971541279197    -0.355340629650    -0.000013153990    12.000000000000
         C           -1.617688279197     0.958196370350     0.000004846010    12.000000000000
         H            1.726152720803    -1.333354629650     0.876432846010     1.007825032230
         H            1.726153720803    -1.333435629650    -0.876322153990     1.007825032230
         H            2.480729720803     1.077647370350    -0.881452153990     1.007825032230
         H            3.620820720803     0.039924370350    -0.000021153990     1.007825032230
         H            2.480749720803     1.077707370350     0.881365846010     1.007825032230
         H           -2.901792279197    -0.901462629650    -0.000005153990     1.007825032230
         H           -2.312215579197     1.912871170350    -0.000008253990     1.007825032230

  Basis Set: AUG-CC-PVTZ
    Blend: AUG-CC-PVTZ
  Basis Set: (AUG-CC-PVTZ AUX)
    Blend: AUG-CC-PVTZ-JKFIT
	 Reference Energy          =    -322.8194241109143832 [Eh]
	 Singles Energy            =      -0.0000000000000000 [Eh]
	 Same-Spin Energy          =      -0.3359803043277460 [Eh]
	 Opposite-Spin Energy      =      -1.0627283749591108 [Eh]
	 Correlation Energy        =      -1.3987086792868568 [Eh]
	 Total Energy              =    -324.2181327902012526 [Eh]

	 ================> DF-SCS-MP2 Energies <==================
	-----------------------------------------------------------
	 SCS Same-Spin Scale       =       0.3333333333333333 [-]
	 SCS Opposite-Spin Scale   =       1.2000000000000000 [-]
	 SCS Same-Spin Energy      =      -0.1119934347759153 [Eh]
	 SCS Opposite-Spin Energy  =      -1.2752740499509330 [Eh]
	 SCS Correlation Energy    =      -1.3872674847268482 [Eh]
	 SCS Total Energy          =    -324.2066915956412458 [Eh]
	-----------------------------------------------------------

  Dipole Moment: [D]
     X:    -0.3434      Y:    -1.1779      Z:    -0.0000     Total:     1.2269

*** Psi4 exiting successfully. Buy a developer a beer!
