                               Psi4 1.3.2 release

  ==> Input File <==

--------------------------------------------------------------------------
#psi4
#
memory 32 gb

molecule  {
0 1
  O       -0.8874150    -1.1053680    -0.0000120
  N       -0.2975850     1.0586860     0.0000180
  C        1.5208660    -0.6926320     0.0000250
  C        0.1219560    -0.1795350     0.0000030
  C        2.5397680     0.4426120    -0.0000230
  C       -2.0377090    -0.3588510    -0.0000130
  C       -1.5484924     0.9105026     0.0000015
  H        1.6599850    -1.3368650     0.8764330
  H        1.6599860    -1.3369460    -0.8763220
  H        2.4145620     1.0741370    -0.8814520
  H        3.5546530     0.0364140    -0.0000210
  H        2.4145820     1.0741970     0.8813660
  H       -2.9679600    -0.9049730    -0.0000050
  H       -2.3195540     1.8284960    -0.0000070
units angstrom
no_reorient  #important for SAPT in psi4, default
symmetry c1  #important for SAPT in psi4, default
}

set PROPERTIES_ORIGIN ["COM"]
properties('MP2/aug-cc-pvtz', properties = ['dipole'])
--------------------------------------------------------------------------

    Molecular point group: c1
  Charge       = 0
  Multiplicity = 1
  Basis Set: AUG-CC-PVTZ
    Blend: AUG-CC-PVTZ
  Basis Set: (AUG-CC-PVTZ AUX)
    Blend: AUG-CC-PVTZ-JKFIT

    Orbital Energies [Eh]
    ---------------------

    Doubly Occupied:

       1A    -20.636477     2A    -15.558681     3A    -11.342450
       4A    -11.280426     5A    -11.260715     6A    -11.249925
       7A    -11.223061     8A     -1.485874     9A     -1.272238
      10A     -1.085905    11A     -0.992590    12A     -0.883168
      13A     -0.830079    14A     -0.799148    15A     -0.713789
      16A     -0.674083    17A     -0.632559    18A     -0.611781
      19A     -0.590460    20A     -0.544304    21A     -0.529087
      22A     -0.516551    23A     -0.506863    24A     -0.475633
      25A     -0.463105    26A     -0.320136

  @DF-RHF Final Energy:  -322.79767350180941

   => Energetics <=

    Nuclear Repulsion Energy =            295.2555411636217855
    One-Electron Energy =               -1023.1482541025736737
    Two-Electron Energy =                 405.0950394371425318
    Total Energy =                       -322.7976735018094132
  Basis Set: (AUG-CC-PVTZ AUX)
    Blend: AUG-CC-PVTZ-RI
    Molecular point group: c1

    Geometry (in Angstrom), charge = 0, multiplicity = 1:

       Center              X                  Y                   Z               Mass
    ------------   -----------------  -----------------  -----------------  -----------------
         O           -0.838595088516    -1.095554889312    -0.000011732658    15.994914619570
         N           -0.248765088516     1.068499110688     0.000018267342    14.003074004430
         C            1.569685911484    -0.682818889312     0.000025267342    12.000000000000
         C            0.170775911484    -0.169721889312     0.000003267342    12.000000000000
         C            2.588587911484     0.452425110688    -0.000022732658    12.000000000000
         C           -1.988889088516    -0.349037889312    -0.000012732658    12.000000000000
         C           -1.499672488516     0.920315710688     0.000001767342    12.000000000000
         H            1.708804911484    -1.327051889312     0.876433267342     1.007825032230
         H            1.708805911484    -1.327132889312    -0.876321732658     1.007825032230
         H            2.463381911484     1.083950110688    -0.881451732658     1.007825032230
         H            3.603472911484     0.046227110688    -0.000020732658     1.007825032230
         H            2.463401911484     1.084010110688     0.881366267342     1.007825032230
         H           -2.919140088516    -0.895159889312    -0.000004732658     1.007825032230
         H           -2.270734088516     1.838309110688    -0.000006732658     1.007825032230

  Basis Set: AUG-CC-PVTZ
    Blend: AUG-CC-PVTZ
  Basis Set: (AUG-CC-PVTZ AUX)
    Blend: AUG-CC-PVTZ-JKFIT
	 Reference Energy          =    -322.7976735018094132 [Eh]
	 Singles Energy            =      -0.0000000000000000 [Eh]
	 Same-Spin Energy          =      -0.3379398370798008 [Eh]
	 Opposite-Spin Energy      =      -1.0627972132727712 [Eh]
	 Correlation Energy        =      -1.4007370503525720 [Eh]
	 Total Energy              =    -324.1984105521619881 [Eh]

	 ================> DF-SCS-MP2 Energies <==================
	-----------------------------------------------------------
	 SCS Same-Spin Scale       =       0.3333333333333333 [-]
	 SCS Opposite-Spin Scale   =       1.2000000000000000 [-]
	 SCS Same-Spin Energy      =      -0.1126466123599336 [Eh]
	 SCS Opposite-Spin Energy  =      -1.2753566559273255 [Eh]
	 SCS Correlation Energy    =      -1.3880032682872592 [Eh]
	 SCS Total Energy          =    -324.1856767700966770 [Eh]
	-----------------------------------------------------------

  Dipole Moment: [D]
     X:    -0.1820      Y:    -1.2912      Z:     0.0000     Total:     1.3039

*** Psi4 exiting successfully. Buy a developer a beer!
