                               Psi4 1.3.2 release

  ==> Input File <==

--------------------------------------------------------------------------
#psi4
#
memory 32 gb

molecule  {
0 1
  O       -0.8874150    -1.1053680    -0.0000120
  N       -0.2975850     1.0586860     0.0000180
  C        1.5208660    -0.6926320     0.0000250
  C        0.1008520    -0.2607716     0.1314580
  C        2.5397680     0.4426120    -0.0000230
  C       -2.0377090    -0.3588510    -0.0000130
  C       -1.6838560     0.9546860     0.0000050
  H        1.6599850    -1.3368650     0.8764330
  H        1.6599860    -1.3369460    -0.8763220
  H        2.4145620     1.0741370    -0.8814520
  H        3.5546530     0.0364140    -0.0000210
  H        2.4145820     1.0741970     0.8813660
  H       -2.9679600    -0.9049730    -0.0000050
  H       -2.3195540     1.8284960    -0.0000070
units angstrom
no_reorient  #important for SAPT in psi4, default
symmetry c1  #important for SAPT in psi4, default
}

set PROPERTIES_ORIGIN ["COM"]
properties('MP2/aug-cc-pvtz', properties = ['dipole'])
--------------------------------------------------------------------------

    Molecular point group: c1
  Charge       = 0
  Multiplicity = 1
  Basis Set: AUG-CC-PVTZ
    Blend: AUG-CC-PVTZ
  Basis Set: (AUG-CC-PVTZ AUX)
    Blend: AUG-CC-PVTZ-JKFIT

    Orbital Energies [Eh]
    ---------------------

    Doubly Occupied:

       1A    -20.648121     2A    -15.560195     3A    -11.343791
       4A    -11.287773     5A    -11.262120     6A    -11.249325
       7A    -11.221295     8A     -1.503591     9A     -1.203924
      10A     -1.084886    11A     -0.998618    12A     -0.885032
      13A     -0.831485    14A     -0.786157    15A     -0.718675
      16A     -0.678032    17A     -0.634732    18A     -0.611785
      19A     -0.584350    20A     -0.566834    21A     -0.534436
      22A     -0.510651    23A     -0.500900    24A     -0.453848
      25A     -0.436699    26A     -0.326197

  @DF-RHF Final Energy:  -322.81006650892141

   => Energetics <=

    Nuclear Repulsion Energy =            292.1006230439792262
    One-Electron Energy =               -1016.9744729368189837
    Two-Electron Energy =                 402.0637833839183486
    Total Energy =                       -322.8100665089214090
  Basis Set: (AUG-CC-PVTZ AUX)
    Blend: AUG-CC-PVTZ-RI
    Molecular point group: c1

    Geometry (in Angstrom), charge = 0, multiplicity = 1:

       Center              X                  Y                   Z               Mass
    ------------   -----------------  -----------------  -----------------  -----------------
         O           -0.819248795577    -1.090973480371    -0.016265798359    15.994914619570
         N           -0.229418795577     1.073080519629    -0.016235798359    14.003074004430
         C            1.589032204423    -0.678237480371    -0.016228798359    12.000000000000
         C            0.169018204423    -0.246377080371     0.115204201641    12.000000000000
         C            2.607934204423     0.457006519629    -0.016276798359    12.000000000000
         C           -1.969542795577    -0.344456480371    -0.016266798359    12.000000000000
         C           -1.615689795577     0.969080519629    -0.016248798359    12.000000000000
         H            1.728151204423    -1.322470480371     0.860179201641     1.007825032230
         H            1.728152204423    -1.322551480371    -0.892575798359     1.007825032230
         H            2.482728204423     1.088531519629    -0.897705798359     1.007825032230
         H            3.622819204423     0.050808519629    -0.016274798359     1.007825032230
         H            2.482748204423     1.088591519629     0.865112201641     1.007825032230
         H           -2.899793795577    -0.890578480371    -0.016258798359     1.007825032230
         H           -2.251387795577     1.842890519629    -0.016260798359     1.007825032230

  Basis Set: AUG-CC-PVTZ
    Blend: AUG-CC-PVTZ
  Basis Set: (AUG-CC-PVTZ AUX)
    Blend: AUG-CC-PVTZ-JKFIT
	 Reference Energy          =    -322.8100665089214090 [Eh]
	 Singles Energy            =      -0.0000000000000000 [Eh]
	 Same-Spin Energy          =      -0.3373296349775726 [Eh]
	 Opposite-Spin Energy      =      -1.0639700364946394 [Eh]
	 Correlation Energy        =      -1.4012996714722119 [Eh]
	 Total Energy              =    -324.2113661803936111 [Eh]

	 ================> DF-SCS-MP2 Energies <==================
	-----------------------------------------------------------
	 SCS Same-Spin Scale       =       0.3333333333333333 [-]
	 SCS Opposite-Spin Scale   =       1.2000000000000000 [-]
	 SCS Same-Spin Energy      =      -0.1124432116591909 [Eh]
	 SCS Opposite-Spin Energy  =      -1.2767640437935672 [Eh]
	 SCS Correlation Energy    =      -1.3892072554527581 [Eh]
	 SCS Total Energy          =    -324.1992737643741407 [Eh]
	-----------------------------------------------------------

  Dipole Moment: [D]
     X:    -0.5363      Y:    -1.3584      Z:     0.0259     Total:     1.4606

*** Psi4 exiting successfully. Buy a developer a beer!
