                               Psi4 1.3.2 release

  ==> Input File <==

--------------------------------------------------------------------------
#psi4
#
memory 32 gb

molecule  {
0 1
  O       -0.8874150    -1.1053680    -0.0000120
  N       -0.3405427     1.0432899     0.0000167
  C        1.5208660    -0.6926320     0.0000250
  C        0.1219560    -0.1795350     0.0000030
  C        2.5397680     0.4426120    -0.0000230
  C       -2.0377090    -0.3588510    -0.0000130
  C       -1.6838560     0.9546860     0.0000050
  H        1.6599850    -1.3368650     0.8764330
  H        1.6599860    -1.3369460    -0.8763220
  H        2.4145620     1.0741370    -0.8814520
  H        3.5546530     0.0364140    -0.0000210
  H        2.4145820     1.0741970     0.8813660
  H       -2.9679600    -0.9049730    -0.0000050
  H       -2.3195540     1.8284960    -0.0000070
units angstrom
no_reorient  #important for SAPT in psi4, default
symmetry c1  #important for SAPT in psi4, default
}

set PROPERTIES_ORIGIN ["COM"]
properties('MP2/aug-cc-pvtz', properties = ['dipole'])
--------------------------------------------------------------------------

    Molecular point group: c1
  Charge       = 0
  Multiplicity = 1
  Basis Set: AUG-CC-PVTZ
    Blend: AUG-CC-PVTZ
  Basis Set: (AUG-CC-PVTZ AUX)
    Blend: AUG-CC-PVTZ-JKFIT

    Orbital Energies [Eh]
    ---------------------

    Doubly Occupied:

       1A    -20.633945     2A    -15.555521     3A    -11.336580
       4A    -11.287986     5A    -11.256272     6A    -11.250272
       7A    -11.221882     8A     -1.477520     9A     -1.234246
      10A     -1.084343    11A     -0.996626    12A     -0.883967
      13A     -0.829563    14A     -0.784684    15A     -0.718021
      16A     -0.667786    17A     -0.630098    18A     -0.609894
      19A     -0.592273    20A     -0.571877    21A     -0.527468
      22A     -0.517044    23A     -0.505844    24A     -0.454560
      25A     -0.450654    26A     -0.327415

  @DF-RHF Final Energy:  -322.82591982471098

   => Energetics <=

    Nuclear Repulsion Energy =            293.0274537819408920
    One-Electron Energy =               -1018.8940657755277925
    Two-Electron Energy =                 403.0406921688759780
    Total Energy =                       -322.8259198247109794
  Basis Set: (AUG-CC-PVTZ AUX)
    Blend: AUG-CC-PVTZ-RI
    Molecular point group: c1

    Geometry (in Angstrom), charge = 0, multiplicity = 1:

       Center              X                  Y                   Z               Mass
    ------------   -----------------  -----------------  -----------------  -----------------
         O           -0.815660110017    -1.098796508199    -0.000011977845    15.994914619570
         N           -0.268787810017     1.049861391801     0.000016722155    14.003074004430
         C            1.592620889983    -0.686060508199     0.000025022155    12.000000000000
         C            0.193710889983    -0.172963508199     0.000003022155    12.000000000000
         C            2.611522889983     0.449183491801    -0.000022977845    12.000000000000
         C           -1.965954110017    -0.352279508199    -0.000012977845    12.000000000000
         C           -1.612101110017     0.961257491801     0.000005022155    12.000000000000
         H            1.731739889983    -1.330293508199     0.876433022155     1.007825032230
         H            1.731740889983    -1.330374508199    -0.876321977845     1.007825032230
         H            2.486316889983     1.080708491801    -0.881451977845     1.007825032230
         H            3.626407889983     0.042985491801    -0.000020977845     1.007825032230
         H            2.486336889983     1.080768491801     0.881366022155     1.007825032230
         H           -2.896205110017    -0.898401508199    -0.000004977845     1.007825032230
         H           -2.247799110017     1.835067491801    -0.000006977845     1.007825032230

  Basis Set: AUG-CC-PVTZ
    Blend: AUG-CC-PVTZ
  Basis Set: (AUG-CC-PVTZ AUX)
    Blend: AUG-CC-PVTZ-JKFIT
	 Reference Energy          =    -322.8259198247109794 [Eh]
	 Singles Energy            =      -0.0000000000000000 [Eh]
	 Same-Spin Energy          =      -0.3362870429269146 [Eh]
	 Opposite-Spin Energy      =      -1.0615079876426223 [Eh]
	 Correlation Energy        =      -1.3977950305695370 [Eh]
	 Total Energy              =    -324.2237148552804911 [Eh]

	 ================> DF-SCS-MP2 Energies <==================
	-----------------------------------------------------------
	 SCS Same-Spin Scale       =       0.3333333333333333 [-]
	 SCS Opposite-Spin Scale   =       1.2000000000000000 [-]
	 SCS Same-Spin Energy      =      -0.1120956809756382 [Eh]
	 SCS Opposite-Spin Energy  =      -1.2738095851711468 [Eh]
	 SCS Correlation Energy    =      -1.3859052661467850 [Eh]
	 SCS Total Energy          =    -324.2118250908577579 [Eh]
	-----------------------------------------------------------

  Dipole Moment: [D]
     X:    -0.2840      Y:    -1.1473      Z:    -0.0000     Total:     1.1819

*** Psi4 exiting successfully. Buy a developer a beer!
