                               Psi4 1.3.2 release

  ==> Input File <==

--------------------------------------------------------------------------
#psi4
#
memory 32 gb

molecule  {
0 1
  O       -0.8874150    -1.1053680    -0.0000120
  N       -0.2975850     1.0586860     0.0000180
  C        1.5208660    -0.6926320     0.0000250
  C        0.1219560    -0.1795350     0.0000030
  C        2.5397680     0.4426120    -0.0000230
  C       -1.9916517    -0.3704001    -0.0000118
  C       -1.6838560     0.9546860     0.0000050
  H        1.6599850    -1.3368650     0.8764330
  H        1.6599860    -1.3369460    -0.8763220
  H        2.4145620     1.0741370    -0.8814520
  H        3.5546530     0.0364140    -0.0000210
  H        2.4145820     1.0741970     0.8813660
  H       -2.9679600    -0.9049730    -0.0000050
  H       -2.3195540     1.8284960    -0.0000070
units angstrom
no_reorient  #important for SAPT in psi4, default
symmetry c1  #important for SAPT in psi4, default
}

set PROPERTIES_ORIGIN ["COM"]
properties('MP2/aug-cc-pvtz', properties = ['dipole'])
--------------------------------------------------------------------------

    Molecular point group: c1
  Charge       = 0
  Multiplicity = 1
  Basis Set: AUG-CC-PVTZ
    Blend: AUG-CC-PVTZ
  Basis Set: (AUG-CC-PVTZ AUX)
    Blend: AUG-CC-PVTZ-JKFIT

    Orbital Energies [Eh]
    ---------------------

    Doubly Occupied:

       1A    -20.640383     2A    -15.561618     3A    -11.335573
       4A    -11.292283     5A    -11.256318     6A    -11.248354
       7A    -11.220578     8A     -1.495645     9A     -1.229697
      10A     -1.083118    11A     -0.995527    12A     -0.884486
      13A     -0.830183    14A     -0.785297    15A     -0.718765
      16A     -0.674944    17A     -0.628362    18A     -0.612322
      19A     -0.585020    20A     -0.572559    21A     -0.526166
      22A     -0.514245    23A     -0.505098    24A     -0.456603
      25A     -0.451142    26A     -0.328486

  @DF-RHF Final Energy:  -322.82501068471038

   => Energetics <=

    Nuclear Repulsion Energy =            293.3238351970739473
    One-Electron Energy =               -1019.4321496187200182
    Two-Electron Energy =                 403.2833037369357498
    Total Energy =                       -322.8250106847103780
  Basis Set: (AUG-CC-PVTZ AUX)
    Blend: AUG-CC-PVTZ-RI
    Molecular point group: c1

    Geometry (in Angstrom), charge = 0, multiplicity = 1:

       Center              X                  Y                   Z               Mass
    ------------   -----------------  -----------------  -----------------  -----------------
         O           -0.827552892936    -1.099589927413    -0.000012313786    15.994914619570
         N           -0.237722892936     1.064464072587     0.000017686214    14.003074004430
         C            1.580728107064    -0.686853927413     0.000024686214    12.000000000000
         C            0.181818107064    -0.173756927413     0.000002686214    12.000000000000
         C            2.599630107064     0.448390072587    -0.000023313786    12.000000000000
         C           -1.931789592936    -0.364622027413    -0.000012113786    12.000000000000
         C           -1.623993892936     0.960464072587     0.000004686214    12.000000000000
         H            1.719847107064    -1.331086927413     0.876432686214     1.007825032230
         H            1.719848107064    -1.331167927413    -0.876322313786     1.007825032230
         H            2.474424107064     1.079915072587    -0.881452313786     1.007825032230
         H            3.614515107064     0.042192072587    -0.000021313786     1.007825032230
         H            2.474444107064     1.079975072587     0.881365686214     1.007825032230
         H           -2.908097892936    -0.899194927413    -0.000005313786     1.007825032230
         H           -2.259691892936     1.834274072587    -0.000007313786     1.007825032230

  Basis Set: AUG-CC-PVTZ
    Blend: AUG-CC-PVTZ
  Basis Set: (AUG-CC-PVTZ AUX)
    Blend: AUG-CC-PVTZ-JKFIT
	 Reference Energy          =    -322.8250106847103780 [Eh]
	 Singles Energy            =      -0.0000000000000000 [Eh]
	 Same-Spin Energy          =      -0.3360291804761798 [Eh]
	 Opposite-Spin Energy      =      -1.0615166650274177 [Eh]
	 Correlation Energy        =      -1.3975458455035974 [Eh]
	 Total Energy              =    -324.2225565302139785 [Eh]

	 ================> DF-SCS-MP2 Energies <==================
	-----------------------------------------------------------
	 SCS Same-Spin Scale       =       0.3333333333333333 [-]
	 SCS Opposite-Spin Scale   =       1.2000000000000000 [-]
	 SCS Same-Spin Energy      =      -0.1120097268253933 [Eh]
	 SCS Opposite-Spin Energy  =      -1.2738199980329012 [Eh]
	 SCS Correlation Energy    =      -1.3858297248582945 [Eh]
	 SCS Total Energy          =    -324.2108404095686751 [Eh]
	-----------------------------------------------------------

  Dipole Moment: [D]
     X:    -0.3247      Y:    -1.2222      Z:    -0.0000     Total:     1.2646

*** Psi4 exiting successfully. Buy a developer a beer!
