                               Psi4 1.4a3.dev225

  ==> Input File <==

--------------------------------------------------------------------------
#psi4
#
memory 32 gb

molecule  {
0 1
  O       -0.8874150    -1.1053680    -0.0000120
  N       -0.2975850     1.0586860     0.0000180
  C        1.5208660    -0.6926320     0.0000250
  C        0.1688980    -0.1967526     0.0000037
  C        2.5397680     0.4426120    -0.0000230
  C       -2.0377090    -0.3588510    -0.0000130
  C       -1.6838560     0.9546860     0.0000050
  H        1.6599850    -1.3368650     0.8764330
  H        1.6599860    -1.3369460    -0.8763220
  H        2.4145620     1.0741370    -0.8814520
  H        3.5546530     0.0364140    -0.0000210
  H        2.4145820     1.0741970     0.8813660
  H       -2.9679600    -0.9049730    -0.0000050
  H       -2.3195540     1.8284960    -0.0000070
units angstrom
no_reorient  #important for SAPT in psi4, default
symmetry c1  #important for SAPT in psi4, default
}

set PROPERTIES_ORIGIN ["COM"]
properties('MP2/aug-cc-pvtz', properties = ['dipole'])
--------------------------------------------------------------------------

    Molecular point group: c1
  Charge       = 0
  Multiplicity = 1
  Basis Set: AUG-CC-PVTZ
    Blend: AUG-CC-PVTZ
  Basis Set: (AUG-CC-PVTZ AUX)
    Blend: AUG-CC-PVTZ-JKFIT

    Orbital Energies [Eh]
    ---------------------

    Doubly Occupied:

       1A    -20.630855     2A    -15.562767     3A    -11.341526
       4A    -11.290266     5A    -11.258831     6A    -11.248875
       7A    -11.223508     8A     -1.464185     9A     -1.212946
      10A     -1.093231    11A     -0.995497    12A     -0.891809
      13A     -0.821677    14A     -0.776176    15A     -0.715456
      16A     -0.664745    17A     -0.634922    18A     -0.608820
      19A     -0.588160    20A     -0.565735    21A     -0.531465
      22A     -0.520324    23A     -0.508659    24A     -0.449966
      25A     -0.442814    26A     -0.327099

  @DF-RHF Final Energy:  -322.81911088672206

   => Energetics <=

    Nuclear Repulsion Energy =            291.8878271773954225
    One-Electron Energy =               -1016.6732519100609125
    Two-Electron Energy =                 401.9663138459433753
    Total Energy =                       -322.8191108867220578
  Basis Set: (AUG-CC-PVTZ AUX)
    Blend: AUG-CC-PVTZ-RI
    Molecular point group: c1

    Geometry (in Angstrom), charge = 0, multiplicity = 1:

       Center              X                  Y                   Z               Mass
    ------------   -----------------  -----------------  -----------------  -----------------
         O           -0.827662280857    -1.098889050928    -0.000012251964    15.994914619570
         N           -0.237832280857     1.065164949072     0.000017748036    14.003074004430
         C            1.580618719143    -0.686153050928     0.000024748036    12.000000000000
         C            0.228650719143    -0.190273650928     0.000003448036    12.000000000000
         C            2.599520719143     0.449090949072    -0.000023251964    12.000000000000
         C           -1.977956280857    -0.352372050928    -0.000013251964    12.000000000000
         C           -1.624103280857     0.961164949072     0.000004748036    12.000000000000
         H            1.719737719143    -1.330386050928     0.876432748036     1.007825032230
         H            1.719738719143    -1.330467050928    -0.876322251964     1.007825032230
         H            2.474314719143     1.080615949072    -0.881452251964     1.007825032230
         H            3.614405719143     0.042892949072    -0.000021251964     1.007825032230
         H            2.474334719143     1.080675949072     0.881365748036     1.007825032230
         H           -2.908207280857    -0.898494050928    -0.000005251964     1.007825032230
         H           -2.259801280857     1.834974949072    -0.000007251964     1.007825032230

  Basis Set: AUG-CC-PVTZ
    Blend: AUG-CC-PVTZ
  Basis Set: (AUG-CC-PVTZ AUX)
    Blend: AUG-CC-PVTZ-JKFIT
	 Reference Energy          =    -322.8191108867220578 [Eh]
	 Singles Energy            =      -0.0000000000000000 [Eh]
	 Same-Spin Energy          =      -0.3373282706723276 [Eh]
	 Opposite-Spin Energy      =      -1.0643502327247325 [Eh]
	 Correlation Energy        =      -1.4016785033970600 [Eh]
	 Total Energy              =    -324.2207893901191369 [Eh]

	 ================> DF-SCS-MP2 Energies <==================
	-----------------------------------------------------------
	 SCS Same-Spin Scale       =       0.3333333333333333 [-]
	 SCS Opposite-Spin Scale   =       1.2000000000000000 [-]
	 SCS Same-Spin Energy      =      -0.1124427568907758 [Eh]
	 SCS Opposite-Spin Energy  =      -1.2772202792696790 [Eh]
	 SCS Correlation Energy    =      -1.3896630361604547 [Eh]
	 SCS Total Energy          =    -324.2087739228825285 [Eh]
	-----------------------------------------------------------

  Dipole Moment: [D]
     X:    -0.2263      Y:    -1.2195      Z:    -0.0000     Total:     1.2403

*** Psi4 exiting successfully. Buy a developer a beer!
