                               Psi4 1.3.2 release

  ==> Input File <==

--------------------------------------------------------------------------
#psi4
#
memory 32 gb

molecule  {
0 1
  O       -0.9006187    -1.1253297    -0.0000118
  N       -0.2975850     1.0586860     0.0000180
  C        1.5208660    -0.6926320     0.0000250
  C        0.1219560    -0.1795350     0.0000030
  C        2.5397680     0.4426120    -0.0000230
  C       -2.0377090    -0.3588510    -0.0000130
  C       -1.6838560     0.9546860     0.0000050
  H        1.6599850    -1.3368650     0.8764330
  H        1.6599860    -1.3369460    -0.8763220
  H        2.4145620     1.0741370    -0.8814520
  H        3.5546530     0.0364140    -0.0000210
  H        2.4145820     1.0741970     0.8813660
  H       -2.9679600    -0.9049730    -0.0000050
  H       -2.3195540     1.8284960    -0.0000070
units angstrom
no_reorient  #important for SAPT in psi4, default
symmetry c1  #important for SAPT in psi4, default
}

set PROPERTIES_ORIGIN ["COM"]
properties('MP2/aug-cc-pvtz', properties = ['dipole'])
--------------------------------------------------------------------------

    Molecular point group: c1
  Charge       = 0
  Multiplicity = 1
  Basis Set: AUG-CC-PVTZ
    Blend: AUG-CC-PVTZ
  Basis Set: (AUG-CC-PVTZ AUX)
    Blend: AUG-CC-PVTZ-JKFIT

    Orbital Energies [Eh]
    ---------------------

    Doubly Occupied:

       1A    -20.633803     2A    -15.563721     3A    -11.339941
       4A    -11.291371     5A    -11.260567     6A    -11.249242
       7A    -11.221286     8A     -1.468530     9A     -1.228638
      10A     -1.081796    11A     -0.995306    12A     -0.884515
      13A     -0.825814    14A     -0.779269    15A     -0.715375
      16A     -0.663785    17A     -0.627886    18A     -0.608584
      19A     -0.585844    20A     -0.572933    21A     -0.526300
      22A     -0.515070    23A     -0.505389    24A     -0.458989
      25A     -0.451474    26A     -0.331205

  @DF-RHF Final Energy:  -322.82484295664358

   => Energetics <=

    Nuclear Repulsion Energy =            291.7032703366492115
    One-Electron Energy =               -1016.2829625125464190
    Two-Electron Energy =                 401.7548492192536287
    Total Energy =                       -322.8248429566435789
  Basis Set: (AUG-CC-PVTZ AUX)
    Blend: AUG-CC-PVTZ-RI
    Molecular point group: c1

    Geometry (in Angstrom), charge = 0, multiplicity = 1:

       Center              X                  Y                   Z               Mass
    ------------   -----------------  -----------------  -----------------  -----------------
         O           -0.832885826316    -1.117689789790    -0.000011998374    15.994914619570
         N           -0.229852126316     1.066325910210     0.000017801626    14.003074004430
         C            1.588598873684    -0.684992089790     0.000024801626    12.000000000000
         C            0.189688873684    -0.171895089790     0.000002801626    12.000000000000
         C            2.607500873684     0.450251910210    -0.000023198374    12.000000000000
         C           -1.969976126316    -0.351211089790    -0.000013198374    12.000000000000
         C           -1.616123126316     0.962325910210     0.000004801626    12.000000000000
         H            1.727717873684    -1.329225089790     0.876432801626     1.007825032230
         H            1.727718873684    -1.329306089790    -0.876322198374     1.007825032230
         H            2.482294873684     1.081776910210    -0.881452198374     1.007825032230
         H            3.622385873684     0.044053910210    -0.000021198374     1.007825032230
         H            2.482314873684     1.081836910210     0.881365801626     1.007825032230
         H           -2.900227126316    -0.897333089790    -0.000005198374     1.007825032230
         H           -2.251821126316     1.836135910210    -0.000007198374     1.007825032230

  Basis Set: AUG-CC-PVTZ
    Blend: AUG-CC-PVTZ
  Basis Set: (AUG-CC-PVTZ AUX)
    Blend: AUG-CC-PVTZ-JKFIT
	 Reference Energy          =    -322.8248429566435789 [Eh]
	 Singles Energy            =      -0.0000000000000000 [Eh]
	 Same-Spin Energy          =      -0.3360477044023518 [Eh]
	 Opposite-Spin Energy      =      -1.0629440763198374 [Eh]
	 Correlation Energy        =      -1.3989917807221892 [Eh]
	 Total Energy              =    -324.2238347373657916 [Eh]

	 ================> DF-SCS-MP2 Energies <==================
	-----------------------------------------------------------
	 SCS Same-Spin Scale       =       0.3333333333333333 [-]
	 SCS Opposite-Spin Scale   =       1.2000000000000000 [-]
	 SCS Same-Spin Energy      =      -0.1120159014674506 [Eh]
	 SCS Opposite-Spin Energy  =      -1.2755328915838049 [Eh]
	 SCS Correlation Energy    =      -1.3875487930512556 [Eh]
	 SCS Total Energy          =    -324.2123917496948593 [Eh]
	-----------------------------------------------------------

  Dipole Moment: [D]
     X:    -0.3175      Y:    -1.1143      Z:    -0.0000     Total:     1.1587

*** Psi4 exiting successfully. Buy a developer a beer!
