                               Psi4 1.3.2 release

  ==> Input File <==

--------------------------------------------------------------------------
#psi4
#
memory 32 gb

molecule  {
0 1
  O       -0.8874150    -1.1053680    -0.0000120
  N       -0.2975850     1.0586860     0.0000180
  C        1.5208660    -0.6926320     0.0000250
  C        0.1611555    -0.0832018    -0.0000011
  C        2.5397680     0.4426120    -0.0000230
  C       -2.0377090    -0.3588510    -0.0000130
  C       -1.6838560     0.9546860     0.0000050
  H        1.6599850    -1.3368650     0.8764330
  H        1.6599860    -1.3369460    -0.8763220
  H        2.4145620     1.0741370    -0.8814520
  H        3.5546530     0.0364140    -0.0000210
  H        2.4145820     1.0741970     0.8813660
  H       -2.9679600    -0.9049730    -0.0000050
  H       -2.3195540     1.8284960    -0.0000070
units angstrom
no_reorient  #important for SAPT in psi4, default
symmetry c1  #important for SAPT in psi4, default
}

set PROPERTIES_ORIGIN ["COM"]
properties('MP2/aug-cc-pvtz', properties = ['dipole'])
--------------------------------------------------------------------------

    Molecular point group: c1
  Charge       = 0
  Multiplicity = 1
  Basis Set: AUG-CC-PVTZ
    Blend: AUG-CC-PVTZ
  Basis Set: (AUG-CC-PVTZ AUX)
    Blend: AUG-CC-PVTZ-JKFIT

    Orbital Energies [Eh]
    ---------------------

    Doubly Occupied:

       1A    -20.613777     2A    -15.562524     3A    -11.332195
       4A    -11.294382     5A    -11.258585     6A    -11.249882
       7A    -11.221213     8A     -1.443625     9A     -1.250949
      10A     -1.081524    11A     -0.997412    12A     -0.883114
      13A     -0.826274    14A     -0.767061    15A     -0.714151
      16A     -0.656888    17A     -0.626984    18A     -0.603518
      19A     -0.602263    20A     -0.558638    21A     -0.523016
      22A     -0.516022    23A     -0.505720    24A     -0.463110
      25A     -0.455833    26A     -0.335422

  @DF-RHF Final Energy:  -322.81696772801797

   => Energetics <=

    Nuclear Repulsion Energy =            292.2966429668451269
    One-Electron Energy =               -1017.5390567155287727
    Two-Electron Energy =                 402.4254460206657313
    Total Energy =                       -322.8169677280179712
  Basis Set: (AUG-CC-PVTZ AUX)
    Blend: AUG-CC-PVTZ-RI
    Molecular point group: c1

    Geometry (in Angstrom), charge = 0, multiplicity = 1:

       Center              X                  Y                   Z               Mass
    ------------   -----------------  -----------------  -----------------  -----------------
         O           -0.826704966543    -1.112928935481    -0.000011658472    15.994914619570
         N           -0.236874966543     1.051125064519     0.000018341528    14.003074004430
         C            1.581576033457    -0.700192935481     0.000025341528    12.000000000000
         C            0.221865533457    -0.090762735481    -0.000000758472    12.000000000000
         C            2.600478033457     0.435051064519    -0.000022658472    12.000000000000
         C           -1.976998966543    -0.366411935481    -0.000012658472    12.000000000000
         C           -1.623145966543     0.947125064519     0.000005341528    12.000000000000
         H            1.720695033457    -1.344425935481     0.876433341528     1.007825032230
         H            1.720696033457    -1.344506935481    -0.876321658472     1.007825032230
         H            2.475272033457     1.066576064519    -0.881451658472     1.007825032230
         H            3.615363033457     0.028853064519    -0.000020658472     1.007825032230
         H            2.475292033457     1.066636064519     0.881366341528     1.007825032230
         H           -2.907249966543    -0.912533935481    -0.000004658472     1.007825032230
         H           -2.258843966543     1.820935064519    -0.000006658472     1.007825032230

  Basis Set: AUG-CC-PVTZ
    Blend: AUG-CC-PVTZ
  Basis Set: (AUG-CC-PVTZ AUX)
    Blend: AUG-CC-PVTZ-JKFIT
	 Reference Energy          =    -322.8169677280179712 [Eh]
	 Singles Energy            =      -0.0000000000000000 [Eh]
	 Same-Spin Energy          =      -0.3353179681045566 [Eh]
	 Opposite-Spin Energy      =      -1.0622077857349461 [Eh]
	 Correlation Energy        =      -1.3975257538395027 [Eh]
	 Total Energy              =    -324.2144934818574598 [Eh]

	 ================> DF-SCS-MP2 Energies <==================
	-----------------------------------------------------------
	 SCS Same-Spin Scale       =       0.3333333333333333 [-]
	 SCS Opposite-Spin Scale   =       1.2000000000000000 [-]
	 SCS Same-Spin Energy      =      -0.1117726560348522 [Eh]
	 SCS Opposite-Spin Energy  =      -1.2746493428819352 [Eh]
	 SCS Correlation Energy    =      -1.3864219989167874 [Eh]
	 SCS Total Energy          =    -324.2033897269347449 [Eh]
	-----------------------------------------------------------

  Dipole Moment: [D]
     X:    -0.1399      Y:    -0.8979      Z:    -0.0000     Total:     0.9087

*** Psi4 exiting successfully. Buy a developer a beer!
