                               Psi4 1.3.2 release

  ==> Input File <==

--------------------------------------------------------------------------
#psi4
#
memory 32 gb

molecule  {
0 1
  O       -0.8874150    -1.1053680    -0.0000120
  N       -0.2975850     1.0586860     0.0000180
  C        1.5208660    -0.6926320     0.0000250
  C        0.1219560    -0.1795350     0.0000030
  C        2.5397680     0.4426120    -0.0000230
  C       -2.0377090    -0.3588510    -0.0000130
  C       -1.6838560     0.9546860     0.0000050
  H        1.6599850    -1.3368650     0.8764330
  H        1.6599860    -1.3369460    -0.8763220
  H        2.4145620     1.0741370    -0.8814520
  H        3.5546530     0.0364140    -0.0000210
  H        2.4145820     1.0741970     0.8813660
  H       -3.0541973    -0.9556003    -0.0000043
  H       -2.3195540     1.8284960    -0.0000070
units angstrom
no_reorient  #important for SAPT in psi4, default
symmetry c1  #important for SAPT in psi4, default
}

set PROPERTIES_ORIGIN ["COM"]
properties('MP2/aug-cc-pvtz', properties = ['dipole'])
--------------------------------------------------------------------------

    Molecular point group: c1
  Charge       = 0
  Multiplicity = 1
  Basis Set: AUG-CC-PVTZ
    Blend: AUG-CC-PVTZ
  Basis Set: (AUG-CC-PVTZ AUX)
    Blend: AUG-CC-PVTZ-JKFIT

    Orbital Energies [Eh]
    ---------------------

    Doubly Occupied:

       1A    -20.635149     2A    -15.561219     3A    -11.338120
       4A    -11.301133     5A    -11.261024     6A    -11.248948
       7A    -11.220986     8A     -1.477220     9A     -1.226708
      10A     -1.082329    11A     -0.994422    12A     -0.884076
      13A     -0.821275    14A     -0.780710    15A     -0.710228
      16A     -0.667643    17A     -0.617062    18A     -0.609468
      19A     -0.585012    20A     -0.568638    21A     -0.525817
      22A     -0.514817    23A     -0.505106    24A     -0.456985
      25A     -0.449860    26A     -0.332167

  @DF-RHF Final Energy:  -322.81927144893513

   => Energetics <=

    Nuclear Repulsion Energy =            291.8665380899017805
    One-Electron Energy =               -1016.6193743397108165
    Two-Electron Energy =                 401.9335648008738531
    Total Energy =                       -322.8192714489351260
  Basis Set: (AUG-CC-PVTZ AUX)
    Blend: AUG-CC-PVTZ-RI
    Molecular point group: c1

    Geometry (in Angstrom), charge = 0, multiplicity = 1:

       Center              X                  Y                   Z               Mass
    ------------   -----------------  -----------------  -----------------  -----------------
         O           -0.820962666298    -1.100492176214    -0.000012172682    15.994914619570
         N           -0.231132666298     1.063561823786     0.000017827318    14.003074004430
         C            1.587318333702    -0.687756176214     0.000024827318    12.000000000000
         C            0.188408333702    -0.174659176214     0.000002827318    12.000000000000
         C            2.606220333702     0.447487823786    -0.000023172682    12.000000000000
         C           -1.971256666298    -0.353975176214    -0.000013172682    12.000000000000
         C           -1.617403666298     0.959561823786     0.000004827318    12.000000000000
         H            1.726437333702    -1.331989176214     0.876432827318     1.007825032230
         H            1.726438333702    -1.332070176214    -0.876322172682     1.007825032230
         H            2.481014333702     1.079012823786    -0.881452172682     1.007825032230
         H            3.621105333702     0.041289823786    -0.000021172682     1.007825032230
         H            2.481034333702     1.079072823786     0.881365827318     1.007825032230
         H           -2.987744966298    -0.950724476214    -0.000004472682     1.007825032230
         H           -2.253101666298     1.833371823786    -0.000007172682     1.007825032230

  Basis Set: AUG-CC-PVTZ
    Blend: AUG-CC-PVTZ
  Basis Set: (AUG-CC-PVTZ AUX)
    Blend: AUG-CC-PVTZ-JKFIT
	 Reference Energy          =    -322.8192714489351260 [Eh]
	 Singles Energy            =      -0.0000000000000000 [Eh]
	 Same-Spin Energy          =      -0.3360258467468552 [Eh]
	 Opposite-Spin Energy      =      -1.0628319661471495 [Eh]
	 Correlation Energy        =      -1.3988578128940046 [Eh]
	 Total Energy              =    -324.2181292618291195 [Eh]

	 ================> DF-SCS-MP2 Energies <==================
	-----------------------------------------------------------
	 SCS Same-Spin Scale       =       0.3333333333333333 [-]
	 SCS Opposite-Spin Scale   =       1.2000000000000000 [-]
	 SCS Same-Spin Energy      =      -0.1120086155822851 [Eh]
	 SCS Opposite-Spin Energy  =      -1.2753983593765794 [Eh]
	 SCS Correlation Energy    =      -1.3874069749588644 [Eh]
	 SCS Total Energy          =    -324.2066784238940045 [Eh]
	-----------------------------------------------------------

  Dipole Moment: [D]
     X:    -0.3701      Y:    -1.1966      Z:    -0.0000     Total:     1.2525

*** Psi4 exiting successfully. Buy a developer a beer!
