                               Psi4 1.4a3.dev225

  ==> Input File <==

--------------------------------------------------------------------------
#psi4
#
memory 32 gb

molecule  {
0 1
  O       -0.8874150    -1.1053680    -0.0000120
  N       -0.2975850     1.0586860     0.0000180
  C        1.5208660    -0.6926320     0.0000250
  C        0.1219560    -0.1795350     0.0000030
  C        2.5397680     0.4426120    -0.0000230
  C       -2.0377090    -0.3588510    -0.0000130
  C       -1.7337159     0.9509454     0.0000045
  H        1.6599850    -1.3368650     0.8764330
  H        1.6599860    -1.3369460    -0.8763220
  H        2.4145620     1.0741370    -0.8814520
  H        3.5546530     0.0364140    -0.0000210
  H        2.4145820     1.0741970     0.8813660
  H       -2.9679600    -0.9049730    -0.0000050
  H       -2.3195540     1.8284960    -0.0000070
units angstrom
no_reorient  #important for SAPT in psi4, default
symmetry c1  #important for SAPT in psi4, default
}

set PROPERTIES_ORIGIN ["COM"]
properties('MP2/aug-cc-pvtz', properties = ['dipole'])
--------------------------------------------------------------------------

    Molecular point group: c1
  Charge       = 0
  Multiplicity = 1
  Basis Set: AUG-CC-PVTZ
    Blend: AUG-CC-PVTZ
  Basis Set: (AUG-CC-PVTZ AUX)
    Blend: AUG-CC-PVTZ-JKFIT

    Orbital Energies [Eh]
    ---------------------

    Doubly Occupied:

       1A    -20.632964     2A    -15.561310     3A    -11.337040
       4A    -11.292601     5A    -11.259955     6A    -11.248663
       7A    -11.220385     8A     -1.474858     9A     -1.213399
      10A     -1.082553    11A     -1.001050    12A     -0.885839
      13A     -0.827455    14A     -0.775416    15A     -0.717928
      16A     -0.666100    17A     -0.629622    18A     -0.608987
      19A     -0.588342    20A     -0.573287    21A     -0.526267
      22A     -0.513644    23A     -0.504687    24A     -0.452301
      25A     -0.441740    26A     -0.339461

  @DF-RHF Final Energy:  -322.82544410786039

   => Energetics <=

    Nuclear Repulsion Energy =            291.6499756553377551
    One-Electron Energy =               -1016.1991313286339391
    Two-Electron Energy =                 401.7237115654357353
    Total Energy =                       -322.8254441078603918
  Basis Set: (AUG-CC-PVTZ AUX)
    Blend: AUG-CC-PVTZ-RI
    Molecular point group: c1

    Geometry (in Angstrom), charge = 0, multiplicity = 1:

       Center              X                  Y                   Z               Mass
    ------------   -----------------  -----------------  -----------------  -----------------
         O           -0.815693298687    -1.100555402236    -0.000012103591    15.994914619570
         N           -0.225863298687     1.063498597764     0.000017896409    14.003074004430
         C            1.592587701313    -0.687819402236     0.000024896409    12.000000000000
         C            0.193677701313    -0.174722402236     0.000002896409    12.000000000000
         C            2.611489701313     0.447424597764    -0.000023103591    12.000000000000
         C           -1.965987298687    -0.354038402236    -0.000013103591    12.000000000000
         C           -1.661994198687     0.955757997764     0.000004396409    12.000000000000
         H            1.731706701313    -1.332052402236     0.876432896409     1.007825032230
         H            1.731707701313    -1.332133402236    -0.876322103591     1.007825032230
         H            2.486283701313     1.078949597764    -0.881452103591     1.007825032230
         H            3.626374701313     0.041226597764    -0.000021103591     1.007825032230
         H            2.486303701313     1.079009597764     0.881365896409     1.007825032230
         H           -2.896238298687    -0.900160402236    -0.000005103591     1.007825032230
         H           -2.247832298687     1.833308597764    -0.000007103591     1.007825032230

  Basis Set: AUG-CC-PVTZ
    Blend: AUG-CC-PVTZ
  Basis Set: (AUG-CC-PVTZ AUX)
    Blend: AUG-CC-PVTZ-JKFIT
	 Reference Energy          =    -322.8254441078603918 [Eh]
	 Singles Energy            =      -0.0000000000000000 [Eh]
	 Same-Spin Energy          =      -0.3350049650059390 [Eh]
	 Opposite-Spin Energy      =      -1.0617707513917178 [Eh]
	 Correlation Energy        =      -1.3967757163976569 [Eh]
	 Total Energy              =    -324.2222198242580475 [Eh]

	 ================> DF-SCS-MP2 Energies <==================
	-----------------------------------------------------------
	 SCS Same-Spin Scale       =       0.3333333333333333 [-]
	 SCS Opposite-Spin Scale   =       1.2000000000000000 [-]
	 SCS Same-Spin Energy      =      -0.1116683216686463 [Eh]
	 SCS Opposite-Spin Energy  =      -1.2741249016700613 [Eh]
	 SCS Correlation Energy    =      -1.3857932233387076 [Eh]
	 SCS Total Energy          =    -324.2112373311990723 [Eh]
	-----------------------------------------------------------

  Dipole Moment: [D]
     X:    -0.3973      Y:    -1.1709      Z:    -0.0000     Total:     1.2364

*** Psi4 exiting successfully. Buy a developer a beer!
