                               Psi4 1.3.2 release

  ==> Input File <==

--------------------------------------------------------------------------
#psi4
#
memory 32 gb

molecule  {
0 1
  O       -0.8874150    -1.1053680    -0.0000120
  N       -0.2975850     1.0586860     0.0000180
  C        1.5208660    -0.6926320     0.0000250
  C        0.1379603    -0.1972920     0.0000029
  C        2.5397680     0.4426120    -0.0000230
  C       -2.0377090    -0.3588510    -0.0000130
  C       -1.6838560     0.9546860     0.0000050
  H        1.6599850    -1.3368650     0.8764330
  H        1.6599860    -1.3369460    -0.8763220
  H        2.4145620     1.0741370    -0.8814520
  H        3.5546530     0.0364140    -0.0000210
  H        2.4145820     1.0741970     0.8813660
  H       -2.9679600    -0.9049730    -0.0000050
  H       -2.3195540     1.8284960    -0.0000070
units angstrom
no_reorient  #important for SAPT in psi4, default
symmetry c1  #important for SAPT in psi4, default
}

set PROPERTIES_ORIGIN ["COM"]
properties('MP2/aug-cc-pvtz', properties = ['dipole'])
--------------------------------------------------------------------------

    Molecular point group: c1
  Charge       = 0
  Multiplicity = 1
  Basis Set: AUG-CC-PVTZ
    Blend: AUG-CC-PVTZ
  Basis Set: (AUG-CC-PVTZ AUX)
    Blend: AUG-CC-PVTZ-JKFIT

    Orbital Energies [Eh]
    ---------------------

    Doubly Occupied:

       1A    -20.634888     2A    -15.561221     3A    -11.339983
       4A    -11.290078     5A    -11.260074     6A    -11.248911
       7A    -11.221986     8A     -1.475194     9A     -1.217927
      10A     -1.087190    11A     -0.996681    12A     -0.887434
      13A     -0.825760    14A     -0.779670    15A     -0.716732
      16A     -0.667324    17A     -0.632683    18A     -0.609811
      19A     -0.584963    20A     -0.570325    21A     -0.529933
      22A     -0.516585    23A     -0.506495    24A     -0.453650
      25A     -0.445351    26A     -0.329394

  @DF-RHF Final Energy:  -322.82437561200913

   => Energetics <=

    Nuclear Repulsion Energy =            292.1540867464726148
    One-Electron Energy =               -1017.1764386099613375
    Two-Electron Energy =                 402.1979762514795311
    Total Energy =                       -322.8243756120091348
  Basis Set: (AUG-CC-PVTZ AUX)
    Blend: AUG-CC-PVTZ-RI
    Molecular point group: c1

    Geometry (in Angstrom), charge = 0, multiplicity = 1:

       Center              X                  Y                   Z               Mass
    ------------   -----------------  -----------------  -----------------  -----------------
         O           -0.823837017306    -1.098822357310    -0.000012153048    15.994914619570
         N           -0.234007017306     1.065231642690     0.000017846952    14.003074004430
         C            1.584443982694    -0.686086357310     0.000024846952    12.000000000000
         C            0.201538282694    -0.190746357310     0.000002746952    12.000000000000
         C            2.603345982694     0.449157642690    -0.000023153048    12.000000000000
         C           -1.974131017306    -0.352305357310    -0.000013153048    12.000000000000
         C           -1.620278017306     0.961231642690     0.000004846952    12.000000000000
         H            1.723562982694    -1.330319357310     0.876432846952     1.007825032230
         H            1.723563982694    -1.330400357310    -0.876322153048     1.007825032230
         H            2.478139982694     1.080682642690    -0.881452153048     1.007825032230
         H            3.618230982694     0.042959642690    -0.000021153048     1.007825032230
         H            2.478159982694     1.080742642690     0.881365846952     1.007825032230
         H           -2.904382017306    -0.898427357310    -0.000005153048     1.007825032230
         H           -2.255976017306     1.835041642690    -0.000007153048     1.007825032230

  Basis Set: AUG-CC-PVTZ
    Blend: AUG-CC-PVTZ
  Basis Set: (AUG-CC-PVTZ AUX)
    Blend: AUG-CC-PVTZ-JKFIT
	 Reference Energy          =    -322.8243756120091348 [Eh]
	 Singles Energy            =      -0.0000000000000000 [Eh]
	 Same-Spin Energy          =      -0.3364739126149087 [Eh]
	 Opposite-Spin Energy      =      -1.0628772074189068 [Eh]
	 Correlation Energy        =      -1.3993511200338156 [Eh]
	 Total Energy              =    -324.2237267320429623 [Eh]

	 ================> DF-SCS-MP2 Energies <==================
	-----------------------------------------------------------
	 SCS Same-Spin Scale       =       0.3333333333333333 [-]
	 SCS Opposite-Spin Scale   =       1.2000000000000000 [-]
	 SCS Same-Spin Energy      =      -0.1121579708716362 [Eh]
	 SCS Opposite-Spin Energy  =      -1.2754526489026881 [Eh]
	 SCS Correlation Energy    =      -1.3876106197743243 [Eh]
	 SCS Total Energy          =    -324.2119862317834418 [Eh]
	-----------------------------------------------------------

  Dipole Moment: [D]
     X:    -0.3271      Y:    -1.2264      Z:    -0.0000     Total:     1.2693

*** Psi4 exiting successfully. Buy a developer a beer!
