                               Psi4 1.3.2 release

  ==> Input File <==

--------------------------------------------------------------------------
#psi4
#
memory 32 gb

molecule  {
0 1
  O       -0.9495391    -1.0327026    -0.0000130
  N       -0.2975850     1.0586860     0.0000180
  C        1.5208660    -0.6926320     0.0000250
  C        0.1219560    -0.1795350     0.0000030
  C        2.5397680     0.4426120    -0.0000230
  C       -2.0377090    -0.3588510    -0.0000130
  C       -1.6838560     0.9546860     0.0000050
  H        1.6599850    -1.3368650     0.8764330
  H        1.6599860    -1.3369460    -0.8763220
  H        2.4145620     1.0741370    -0.8814520
  H        3.5546530     0.0364140    -0.0000210
  H        2.4145820     1.0741970     0.8813660
  H       -2.9679600    -0.9049730    -0.0000050
  H       -2.3195540     1.8284960    -0.0000070
units angstrom
no_reorient  #important for SAPT in psi4, default
symmetry c1  #important for SAPT in psi4, default
}

set PROPERTIES_ORIGIN ["COM"]
properties('MP2/aug-cc-pvtz', properties = ['dipole'])
--------------------------------------------------------------------------

    Molecular point group: c1
  Charge       = 0
  Multiplicity = 1
  Basis Set: AUG-CC-PVTZ
    Blend: AUG-CC-PVTZ
  Basis Set: (AUG-CC-PVTZ AUX)
    Blend: AUG-CC-PVTZ-JKFIT

    Orbital Energies [Eh]
    ---------------------

    Doubly Occupied:

       1A    -20.634420     2A    -15.560074     3A    -11.333251
       4A    -11.285623     5A    -11.251849     6A    -11.248771
       7A    -11.222646     8A     -1.509670     9A     -1.225237
      10A     -1.084940    11A     -1.002358    12A     -0.884308
      13A     -0.839304    14A     -0.782262    15A     -0.728296
      16A     -0.679889    17A     -0.639985    18A     -0.616437
      19A     -0.581454    20A     -0.557649    21A     -0.532407
      22A     -0.515906    23A     -0.507245    24A     -0.456079
      25A     -0.445369    26A     -0.325317

  @DF-RHF Final Energy:  -322.82172984994844

   => Energetics <=

    Nuclear Repulsion Energy =            294.2275727187861207
    One-Electron Energy =               -1021.1971113553303212
    Two-Electron Energy =                 404.1478087865958173
    Total Energy =                       -322.8217298499484400
  Basis Set: (AUG-CC-PVTZ AUX)
    Blend: AUG-CC-PVTZ-RI
    Molecular point group: c1

    Geometry (in Angstrom), charge = 0, multiplicity = 1:

       Center              X                  Y                   Z               Mass
    ------------   -----------------  -----------------  -----------------  -----------------
         O           -0.873743832313    -1.040328226774    -0.000013000606    15.994914619570
         N           -0.221789732313     1.051060373226     0.000017999394    14.003074004430
         C            1.596661267687    -0.700257626774     0.000024999394    12.000000000000
         C            0.197751267687    -0.187160626774     0.000002999394    12.000000000000
         C            2.615563267687     0.434986373226    -0.000023000606    12.000000000000
         C           -1.961913732313    -0.366476626774    -0.000013000606    12.000000000000
         C           -1.608060732313     0.947060373226     0.000004999394    12.000000000000
         H            1.735780267687    -1.344490626774     0.876432999394     1.007825032230
         H            1.735781267687    -1.344571626774    -0.876322000606     1.007825032230
         H            2.490357267687     1.066511373226    -0.881452000606     1.007825032230
         H            3.630448267687     0.028788373226    -0.000021000606     1.007825032230
         H            2.490377267687     1.066571373226     0.881365999394     1.007825032230
         H           -2.892164732313    -0.912598626774    -0.000005000606     1.007825032230
         H           -2.243758732313     1.820870373226    -0.000007000606     1.007825032230

  Basis Set: AUG-CC-PVTZ
    Blend: AUG-CC-PVTZ
  Basis Set: (AUG-CC-PVTZ AUX)
    Blend: AUG-CC-PVTZ-JKFIT
	 Reference Energy          =    -322.8217298499484400 [Eh]
	 Singles Energy            =      -0.0000000000000000 [Eh]
	 Same-Spin Energy          =      -0.3361033731696870 [Eh]
	 Opposite-Spin Energy      =      -1.0597874368002640 [Eh]
	 Correlation Energy        =      -1.3958908099699510 [Eh]
	 Total Energy              =    -324.2176206599183956 [Eh]

	 ================> DF-SCS-MP2 Energies <==================
	-----------------------------------------------------------
	 SCS Same-Spin Scale       =       0.3333333333333333 [-]
	 SCS Opposite-Spin Scale   =       1.2000000000000000 [-]
	 SCS Same-Spin Energy      =      -0.1120344577232290 [Eh]
	 SCS Opposite-Spin Energy  =      -1.2717449241603167 [Eh]
	 SCS Correlation Energy    =      -1.3837793818835458 [Eh]
	 SCS Total Energy          =    -324.2055092318319680 [Eh]
	-----------------------------------------------------------

  Dipole Moment: [D]
     X:    -0.2070      Y:    -1.4656      Z:    -0.0000     Total:     1.4801

*** Psi4 exiting successfully. Buy a developer a beer!
