                               Psi4 1.3.2 release

  ==> Input File <==

--------------------------------------------------------------------------
#psi4
#
memory 32 gb

molecule  {
0 1
  O       -0.8874150    -1.1053680    -0.0000120
  N       -0.2541161     1.0725735     0.0000193
  C        1.5208660    -0.6926320     0.0000250
  C        0.1219560    -0.1795350     0.0000030
  C        2.5397680     0.4426120    -0.0000230
  C       -2.0377090    -0.3588510    -0.0000130
  C       -1.6838560     0.9546860     0.0000050
  H        1.6599850    -1.3368650     0.8764330
  H        1.6599860    -1.3369460    -0.8763220
  H        2.4145620     1.0741370    -0.8814520
  H        3.5546530     0.0364140    -0.0000210
  H        2.4145820     1.0741970     0.8813660
  H       -2.9679600    -0.9049730    -0.0000050
  H       -2.3195540     1.8284960    -0.0000070
units angstrom
no_reorient  #important for SAPT in psi4, default
symmetry c1  #important for SAPT in psi4, default
}

set PROPERTIES_ORIGIN ["COM"]
properties('MP2/aug-cc-pvtz', properties = ['dipole'])
--------------------------------------------------------------------------

    Molecular point group: c1
  Charge       = 0
  Multiplicity = 1
  Basis Set: AUG-CC-PVTZ
    Blend: AUG-CC-PVTZ
  Basis Set: (AUG-CC-PVTZ AUX)
    Blend: AUG-CC-PVTZ-JKFIT

    Orbital Energies [Eh]
    ---------------------

    Doubly Occupied:

       1A    -20.634719     2A    -15.565677     3A    -11.338943
       4A    -11.293689     5A    -11.264791     6A    -11.247213
       7A    -11.219770     8A     -1.475983     9A     -1.219530
      10A     -1.080855    11A     -0.997670    12A     -0.884366
      13A     -0.827218    14A     -0.775046    15A     -0.716523
      16A     -0.666806    17A     -0.631021    18A     -0.608577
      19A     -0.578515    20A     -0.572328    21A     -0.525989
      22A     -0.511909    23A     -0.504054    24A     -0.462047
      25A     -0.444881    26A     -0.336498

  @DF-RHF Final Energy:  -322.82451167139675

   => Energetics <=

    Nuclear Repulsion Energy =            291.7152523295802666
    One-Electron Energy =               -1016.3102881842027045
    Two-Electron Energy =                 401.7705241832256888
    Total Energy =                       -322.8245116713967491
  Basis Set: (AUG-CC-PVTZ AUX)
    Blend: AUG-CC-PVTZ-RI
    Molecular point group: c1

    Geometry (in Angstrom), charge = 0, multiplicity = 1:

       Center              X                  Y                   Z               Mass
    ------------   -----------------  -----------------  -----------------  -----------------
         O           -0.828130008120    -1.103021636898    -0.000012352981    15.994914619570
         N           -0.194831108120     1.074919863102     0.000018947019    14.003074004430
         C            1.580150991880    -0.690285636898     0.000024647019    12.000000000000
         C            0.181240991880    -0.177188636898     0.000002647019    12.000000000000
         C            2.599052991880     0.444958363102    -0.000023352981    12.000000000000
         C           -1.978424008120    -0.356504636898    -0.000013352981    12.000000000000
         C           -1.624571008120     0.957032363102     0.000004647019    12.000000000000
         H            1.719269991880    -1.334518636898     0.876432647019     1.007825032230
         H            1.719270991880    -1.334599636898    -0.876322352981     1.007825032230
         H            2.473846991880     1.076483363102    -0.881452352981     1.007825032230
         H            3.613937991880     0.038760363102    -0.000021352981     1.007825032230
         H            2.473866991880     1.076543363102     0.881365647019     1.007825032230
         H           -2.908675008120    -0.902626636898    -0.000005352981     1.007825032230
         H           -2.260269008120     1.830842363102    -0.000007352981     1.007825032230

  Basis Set: AUG-CC-PVTZ
    Blend: AUG-CC-PVTZ
  Basis Set: (AUG-CC-PVTZ AUX)
    Blend: AUG-CC-PVTZ-JKFIT
	 Reference Energy          =    -322.8245116713967491 [Eh]
	 Singles Energy            =      -0.0000000000000000 [Eh]
	 Same-Spin Energy          =      -0.3354168379278707 [Eh]
	 Opposite-Spin Energy      =      -1.0625840103481017 [Eh]
	 Correlation Energy        =      -1.3980008482759725 [Eh]
	 Total Energy              =    -324.2225125196727049 [Eh]

	 ================> DF-SCS-MP2 Energies <==================
	-----------------------------------------------------------
	 SCS Same-Spin Scale       =       0.3333333333333333 [-]
	 SCS Opposite-Spin Scale   =       1.2000000000000000 [-]
	 SCS Same-Spin Energy      =      -0.1118056126426236 [Eh]
	 SCS Opposite-Spin Energy  =      -1.2751008124177219 [Eh]
	 SCS Correlation Energy    =      -1.3869064250603456 [Eh]
	 SCS Total Energy          =    -324.2114180964570664 [Eh]
	-----------------------------------------------------------

  Dipole Moment: [D]
     X:    -0.4499      Y:    -1.2090      Z:    -0.0000     Total:     1.2900

*** Psi4 exiting successfully. Buy a developer a beer!
