                               Psi4 1.4a3.dev225

  ==> Input File <==

--------------------------------------------------------------------------
#psi4
#
memory 32 gb

molecule  {
0 1
  O       -0.8874150    -1.1053680    -0.0000120
  N       -0.2975850     1.0586860     0.0000180
  C        1.5208660    -0.6926320     0.0000250
  C        0.1219560    -0.1795350     0.0000030
  C        2.5397680     0.4426120    -0.0000230
  C       -2.0377090    -0.3588510    -0.0000130
  C       -1.6339961     0.9584266     0.0000055
  H        1.6599850    -1.3368650     0.8764330
  H        1.6599860    -1.3369460    -0.8763220
  H        2.4145620     1.0741370    -0.8814520
  H        3.5546530     0.0364140    -0.0000210
  H        2.4145820     1.0741970     0.8813660
  H       -2.9679600    -0.9049730    -0.0000050
  H       -2.3195540     1.8284960    -0.0000070
units angstrom
no_reorient  #important for SAPT in psi4, default
symmetry c1  #important for SAPT in psi4, default
}

set PROPERTIES_ORIGIN ["COM"]
properties('MP2/aug-cc-pvtz', properties = ['dipole'])
--------------------------------------------------------------------------

    Molecular point group: c1
  Charge       = 0
  Multiplicity = 1
  Basis Set: AUG-CC-PVTZ
    Blend: AUG-CC-PVTZ
  Basis Set: (AUG-CC-PVTZ AUX)
    Blend: AUG-CC-PVTZ-JKFIT

    Orbital Energies [Eh]
    ---------------------

    Doubly Occupied:

       1A    -20.636018     2A    -15.559965     3A    -11.338682
       4A    -11.289122     5A    -11.261756     6A    -11.248950
       7A    -11.221386     8A     -1.478723     9A     -1.241346
      10A     -1.083023    11A     -0.993125    12A     -0.882422
      13A     -0.829158    14A     -0.786120    15A     -0.716166
      16A     -0.668637    17A     -0.631977    18A     -0.609549
      19A     -0.587957    20A     -0.564300    21A     -0.527313
      22A     -0.515610    23A     -0.505314    24A     -0.459950
      25A     -0.458321    26A     -0.324388

  @DF-RHF Final Energy:  -322.82296838598938

   => Energetics <=

    Nuclear Repulsion Energy =            293.0694244525220711
    One-Electron Energy =               -1018.9462291064805868
    Two-Electron Energy =                 403.0538362679691318
    Total Energy =                       -322.8229683859893839
  Basis Set: (AUG-CC-PVTZ AUX)
    Blend: AUG-CC-PVTZ-RI
    Molecular point group: c1

    Geometry (in Angstrom), charge = 0, multiplicity = 1:

       Center              X                  Y                   Z               Mass
    ------------   -----------------  -----------------  -----------------  -----------------
         O           -0.828023061927    -1.101480408351    -0.000012227235    15.994914619570
         N           -0.238193061927     1.062573591649     0.000017772765    14.003074004430
         C            1.580257938073    -0.688744408351     0.000024772765    12.000000000000
         C            0.181347938073    -0.175647408351     0.000002772765    12.000000000000
         C            2.599159938073     0.446499591649    -0.000023227235    12.000000000000
         C           -1.978317061927    -0.354963408351    -0.000013227235    12.000000000000
         C           -1.574604161927     0.962314191649     0.000005272765    12.000000000000
         H            1.719376938073    -1.332977408351     0.876432772765     1.007825032230
         H            1.719377938073    -1.333058408351    -0.876322227235     1.007825032230
         H            2.473953938073     1.078024591649    -0.881452227235     1.007825032230
         H            3.614044938073     0.040301591649    -0.000021227235     1.007825032230
         H            2.473973938073     1.078084591649     0.881365772765     1.007825032230
         H           -2.908568061927    -0.901085408351    -0.000005227235     1.007825032230
         H           -2.260162061927     1.832383591649    -0.000007227235     1.007825032230

  Basis Set: AUG-CC-PVTZ
    Blend: AUG-CC-PVTZ
  Basis Set: (AUG-CC-PVTZ AUX)
    Blend: AUG-CC-PVTZ-JKFIT
	 Reference Energy          =    -322.8229683859893839 [Eh]
	 Singles Energy            =      -0.0000000000000000 [Eh]
	 Same-Spin Energy          =      -0.3367506749493286 [Eh]
	 Opposite-Spin Energy      =      -1.0624259198732586 [Eh]
	 Correlation Energy        =      -1.3991765948225874 [Eh]
	 Total Energy              =    -324.2221449808119473 [Eh]

	 ================> DF-SCS-MP2 Energies <==================
	-----------------------------------------------------------
	 SCS Same-Spin Scale       =       0.3333333333333333 [-]
	 SCS Opposite-Spin Scale   =       1.2000000000000000 [-]
	 SCS Same-Spin Energy      =      -0.1122502249831095 [Eh]
	 SCS Opposite-Spin Energy  =      -1.2749111038479104 [Eh]
	 SCS Correlation Energy    =      -1.3871613288310198 [Eh]
	 SCS Total Energy          =    -324.2101297148204253 [Eh]
	-----------------------------------------------------------

  Dipole Moment: [D]
     X:    -0.3292      Y:    -1.1925      Z:    -0.0000     Total:     1.2371

*** Psi4 exiting successfully. Buy a developer a beer!
