                               Psi4 1.3.2 release

  ==> Input File <==

--------------------------------------------------------------------------
#psi4
#
memory 32 gb

molecule  {
0 1
  O       -0.8874150    -1.1053680    -0.0000120
  N       -0.2975850     1.0586860     0.0000180
  C        1.5208660    -0.6926320     0.0000250
  C        0.1219560    -0.1795350     0.0000030
  C        2.5397680     0.4426120    -0.0000230
  C       -2.0377090    -0.3588510    -0.0000130
  C       -1.7068343     0.9606615     0.0000056
  H        1.6599850    -1.3368650     0.8764330
  H        1.6599860    -1.3369460    -0.8763220
  H        2.4145620     1.0741370    -0.8814520
  H        3.5546530     0.0364140    -0.0000210
  H        2.4145820     1.0741970     0.8813660
  H       -2.9679600    -0.9049730    -0.0000050
  H       -2.3195540     1.8284960    -0.0000070
units angstrom
no_reorient  #important for SAPT in psi4, default
symmetry c1  #important for SAPT in psi4, default
}

set PROPERTIES_ORIGIN ["COM"]
properties('MP2/aug-cc-pvtz', properties = ['dipole'])
--------------------------------------------------------------------------

    Molecular point group: c1
  Charge       = 0
  Multiplicity = 1
  Basis Set: AUG-CC-PVTZ
    Blend: AUG-CC-PVTZ
  Basis Set: (AUG-CC-PVTZ AUX)
    Blend: AUG-CC-PVTZ-JKFIT

    Orbital Energies [Eh]
    ---------------------

    Doubly Occupied:

       1A    -20.634176     2A    -15.561096     3A    -11.337338
       4A    -11.292786     5A    -11.260953     6A    -11.248712
       7A    -11.220591     8A     -1.475684     9A     -1.220093
      10A     -1.082244    11A     -0.998042    12A     -0.884682
      13A     -0.828436    14A     -0.777576    15A     -0.717787
      16A     -0.666535    17A     -0.630798    18A     -0.608992
      19A     -0.587304    20A     -0.573379    21A     -0.526507
      22A     -0.514338    23A     -0.504778    24A     -0.454305
      25A     -0.445777    26A     -0.334158

  @DF-RHF Final Energy:  -322.82642874794101

   => Energetics <=

    Nuclear Repulsion Energy =            291.9020308348675599
    One-Electron Energy =               -1016.6827799856406500
    Two-Electron Energy =                 401.9543204028320815
    Total Energy =                       -322.8264287479410086
  Basis Set: (AUG-CC-PVTZ AUX)
    Blend: AUG-CC-PVTZ-RI
    Molecular point group: c1

    Geometry (in Angstrom), charge = 0, multiplicity = 1:

       Center              X                  Y                   Z               Mass
    ------------   -----------------  -----------------  -----------------  -----------------
         O           -0.819017049472    -1.101756740512    -0.000012239599    15.994914619570
         N           -0.229187049472     1.062297259488     0.000017760401    14.003074004430
         C            1.589263950528    -0.689020740512     0.000024760401    12.000000000000
         C            0.190353950528    -0.175923740512     0.000002760401    12.000000000000
         C            2.608165950528     0.446223259488    -0.000023239599    12.000000000000
         C           -1.969311049472    -0.355239740512    -0.000013239599    12.000000000000
         C           -1.638436349472     0.964272759488     0.000005360401    12.000000000000
         H            1.728382950528    -1.333253740512     0.876432760401     1.007825032230
         H            1.728383950528    -1.333334740512    -0.876322239599     1.007825032230
         H            2.482959950528     1.077748259488    -0.881452239599     1.007825032230
         H            3.623050950528     0.040025259488    -0.000021239599     1.007825032230
         H            2.482979950528     1.077808259488     0.881365760401     1.007825032230
         H           -2.899562049472    -0.901361740512    -0.000005239599     1.007825032230
         H           -2.251156049472     1.832107259488    -0.000007239599     1.007825032230

  Basis Set: AUG-CC-PVTZ
    Blend: AUG-CC-PVTZ
  Basis Set: (AUG-CC-PVTZ AUX)
    Blend: AUG-CC-PVTZ-JKFIT
	 Reference Energy          =    -322.8264287479410086 [Eh]
	 Singles Energy            =      -0.0000000000000000 [Eh]
	 Same-Spin Energy          =      -0.3355176594309989 [Eh]
	 Opposite-Spin Energy      =      -1.0620461827636898 [Eh]
	 Correlation Energy        =      -1.3975638421946888 [Eh]
	 Total Energy              =    -324.2239925901357083 [Eh]

	 ================> DF-SCS-MP2 Energies <==================
	-----------------------------------------------------------
	 SCS Same-Spin Scale       =       0.3333333333333333 [-]
	 SCS Opposite-Spin Scale   =       1.2000000000000000 [-]
	 SCS Same-Spin Energy      =      -0.1118392198103330 [Eh]
	 SCS Opposite-Spin Energy  =      -1.2744554193164277 [Eh]
	 SCS Correlation Energy    =      -1.3862946391267608 [Eh]
	 SCS Total Energy          =    -324.2127233870677969 [Eh]
	-----------------------------------------------------------

  Dipole Moment: [D]
     X:    -0.3848      Y:    -1.1737      Z:    -0.0000     Total:     1.2351

*** Psi4 exiting successfully. Buy a developer a beer!
