                               Psi4 1.3.2 release

  ==> Input File <==

--------------------------------------------------------------------------
#psi4
#
memory 32 gb

molecule  {
0 1
  O       -2.0333080    -0.4946570    -0.2594300
  C       -0.0425170     0.1992980     0.1361180
  C       -0.5796959    -0.6740634    -1.0249826
  C       -1.3382130    -0.0434820     0.9333840
  C        1.2403190    -0.3676220     0.7285870
  C        0.0785870     1.6559510    -0.2923950
  C        2.4113120    -0.4074660    -0.2524220
  H       -0.7841080    -0.2688730    -1.9587990
  H       -0.4364910    -1.7049300    -0.9420770
  H       -1.2533150    -0.8496150     1.6763590
  H       -1.8269820     0.8255510     1.3890460
  H        1.0363310    -1.3847530     1.0869340
  H        1.5166380     0.2228000     1.6126860
  H        0.3782920     2.2853470     0.5530020
  H        0.8158740     1.7811390    -1.0908580
  H       -0.8864940     2.0141160    -0.6640870
  H        2.1439640    -0.9639070    -1.1568140
  H        2.7223560     0.5959580    -0.5532190
  H        3.2771150    -0.9015380     0.1976500
units angstrom
no_reorient  #important for SAPT in psi4, default
symmetry c1  #important for SAPT in psi4, default
}

set PROPERTIES_ORIGIN ["COM"]
properties('MP2/aug-cc-pvtz', properties = ['dipole'])
--------------------------------------------------------------------------

    Molecular point group: c1
  Charge       = 0
  Multiplicity = 1
  Basis Set: AUG-CC-PVTZ
    Blend: AUG-CC-PVTZ
  Basis Set: (AUG-CC-PVTZ AUX)
    Blend: AUG-CC-PVTZ-JKFIT

    Orbital Energies [Eh]
    ---------------------

    Doubly Occupied:

       1A    -20.530136     2A    -11.279536     3A    -11.264601
       4A    -11.245112     5A    -11.227345     6A    -11.223019
       7A    -11.219557     8A     -1.314792     9A     -1.096723
      10A     -0.997109    11A     -0.936717    12A     -0.913425
      13A     -0.846179    14A     -0.739746    15A     -0.669608
      16A     -0.644790    17A     -0.620949    18A     -0.599724
      19A     -0.581323    20A     -0.548116    21A     -0.541136
      22A     -0.529552    23A     -0.512255    24A     -0.502974
      25A     -0.471630    26A     -0.457674    27A     -0.415034
      28A     -0.400668

  @DF-RHF Final Energy:  -309.09563480995757

   => Energetics <=

    Nuclear Repulsion Energy =            328.3294131918491416
    One-Electron Energy =               -1070.1912308478258637
    Two-Electron Energy =                 432.7661828460190918
    Total Energy =                       -309.0956348099575735
  Basis Set: (AUG-CC-PVTZ AUX)
    Blend: AUG-CC-PVTZ-RI
    Molecular point group: c1

    Geometry (in Angstrom), charge = 0, multiplicity = 1:

       Center              X                  Y                   Z               Mass
    ------------   -----------------  -----------------  -----------------  -----------------
         O           -1.988053692059    -0.475709899425    -0.246850247409    15.994914619570
         C            0.002737307941     0.218245100575     0.148697752591    12.000000000000
         C           -0.534441592059    -0.655116299425    -1.012402847409    12.000000000000
         C           -1.292958692059    -0.024534899425     0.945963752591    12.000000000000
         C            1.285573307941    -0.348674899425     0.741166752591    12.000000000000
         C            0.123841307941     1.674898100575    -0.279815247409    12.000000000000
         C            2.456566307941    -0.388518899425    -0.239842247409    12.000000000000
         H           -0.738853692059    -0.249925899425    -1.946219247409     1.007825032230
         H           -0.391236692059    -1.685982899425    -0.929497247409     1.007825032230
         H           -1.208060692059    -0.830667899425     1.688938752591     1.007825032230
         H           -1.781727692059     0.844498100575     1.401625752591     1.007825032230
         H            1.081585307941    -1.365805899425     1.099513752591     1.007825032230
         H            1.561892307941     0.241747100575     1.625265752591     1.007825032230
         H            0.423546307941     2.304294100575     0.565581752591     1.007825032230
         H            0.861128307941     1.800086100575    -1.078278247409     1.007825032230
         H           -0.841239692059     2.033063100575    -0.651507247409     1.007825032230
         H            2.189218307941    -0.944959899425    -1.144234247409     1.007825032230
         H            2.767610307941     0.614905100575    -0.540639247409     1.007825032230
         H            3.322369307941    -0.882590899425     0.210229752591     1.007825032230

  Basis Set: AUG-CC-PVTZ
    Blend: AUG-CC-PVTZ
  Basis Set: (AUG-CC-PVTZ AUX)
    Blend: AUG-CC-PVTZ-JKFIT
	 Reference Energy          =    -309.0956348099575735 [Eh]
	 Singles Energy            =      -0.0000000000000000 [Eh]
	 Same-Spin Energy          =      -0.3211499226129796 [Eh]
	 Opposite-Spin Energy      =      -1.1160635554199936 [Eh]
	 Correlation Energy        =      -1.4372134780329731 [Eh]
	 Total Energy              =    -310.5328482879905323 [Eh]

	 ================> DF-SCS-MP2 Energies <==================
	-----------------------------------------------------------
	 SCS Same-Spin Scale       =       0.3333333333333333 [-]
	 SCS Opposite-Spin Scale   =       1.2000000000000000 [-]
	 SCS Same-Spin Energy      =      -0.1070499742043265 [Eh]
	 SCS Opposite-Spin Energy  =      -1.3392762665039923 [Eh]
	 SCS Correlation Energy    =      -1.4463262407083188 [Eh]
	 SCS Total Energy          =    -310.5419610506659183 [Eh]
	-----------------------------------------------------------

  Dipole Moment: [D]
     X:     2.3680      Y:     0.3392      Z:     0.2470     Total:     2.4049

*** Psi4 exiting successfully. Buy a developer a beer!
