                               Psi4 1.3.2 release

  ==> Input File <==

--------------------------------------------------------------------------
#psi4
#
memory 32 gb

molecule  {
0 1
  O       -2.0333080    -0.4946570    -0.2594300
  C       -0.0170542     0.2062152     0.0899874
  C       -0.7556090    -0.6523520    -0.9323370
  C       -1.3382130    -0.0434820     0.9333840
  C        1.2403190    -0.3676220     0.7285870
  C        0.0785870     1.6559510    -0.2923950
  C        2.4113120    -0.4074660    -0.2524220
  H       -0.7841080    -0.2688730    -1.9587990
  H       -0.4364910    -1.7049300    -0.9420770
  H       -1.2533150    -0.8496150     1.6763590
  H       -1.8269820     0.8255510     1.3890460
  H        1.0363310    -1.3847530     1.0869340
  H        1.5166380     0.2228000     1.6126860
  H        0.3782920     2.2853470     0.5530020
  H        0.8158740     1.7811390    -1.0908580
  H       -0.8864940     2.0141160    -0.6640870
  H        2.1439640    -0.9639070    -1.1568140
  H        2.7223560     0.5959580    -0.5532190
  H        3.2771150    -0.9015380     0.1976500
units angstrom
no_reorient  #important for SAPT in psi4, default
symmetry c1  #important for SAPT in psi4, default
}

set PROPERTIES_ORIGIN ["COM"]
properties('MP2/aug-cc-pvtz', properties = ['dipole'])
--------------------------------------------------------------------------

    Molecular point group: c1
  Charge       = 0
  Multiplicity = 1
  Basis Set: AUG-CC-PVTZ
    Blend: AUG-CC-PVTZ
  Basis Set: (AUG-CC-PVTZ AUX)
    Blend: AUG-CC-PVTZ-JKFIT

    Orbital Energies [Eh]
    ---------------------

    Doubly Occupied:

       1A    -20.546406     2A    -11.274436     3A    -11.273766
       4A    -11.238110     5A    -11.227337     6A    -11.219514
       7A    -11.218149     8A     -1.368827     9A     -1.096968
      10A     -0.997718    11A     -0.927663    12A     -0.915909
      13A     -0.845332    14A     -0.732493    15A     -0.667868
      16A     -0.655729    17A     -0.625956    18A     -0.598848
      19A     -0.576454    20A     -0.559223    21A     -0.541405
      22A     -0.530946    23A     -0.527249    24A     -0.507848
      25A     -0.474363    26A     -0.443705    27A     -0.424069
      28A     -0.409159

  @DF-RHF Final Energy:  -309.12307739296034

   => Energetics <=

    Nuclear Repulsion Energy =            330.2058475727766336
    One-Electron Energy =               -1073.8069529751955997
    Two-Electron Energy =                 434.4780280094586260
    Total Energy =                       -309.1230773929603401
  Basis Set: (AUG-CC-PVTZ AUX)
    Blend: AUG-CC-PVTZ-RI
    Molecular point group: c1

    Geometry (in Angstrom), charge = 0, multiplicity = 1:

       Center              X                  Y                   Z               Mass
    ------------   -----------------  -----------------  -----------------  -----------------
         O           -1.970015676524    -0.479142282953    -0.252427094332    15.994914619570
         C            0.046238123476     0.221729917047     0.096990305668    12.000000000000
         C           -0.692316676524    -0.636837282953    -0.925334094332    12.000000000000
         C           -1.274920676524    -0.027967282953     0.940386905668    12.000000000000
         C            1.303611323476    -0.352107282953     0.735589905668    12.000000000000
         C            0.141879323476     1.671465717047    -0.285392094332    12.000000000000
         C            2.474604323476    -0.391951282953    -0.245419094332    12.000000000000
         H           -0.720815676524    -0.253358282953    -1.951796094332     1.007825032230
         H           -0.373198676524    -1.689415282953    -0.935074094332     1.007825032230
         H           -1.190022676524    -0.834100282953     1.683361905668     1.007825032230
         H           -1.763689676524     0.841065717047     1.396048905668     1.007825032230
         H            1.099623323476    -1.369238282953     1.093936905668     1.007825032230
         H            1.579930323476     0.238314717047     1.619688905668     1.007825032230
         H            0.441584323476     2.300861717047     0.560004905668     1.007825032230
         H            0.879166323476     1.796653717047    -1.083855094332     1.007825032230
         H           -0.823201676524     2.029630717047    -0.657084094332     1.007825032230
         H            2.207256323476    -0.948392282953    -1.149811094332     1.007825032230
         H            2.785648323476     0.611472717047    -0.546216094332     1.007825032230
         H            3.340407323476    -0.886023282953     0.204652905668     1.007825032230

  Basis Set: AUG-CC-PVTZ
    Blend: AUG-CC-PVTZ
  Basis Set: (AUG-CC-PVTZ AUX)
    Blend: AUG-CC-PVTZ-JKFIT
	 Reference Energy          =    -309.1230773929603401 [Eh]
	 Singles Energy            =      -0.0000000000000000 [Eh]
	 Same-Spin Energy          =      -0.3198195647499997 [Eh]
	 Opposite-Spin Energy      =      -1.1106022273308120 [Eh]
	 Correlation Energy        =      -1.4304217920808118 [Eh]
	 Total Energy              =    -310.5534991850411757 [Eh]

	 ================> DF-SCS-MP2 Energies <==================
	-----------------------------------------------------------
	 SCS Same-Spin Scale       =       0.3333333333333333 [-]
	 SCS Opposite-Spin Scale   =       1.2000000000000000 [-]
	 SCS Same-Spin Energy      =      -0.1066065215833332 [Eh]
	 SCS Opposite-Spin Energy  =      -1.3327226727969743 [Eh]
	 SCS Correlation Energy    =      -1.4393291943803075 [Eh]
	 SCS Total Energy          =    -310.5624065873406607 [Eh]
	-----------------------------------------------------------

  Dipole Moment: [D]
     X:     2.0603      Y:     0.4191      Z:     0.5192     Total:     2.1656

*** Psi4 exiting successfully. Buy a developer a beer!
