                               Psi4 1.3.2 release

  ==> Input File <==

--------------------------------------------------------------------------
#psi4
#
memory 32 gb

molecule  {
0 1
  O       -2.0333080    -0.4946570    -0.2594300
  C       -0.0664168     0.1916901     0.1829704
  C       -0.7556090    -0.6523520    -0.9323370
  C       -1.3382130    -0.0434820     0.9333840
  C        1.2403190    -0.3676220     0.7285870
  C        0.0785870     1.6559510    -0.2923950
  C        2.4113120    -0.4074660    -0.2524220
  H       -0.7841080    -0.2688730    -1.9587990
  H       -0.4364910    -1.7049300    -0.9420770
  H       -1.2533150    -0.8496150     1.6763590
  H       -1.8269820     0.8255510     1.3890460
  H        1.0363310    -1.3847530     1.0869340
  H        1.5166380     0.2228000     1.6126860
  H        0.3782920     2.2853470     0.5530020
  H        0.8158740     1.7811390    -1.0908580
  H       -0.8864940     2.0141160    -0.6640870
  H        2.1439640    -0.9639070    -1.1568140
  H        2.7223560     0.5959580    -0.5532190
  H        3.2771150    -0.9015380     0.1976500
units angstrom
no_reorient  #important for SAPT in psi4, default
symmetry c1  #important for SAPT in psi4, default
}

set PROPERTIES_ORIGIN ["COM"]
properties('MP2/aug-cc-pvtz', properties = ['dipole'])
--------------------------------------------------------------------------

    Molecular point group: c1
  Charge       = 0
  Multiplicity = 1
  Basis Set: AUG-CC-PVTZ
    Blend: AUG-CC-PVTZ
  Basis Set: (AUG-CC-PVTZ AUX)
    Blend: AUG-CC-PVTZ-JKFIT

    Orbital Energies [Eh]
    ---------------------

    Doubly Occupied:

       1A    -20.546259     2A    -11.273388     3A    -11.272539
       4A    -11.237532     5A    -11.227357     6A    -11.221610
       7A    -11.219068     8A     -1.371717     9A     -1.094447
      10A     -0.996840    11A     -0.931249    12A     -0.915523
      13A     -0.848676    14A     -0.732305    15A     -0.669951
      16A     -0.653127    17A     -0.625937    18A     -0.600725
      19A     -0.577527    20A     -0.555545    21A     -0.540021
      22A     -0.531029    23A     -0.528484    24A     -0.504449
      25A     -0.466595    26A     -0.450840    27A     -0.432101
      28A     -0.407923

  @DF-RHF Final Energy:  -309.12331217075598

   => Energetics <=

    Nuclear Repulsion Energy =            330.2805409764443425
    One-Electron Energy =               -1073.9421753594581332
    Two-Electron Energy =                 434.5383222122577536
    Total Energy =                       -309.1233121707559803
  Basis Set: (AUG-CC-PVTZ AUX)
    Blend: AUG-CC-PVTZ-RI
    Molecular point group: c1

    Geometry (in Angstrom), charge = 0, multiplicity = 1:

       Center              X                  Y                   Z               Mass
    ------------   -----------------  -----------------  -----------------  -----------------
         O           -1.964097420823    -0.477400817636    -0.263575153182    15.994914619570
         C            0.002793779177     0.208946282364     0.178825246818    12.000000000000
         C           -0.686398420823    -0.635095817636    -0.936482153182    12.000000000000
         C           -1.269002420823    -0.026225817636     0.929238846818    12.000000000000
         C            1.309529579177    -0.350365817636     0.724441846818    12.000000000000
         C            0.147797579177     1.673207182364    -0.296540153182    12.000000000000
         C            2.480522579177    -0.390209817636    -0.256567153182    12.000000000000
         H           -0.714897420823    -0.251616817636    -1.962944153182     1.007825032230
         H           -0.367280420823    -1.687673817636    -0.946222153182     1.007825032230
         H           -1.184104420823    -0.832358817636     1.672213846818     1.007825032230
         H           -1.757771420823     0.842807182364     1.384900846818     1.007825032230
         H            1.105541579177    -1.367496817636     1.082788846818     1.007825032230
         H            1.585848579177     0.240056182364     1.608540846818     1.007825032230
         H            0.447502579177     2.302603182364     0.548856846818     1.007825032230
         H            0.885084579177     1.798395182364    -1.095003153182     1.007825032230
         H           -0.817283420823     2.031372182364    -0.668232153182     1.007825032230
         H            2.213174579177    -0.946650817636    -1.160959153182     1.007825032230
         H            2.791566579177     0.613214182364    -0.557364153182     1.007825032230
         H            3.346325579177    -0.884281817636     0.193504846818     1.007825032230

  Basis Set: AUG-CC-PVTZ
    Blend: AUG-CC-PVTZ
  Basis Set: (AUG-CC-PVTZ AUX)
    Blend: AUG-CC-PVTZ-JKFIT
	 Reference Energy          =    -309.1233121707559803 [Eh]
	 Singles Energy            =      -0.0000000000000000 [Eh]
	 Same-Spin Energy          =      -0.3196614037045691 [Eh]
	 Opposite-Spin Energy      =      -1.1102793768362869 [Eh]
	 Correlation Energy        =      -1.4299407805408559 [Eh]
	 Total Energy              =    -310.5532529512968267 [Eh]

	 ================> DF-SCS-MP2 Energies <==================
	-----------------------------------------------------------
	 SCS Same-Spin Scale       =       0.3333333333333333 [-]
	 SCS Opposite-Spin Scale   =       1.2000000000000000 [-]
	 SCS Same-Spin Energy      =      -0.1065538012348564 [Eh]
	 SCS Opposite-Spin Energy  =      -1.3323352522035441 [Eh]
	 SCS Correlation Energy    =      -1.4388890534384005 [Eh]
	 SCS Total Energy          =    -310.5622012241943821 [Eh]
	-----------------------------------------------------------

  Dipole Moment: [D]
     X:     2.0769      Y:     0.3919      Z:     0.4808     Total:     2.1676

*** Psi4 exiting successfully. Buy a developer a beer!
