                               Psi4 1.3.2 release

  ==> Input File <==

--------------------------------------------------------------------------
#psi4
#
memory 32 gb

molecule  {
0 1
  O       -2.0333080    -0.4946570    -0.2594300
  C       -0.0425170     0.1992980     0.1361180
  C       -0.7357869    -0.7780584    -0.8331886
  C       -1.3382130    -0.0434820     0.9333840
  C        1.2403190    -0.3676220     0.7285870
  C        0.0785870     1.6559510    -0.2923950
  C        2.4113120    -0.4074660    -0.2524220
  H       -0.7841080    -0.2688730    -1.9587990
  H       -0.4364910    -1.7049300    -0.9420770
  H       -1.2533150    -0.8496150     1.6763590
  H       -1.8269820     0.8255510     1.3890460
  H        1.0363310    -1.3847530     1.0869340
  H        1.5166380     0.2228000     1.6126860
  H        0.3782920     2.2853470     0.5530020
  H        0.8158740     1.7811390    -1.0908580
  H       -0.8864940     2.0141160    -0.6640870
  H        2.1439640    -0.9639070    -1.1568140
  H        2.7223560     0.5959580    -0.5532190
  H        3.2771150    -0.9015380     0.1976500
units angstrom
no_reorient  #important for SAPT in psi4, default
symmetry c1  #important for SAPT in psi4, default
}

set PROPERTIES_ORIGIN ["COM"]
properties('MP2/aug-cc-pvtz', properties = ['dipole'])
--------------------------------------------------------------------------

    Molecular point group: c1
  Charge       = 0
  Multiplicity = 1
  Basis Set: AUG-CC-PVTZ
    Blend: AUG-CC-PVTZ
  Basis Set: (AUG-CC-PVTZ AUX)
    Blend: AUG-CC-PVTZ-JKFIT

    Orbital Energies [Eh]
    ---------------------

    Doubly Occupied:

       1A    -20.549809     2A    -11.276986     3A    -11.275527
       4A    -11.238925     5A    -11.226254     6A    -11.220634
       7A    -11.220578     8A     -1.376486     9A     -1.096821
      10A     -0.996330    11A     -0.930587    12A     -0.922891
      13A     -0.846945    14A     -0.748342    15A     -0.660589
      16A     -0.655385    17A     -0.627527    18A     -0.599352
      19A     -0.590860    20A     -0.557900    21A     -0.540087
      22A     -0.532784    23A     -0.513507    24A     -0.509008
      25A     -0.472707    26A     -0.444579    27A     -0.429637
      28A     -0.403064

  @DF-RHF Final Energy:  -309.09567177583335

   => Energetics <=

    Nuclear Repulsion Energy =            330.5368385938986080
    One-Electron Energy =               -1074.3368196734661524
    Two-Electron Energy =                 434.7043093037341350
    Total Energy =                       -309.0956717758333525
  Basis Set: (AUG-CC-PVTZ AUX)
    Blend: AUG-CC-PVTZ-RI
    Molecular point group: c1

    Geometry (in Angstrom), charge = 0, multiplicity = 1:

       Center              X                  Y                   Z               Mass
    ------------   -----------------  -----------------  -----------------  -----------------
         O           -1.969339393165    -0.463241573170    -0.269845104525    15.994914619570
         C            0.021451606835     0.230713426830     0.125702895475    12.000000000000
         C           -0.671818293165    -0.746642973170    -0.843603704525    12.000000000000
         C           -1.274244393165    -0.012066573170     0.922968895475    12.000000000000
         C            1.304287606835    -0.336206573170     0.718171895475    12.000000000000
         C            0.142555606835     1.687366426830    -0.302810104525    12.000000000000
         C            2.475280606835    -0.376050573170    -0.262837104525    12.000000000000
         H           -0.720139393165    -0.237457573170    -1.969214104525     1.007825032230
         H           -0.372522393165    -1.673514573170    -0.952492104525     1.007825032230
         H           -1.189346393165    -0.818199573170     1.665943895475     1.007825032230
         H           -1.763013393165     0.856966426830     1.378630895475     1.007825032230
         H            1.100299606835    -1.353337573170     1.076518895475     1.007825032230
         H            1.580606606835     0.254215426830     1.602270895475     1.007825032230
         H            0.442260606835     2.316762426830     0.542586895475     1.007825032230
         H            0.879842606835     1.812554426830    -1.101273104525     1.007825032230
         H           -0.822525393165     2.045531426830    -0.674502104525     1.007825032230
         H            2.207932606835    -0.932491573170    -1.167229104525     1.007825032230
         H            2.786324606835     0.627373426830    -0.563634104525     1.007825032230
         H            3.341083606835    -0.870122573170     0.187234895475     1.007825032230

  Basis Set: AUG-CC-PVTZ
    Blend: AUG-CC-PVTZ
  Basis Set: (AUG-CC-PVTZ AUX)
    Blend: AUG-CC-PVTZ-JKFIT
	 Reference Energy          =    -309.0956717758333525 [Eh]
	 Singles Energy            =      -0.0000000000000000 [Eh]
	 Same-Spin Energy          =      -0.3203385169659487 [Eh]
	 Opposite-Spin Energy      =      -1.1117566040964069 [Eh]
	 Correlation Energy        =      -1.4320951210623556 [Eh]
	 Total Energy              =    -310.5277668968956846 [Eh]

	 ================> DF-SCS-MP2 Energies <==================
	-----------------------------------------------------------
	 SCS Same-Spin Scale       =       0.3333333333333333 [-]
	 SCS Opposite-Spin Scale   =       1.2000000000000000 [-]
	 SCS Same-Spin Energy      =      -0.1067795056553162 [Eh]
	 SCS Opposite-Spin Energy  =      -1.3341079249156882 [Eh]
	 SCS Correlation Energy    =      -1.4408874305710044 [Eh]
	 SCS Total Energy          =    -310.5365592064043767 [Eh]
	-----------------------------------------------------------

  Dipole Moment: [D]
     X:     2.0502      Y:     0.2808      Z:     0.7186     Total:     2.1905

*** Psi4 exiting successfully. Buy a developer a beer!
