                               Psi4 1.3.2 release

  ==> Input File <==

--------------------------------------------------------------------------
#psi4
#
memory 32 gb

molecule  {
0 1
  O       -2.0333080    -0.4946570    -0.2594300
  C       -0.0425170     0.1992980     0.1361180
  C       -0.7581577    -0.6304550    -0.9477511
  C       -1.3382130    -0.0434820     0.9333840
  C        1.2403190    -0.3676220     0.7285870
  C        0.0785870     1.6559510    -0.2923950
  C        2.4113120    -0.4074660    -0.2524220
  H       -0.7841080    -0.2688730    -1.9587990
  H       -0.4364910    -1.7049300    -0.9420770
  H       -1.2533150    -0.8496150     1.6763590
  H       -1.8269820     0.8255510     1.3890460
  H        1.0363310    -1.3847530     1.0869340
  H        1.5166380     0.2228000     1.6126860
  H        0.3782920     2.2853470     0.5530020
  H        0.8158740     1.7811390    -1.0908580
  H       -0.8864940     2.0141160    -0.6640870
  H        2.1439640    -0.9639070    -1.1568140
  H        2.7223560     0.5959580    -0.5532190
  H        3.2771150    -0.9015380     0.1976500
units angstrom
no_reorient  #important for SAPT in psi4, default
symmetry c1  #important for SAPT in psi4, default
}

set PROPERTIES_ORIGIN ["COM"]
properties('MP2/aug-cc-pvtz', properties = ['dipole'])
--------------------------------------------------------------------------

    Molecular point group: c1
  Charge       = 0
  Multiplicity = 1
  Basis Set: AUG-CC-PVTZ
    Blend: AUG-CC-PVTZ
  Basis Set: (AUG-CC-PVTZ AUX)
    Blend: AUG-CC-PVTZ-JKFIT

    Orbital Energies [Eh]
    ---------------------

    Doubly Occupied:

       1A    -20.546113     2A    -11.273895     3A    -11.273101
       4A    -11.237744     5A    -11.227418     6A    -11.220482
       7A    -11.218312     8A     -1.369079     9A     -1.095449
      10A     -0.997180    11A     -0.929267    12A     -0.915733
      13A     -0.847108    14A     -0.732281    15A     -0.669876
      16A     -0.654521    17A     -0.625606    18A     -0.599784
      19A     -0.573871    20A     -0.557118    21A     -0.541059
      22A     -0.532406    23A     -0.528055    24A     -0.505412
      25A     -0.470654    26A     -0.440206    27A     -0.435773
      28A     -0.409124

  @DF-RHF Final Energy:  -309.12497755663094

   => Energetics <=

    Nuclear Repulsion Energy =            330.2064148200703926
    One-Electron Energy =               -1073.8095304833530008
    Two-Electron Energy =                 434.4781381066516133
    Total Energy =                       -309.1249775566309381
  Basis Set: (AUG-CC-PVTZ AUX)
    Blend: AUG-CC-PVTZ-RI
    Molecular point group: c1

    Geometry (in Angstrom), charge = 0, multiplicity = 1:

       Center              X                  Y                   Z               Mass
    ------------   -----------------  -----------------  -----------------  -----------------
         O           -1.966657279284    -0.480938263853    -0.256109803533    15.994914619570
         C            0.024133720716     0.213016736147     0.139438196467    12.000000000000
         C           -0.691506979284    -0.616736263853    -0.944430903533    12.000000000000
         C           -1.271562279284    -0.029763263853     0.936704196467    12.000000000000
         C            1.306969720716    -0.353903263853     0.731907196467    12.000000000000
         C            0.145237720716     1.669669736147    -0.289074803533    12.000000000000
         C            2.477962720716    -0.393747263853    -0.249101803533    12.000000000000
         H           -0.717457279284    -0.255154263853    -1.955478803533     1.007825032230
         H           -0.369840279284    -1.691211263853    -0.938756803533     1.007825032230
         H           -1.186664279284    -0.835896263853     1.679679196467     1.007825032230
         H           -1.760331279284     0.839269736147     1.392366196467     1.007825032230
         H            1.102981720716    -1.371034263853     1.090254196467     1.007825032230
         H            1.583288720716     0.236518736147     1.616006196467     1.007825032230
         H            0.444942720716     2.299065736147     0.556322196467     1.007825032230
         H            0.882524720716     1.794857736147    -1.087537803533     1.007825032230
         H           -0.819843279284     2.027834736147    -0.660766803533     1.007825032230
         H            2.210614720716    -0.950188263853    -1.153493803533     1.007825032230
         H            2.789006720716     0.609676736147    -0.549898803533     1.007825032230
         H            3.343765720716    -0.887819263853     0.200970196467     1.007825032230

  Basis Set: AUG-CC-PVTZ
    Blend: AUG-CC-PVTZ
  Basis Set: (AUG-CC-PVTZ AUX)
    Blend: AUG-CC-PVTZ-JKFIT
	 Reference Energy          =    -309.1249775566309381 [Eh]
	 Singles Energy            =      -0.0000000000000000 [Eh]
	 Same-Spin Energy          =      -0.3196084139518999 [Eh]
	 Opposite-Spin Energy      =      -1.1102663902222552 [Eh]
	 Correlation Energy        =      -1.4298748041741551 [Eh]
	 Total Energy              =    -310.5548523608051141 [Eh]

	 ================> DF-SCS-MP2 Energies <==================
	-----------------------------------------------------------
	 SCS Same-Spin Scale       =       0.3333333333333333 [-]
	 SCS Opposite-Spin Scale   =       1.2000000000000000 [-]
	 SCS Same-Spin Energy      =      -0.1065361379839666 [Eh]
	 SCS Opposite-Spin Energy  =      -1.3323196682667062 [Eh]
	 SCS Correlation Energy    =      -1.4388558062506729 [Eh]
	 SCS Total Energy          =    -310.5638333628816099 [Eh]
	-----------------------------------------------------------

  Dipole Moment: [D]
     X:     2.0660      Y:     0.4360      Z:     0.4768     Total:     2.1646

*** Psi4 exiting successfully. Buy a developer a beer!
