                               Psi4 1.3.2 release

  ==> Input File <==

--------------------------------------------------------------------------
#psi4
#
memory 32 gb

molecule  {
0 1
  O       -2.0333080    -0.4946570    -0.2594300
  C       -0.0425170     0.1992980     0.1361180
  C       -0.7556090    -0.6523520    -0.9323370
  C       -1.3382130    -0.0434820     0.9333840
  C        1.3245761    -0.4048575     0.7675006
  C        0.0785870     1.6559510    -0.2923950
  C        2.4113120    -0.4074660    -0.2524220
  H       -0.7841080    -0.2688730    -1.9587990
  H       -0.4364910    -1.7049300    -0.9420770
  H       -1.2533150    -0.8496150     1.6763590
  H       -1.8269820     0.8255510     1.3890460
  H        1.0363310    -1.3847530     1.0869340
  H        1.5166380     0.2228000     1.6126860
  H        0.3782920     2.2853470     0.5530020
  H        0.8158740     1.7811390    -1.0908580
  H       -0.8864940     2.0141160    -0.6640870
  H        2.1439640    -0.9639070    -1.1568140
  H        2.7223560     0.5959580    -0.5532190
  H        3.2771150    -0.9015380     0.1976500
units angstrom
no_reorient  #important for SAPT in psi4, default
symmetry c1  #important for SAPT in psi4, default
}

set PROPERTIES_ORIGIN ["COM"]
properties('MP2/aug-cc-pvtz', properties = ['dipole'])
--------------------------------------------------------------------------

    Molecular point group: c1
  Charge       = 0
  Multiplicity = 1
  Basis Set: AUG-CC-PVTZ
    Blend: AUG-CC-PVTZ
  Basis Set: (AUG-CC-PVTZ AUX)
    Blend: AUG-CC-PVTZ-JKFIT

    Orbital Energies [Eh]
    ---------------------

    Doubly Occupied:

       1A    -20.545818     2A    -11.273071     3A    -11.272581
       4A    -11.239993     5A    -11.225968     6A    -11.219112
       7A    -11.217926     8A     -1.369426     9A     -1.086934
      10A     -1.004288    11A     -0.927172    12A     -0.913782
      13A     -0.845229    14A     -0.730767    15A     -0.667588
      16A     -0.647693    17A     -0.628743    18A     -0.601406
      19A     -0.576317    20A     -0.557283    21A     -0.540954
      22A     -0.540531    23A     -0.528125    24A     -0.508788
      25A     -0.472289    26A     -0.440253    27A     -0.418492
      28A     -0.409916

  @DF-RHF Final Energy:  -309.11790410251922

   => Energetics <=

    Nuclear Repulsion Energy =            328.9585569122936022
    One-Electron Energy =               -1071.3320359553019898
    Two-Electron Energy =                 433.2555749404891685
    Total Energy =                       -309.1179041025192191
  Basis Set: (AUG-CC-PVTZ AUX)
    Blend: AUG-CC-PVTZ-RI
    Molecular point group: c1

    Geometry (in Angstrom), charge = 0, multiplicity = 1:

       Center              X                  Y                   Z               Mass
    ------------   -----------------  -----------------  -----------------  -----------------
         O           -1.977064731905    -0.473848660484    -0.262623342533    15.994914619570
         C            0.013726268095     0.220106339516     0.132924657467    12.000000000000
         C           -0.699365731905    -0.631543660484    -0.935530342533    12.000000000000
         C           -1.281969731905    -0.022673660484     0.930190657467    12.000000000000
         C            1.380819368095    -0.384049160484     0.764307257467    12.000000000000
         C            0.134830268095     1.676759339516    -0.295588342533    12.000000000000
         C            2.467555268095    -0.386657660484    -0.255615342533    12.000000000000
         H           -0.727864731905    -0.248064660484    -1.961992342533     1.007825032230
         H           -0.380247731905    -1.684121660484    -0.945270342533     1.007825032230
         H           -1.197071731905    -0.828806660484     1.673165657467     1.007825032230
         H           -1.770738731905     0.846359339516     1.385852657467     1.007825032230
         H            1.092574268095    -1.363944660484     1.083740657467     1.007825032230
         H            1.572881268095     0.243608339516     1.609492657467     1.007825032230
         H            0.434535268095     2.306155339516     0.549808657467     1.007825032230
         H            0.872117268095     1.801947339516    -1.094051342533     1.007825032230
         H           -0.830250731905     2.034924339516    -0.667280342533     1.007825032230
         H            2.200207268095    -0.943098660484    -1.160007342533     1.007825032230
         H            2.778599268095     0.616766339516    -0.556412342533     1.007825032230
         H            3.333358268095    -0.880729660484     0.194456657467     1.007825032230

  Basis Set: AUG-CC-PVTZ
    Blend: AUG-CC-PVTZ
  Basis Set: (AUG-CC-PVTZ AUX)
    Blend: AUG-CC-PVTZ-JKFIT
	 Reference Energy          =    -309.1179041025192191 [Eh]
	 Singles Energy            =      -0.0000000000000000 [Eh]
	 Same-Spin Energy          =      -0.3195728923363692 [Eh]
	 Opposite-Spin Energy      =      -1.1103871213409280 [Eh]
	 Correlation Energy        =      -1.4299600136772972 [Eh]
	 Total Energy              =    -310.5478641161965356 [Eh]

	 ================> DF-SCS-MP2 Energies <==================
	-----------------------------------------------------------
	 SCS Same-Spin Scale       =       0.3333333333333333 [-]
	 SCS Opposite-Spin Scale   =       1.2000000000000000 [-]
	 SCS Same-Spin Energy      =      -0.1065242974454564 [Eh]
	 SCS Opposite-Spin Energy  =      -1.3324645456091135 [Eh]
	 SCS Correlation Energy    =      -1.4389888430545699 [Eh]
	 SCS Total Energy          =    -310.5568929455737930 [Eh]
	-----------------------------------------------------------

  Dipole Moment: [D]
     X:     2.0901      Y:     0.4031      Z:     0.5075     Total:     2.1883

*** Psi4 exiting successfully. Buy a developer a beer!
