                               Psi4 1.4a3.dev225

  ==> Input File <==

--------------------------------------------------------------------------
#psi4
#
memory 32 gb

molecule  {
0 1
  O       -2.0333080    -0.4946570    -0.2594300
  C       -0.0425170     0.1992980     0.1361180
  C       -0.7732003    -0.6501809    -0.9230724
  C       -1.3382130    -0.0434820     0.9333840
  C        1.2403190    -0.3676220     0.7285870
  C        0.0785870     1.6559510    -0.2923950
  C        2.4113120    -0.4074660    -0.2524220
  H       -0.7841080    -0.2688730    -1.9587990
  H       -0.4364910    -1.7049300    -0.9420770
  H       -1.2533150    -0.8496150     1.6763590
  H       -1.8269820     0.8255510     1.3890460
  H        1.0363310    -1.3847530     1.0869340
  H        1.5166380     0.2228000     1.6126860
  H        0.3782920     2.2853470     0.5530020
  H        0.8158740     1.7811390    -1.0908580
  H       -0.8864940     2.0141160    -0.6640870
  H        2.1439640    -0.9639070    -1.1568140
  H        2.7223560     0.5959580    -0.5532190
  H        3.2771150    -0.9015380     0.1976500
units angstrom
no_reorient  #important for SAPT in psi4, default
symmetry c1  #important for SAPT in psi4, default
}

set PROPERTIES_ORIGIN ["COM"]
properties('MP2/aug-cc-pvtz', properties = ['dipole'])
--------------------------------------------------------------------------

    Molecular point group: c1
  Charge       = 0
  Multiplicity = 1
  Basis Set: AUG-CC-PVTZ
    Blend: AUG-CC-PVTZ
  Basis Set: (AUG-CC-PVTZ AUX)
    Blend: AUG-CC-PVTZ-JKFIT

    Orbital Energies [Eh]
    ---------------------

    Doubly Occupied:

       1A    -20.547841     2A    -11.274414     3A    -11.274029
       4A    -11.236921     5A    -11.227180     6A    -11.220275
       7A    -11.218419     8A     -1.377534     9A     -1.095456
      10A     -0.997023    11A     -0.928757    12A     -0.916352
      13A     -0.846972    14A     -0.731566    15A     -0.669568
      16A     -0.655917    17A     -0.627330    18A     -0.600519
      19A     -0.576620    20A     -0.559333    21A     -0.540518
      22A     -0.532130    23A     -0.527231    24A     -0.505879
      25A     -0.470861    26A     -0.439281    27A     -0.434348
      28A     -0.410045

  @DF-RHF Final Energy:  -309.12587124059326

   => Energetics <=

    Nuclear Repulsion Energy =            330.4618247703596126
    One-Electron Energy =               -1074.2907523440972000
    Two-Electron Energy =                 434.7030563331443318
    Total Energy =                       -309.1258712405932556
  Basis Set: (AUG-CC-PVTZ AUX)
    Blend: AUG-CC-PVTZ-RI
    Molecular point group: c1

    Geometry (in Angstrom), charge = 0, multiplicity = 1:

       Center              X                  Y                   Z               Mass
    ------------   -----------------  -----------------  -----------------  -----------------
         O           -1.964853769072    -0.478573256334    -0.259068619660    15.994914619570
         C            0.025937230928     0.215381743666     0.136479380340    12.000000000000
         C           -0.704746069072    -0.634097156334    -0.922711019660    12.000000000000
         C           -1.269758769072    -0.027398256334     0.933745380340    12.000000000000
         C            1.308773230928    -0.351538256334     0.728948380340    12.000000000000
         C            0.147041230928     1.672034743666    -0.292033619660    12.000000000000
         C            2.479766230928    -0.391382256334    -0.252060619660    12.000000000000
         H           -0.715653769072    -0.252789256334    -1.958437619660     1.007825032230
         H           -0.368036769072    -1.688846256334    -0.941715619660     1.007825032230
         H           -1.184860769072    -0.833531256334     1.676720380340     1.007825032230
         H           -1.758527769072     0.841634743666     1.389407380340     1.007825032230
         H            1.104785230928    -1.368669256334     1.087295380340     1.007825032230
         H            1.585092230928     0.238883743666     1.613047380340     1.007825032230
         H            0.446746230928     2.301430743666     0.553363380340     1.007825032230
         H            0.884328230928     1.797222743666    -1.090496619660     1.007825032230
         H           -0.818039769072     2.030199743666    -0.663725619660     1.007825032230
         H            2.212418230928    -0.947823256334    -1.156452619660     1.007825032230
         H            2.790810230928     0.612041743666    -0.552857619660     1.007825032230
         H            3.345569230928    -0.885454256334     0.198011380340     1.007825032230

  Basis Set: AUG-CC-PVTZ
    Blend: AUG-CC-PVTZ
  Basis Set: (AUG-CC-PVTZ AUX)
    Blend: AUG-CC-PVTZ-JKFIT
	 Reference Energy          =    -309.1258712405932556 [Eh]
	 Singles Energy            =      -0.0000000000000000 [Eh]
	 Same-Spin Energy          =      -0.3195824913447409 [Eh]
	 Opposite-Spin Energy      =      -1.1098280591614975 [Eh]
	 Correlation Energy        =      -1.4294105505062384 [Eh]
	 Total Energy              =    -310.5552817910995032 [Eh]

	 ================> DF-SCS-MP2 Energies <==================
	-----------------------------------------------------------
	 SCS Same-Spin Scale       =       0.3333333333333333 [-]
	 SCS Opposite-Spin Scale   =       1.2000000000000000 [-]
	 SCS Same-Spin Energy      =      -0.1065274971149136 [Eh]
	 SCS Opposite-Spin Energy  =      -1.3317936709937970 [Eh]
	 SCS Correlation Energy    =      -1.4383211681087107 [Eh]
	 SCS Total Energy          =    -310.5641924087019561 [Eh]
	-----------------------------------------------------------

  Dipole Moment: [D]
     X:     2.0241      Y:     0.4191      Z:     0.5400     Total:     2.1364

*** Psi4 exiting successfully. Buy a developer a beer!
