                               Psi4 1.3.2 release

  ==> Input File <==

--------------------------------------------------------------------------
#psi4
#
memory 32 gb

molecule  {
0 1
  O       -2.0333080    -0.4946570    -0.2594300
  C       -0.0425170     0.1992980     0.1361180
  C       -0.7556090    -0.6523520    -0.9323370
  C       -1.3382130    -0.0434820     0.9333840
  C        1.2403190    -0.3676220     0.7285870
  C        0.0785870     1.6559510    -0.2923950
  C        2.4113120    -0.4074660    -0.2524220
  H       -0.7789081    -0.3388429    -1.7715100
  H       -0.4364910    -1.7049300    -0.9420770
  H       -1.2533150    -0.8496150     1.6763590
  H       -1.8269820     0.8255510     1.3890460
  H        1.0363310    -1.3847530     1.0869340
  H        1.5166380     0.2228000     1.6126860
  H        0.3782920     2.2853470     0.5530020
  H        0.8158740     1.7811390    -1.0908580
  H       -0.8864940     2.0141160    -0.6640870
  H        2.1439640    -0.9639070    -1.1568140
  H        2.7223560     0.5959580    -0.5532190
  H        3.2771150    -0.9015380     0.1976500
units angstrom
no_reorient  #important for SAPT in psi4, default
symmetry c1  #important for SAPT in psi4, default
}

set PROPERTIES_ORIGIN ["COM"]
properties('MP2/aug-cc-pvtz', properties = ['dipole'])
--------------------------------------------------------------------------

    Molecular point group: c1
  Charge       = 0
  Multiplicity = 1
  Basis Set: AUG-CC-PVTZ
    Blend: AUG-CC-PVTZ
  Basis Set: (AUG-CC-PVTZ AUX)
    Blend: AUG-CC-PVTZ-JKFIT

    Orbital Energies [Eh]
    ---------------------

    Doubly Occupied:

       1A    -20.543568     2A    -11.271796     3A    -11.249062
       4A    -11.235759     5A    -11.226268     6A    -11.220321
       7A    -11.218456     8A     -1.368781     9A     -1.095007
      10A     -0.997176    11A     -0.951633    12A     -0.917353
      13A     -0.848273    14A     -0.746571    15A     -0.682686
      16A     -0.654598    17A     -0.625075    18A     -0.599416
      19A     -0.578486    20A     -0.556813    21A     -0.547232
      22A     -0.534985    23A     -0.528402    24A     -0.505448
      25A     -0.470222    26A     -0.440080    27A     -0.435221
      28A     -0.411191

  @DF-RHF Final Energy:  -309.09316772130961

   => Energetics <=

    Nuclear Repulsion Energy =            331.3882554383072829
    One-Electron Energy =               -1076.0430846227200163
    Two-Electron Energy =                 435.5616614631031212
    Total Energy =                       -309.0931677213096123
  Basis Set: (AUG-CC-PVTZ AUX)
    Blend: AUG-CC-PVTZ-RI
    Molecular point group: c1

    Geometry (in Angstrom), charge = 0, multiplicity = 1:

       Center              X                  Y                   Z               Mass
    ------------   -----------------  -----------------  -----------------  -----------------
         O           -1.967015211281    -0.477608407098    -0.259843724676    15.994914619570
         C            0.023775788719     0.216346592902     0.135704275324    12.000000000000
         C           -0.689316211281    -0.635303407098    -0.932750724676    12.000000000000
         C           -1.271920211281    -0.026433407098     0.932970275324    12.000000000000
         C            1.306611788719    -0.350573407098     0.728173275324    12.000000000000
         C            0.144879788719     1.672999592902    -0.292808724676    12.000000000000
         C            2.477604788719    -0.390417407098    -0.252835724676    12.000000000000
         H           -0.712615311281    -0.321794307098    -1.771923724676     1.007825032230
         H           -0.370198211281    -1.687881407098    -0.942490724676     1.007825032230
         H           -1.187022211281    -0.832566407098     1.675945275324     1.007825032230
         H           -1.760689211281     0.842599592902     1.388632275324     1.007825032230
         H            1.102623788719    -1.367704407098     1.086520275324     1.007825032230
         H            1.582930788719     0.239848592902     1.612272275324     1.007825032230
         H            0.444584788719     2.302395592902     0.552588275324     1.007825032230
         H            0.882166788719     1.798187592902    -1.091271724676     1.007825032230
         H           -0.820201211281     2.031164592902    -0.664500724676     1.007825032230
         H            2.210256788719    -0.946858407098    -1.157227724676     1.007825032230
         H            2.788648788719     0.613006592902    -0.553632724676     1.007825032230
         H            3.343407788719    -0.884489407098     0.197236275324     1.007825032230

  Basis Set: AUG-CC-PVTZ
    Blend: AUG-CC-PVTZ
  Basis Set: (AUG-CC-PVTZ AUX)
    Blend: AUG-CC-PVTZ-JKFIT
	 Reference Energy          =    -309.0931677213096123 [Eh]
	 Singles Energy            =      -0.0000000000000000 [Eh]
	 Same-Spin Energy          =      -0.3194618712495499 [Eh]
	 Opposite-Spin Energy      =      -1.1093626946500530 [Eh]
	 Correlation Energy        =      -1.4288245658996028 [Eh]
	 Total Energy              =    -310.5219922872092297 [Eh]

	 ================> DF-SCS-MP2 Energies <==================
	-----------------------------------------------------------
	 SCS Same-Spin Scale       =       0.3333333333333333 [-]
	 SCS Opposite-Spin Scale   =       1.2000000000000000 [-]
	 SCS Same-Spin Energy      =      -0.1064872904165166 [Eh]
	 SCS Opposite-Spin Energy  =      -1.3312352335800635 [Eh]
	 SCS Correlation Energy    =      -1.4377225239965801 [Eh]
	 SCS Total Energy          =    -310.5308902453061819 [Eh]
	-----------------------------------------------------------

  Dipole Moment: [D]
     X:     2.0792      Y:     0.4087      Z:     0.3894     Total:     2.1545

*** Psi4 exiting successfully. Buy a developer a beer!
