                               Psi4 1.3.2 release

  ==> Input File <==

--------------------------------------------------------------------------
#psi4
#
memory 32 gb

molecule  {
0 1
  O       -2.0333080    -0.4946570    -0.2594300
  C       -0.0425170     0.1992980     0.1361180
  C       -0.7556090    -0.6523520    -0.9323370
  C       -1.3382130    -0.0434820     0.9333840
  C        1.2403190    -0.3676220     0.7285870
  C        0.0785870     1.6559510    -0.2923950
  C        2.4113120    -0.4074660    -0.2524220
  H       -0.7841080    -0.2688730    -1.9587990
  H       -0.4364910    -1.7049300    -0.9420770
  H       -1.2877104    -0.8030997     1.7267946
  H       -1.8269820     0.8255510     1.3890460
  H        1.0363310    -1.3847530     1.0869340
  H        1.5166380     0.2228000     1.6126860
  H        0.3782920     2.2853470     0.5530020
  H        0.8158740     1.7811390    -1.0908580
  H       -0.8864940     2.0141160    -0.6640870
  H        2.1439640    -0.9639070    -1.1568140
  H        2.7223560     0.5959580    -0.5532190
  H        3.2771150    -0.9015380     0.1976500
units angstrom
no_reorient  #important for SAPT in psi4, default
symmetry c1  #important for SAPT in psi4, default
}

set PROPERTIES_ORIGIN ["COM"]
properties('MP2/aug-cc-pvtz', properties = ['dipole'])
--------------------------------------------------------------------------

    Molecular point group: c1
  Charge       = 0
  Multiplicity = 1
  Basis Set: AUG-CC-PVTZ
    Blend: AUG-CC-PVTZ
  Basis Set: (AUG-CC-PVTZ AUX)
    Blend: AUG-CC-PVTZ-JKFIT

    Orbital Energies [Eh]
    ---------------------

    Doubly Occupied:

       1A    -20.547287     2A    -11.273982     3A    -11.273121
       4A    -11.238179     5A    -11.227083     6A    -11.220402
       7A    -11.218608     8A     -1.370484     9A     -1.095433
      10A     -0.996926    11A     -0.928946    12A     -0.916594
      13A     -0.847102    14A     -0.734414    15A     -0.666709
      16A     -0.655291    17A     -0.625754    18A     -0.599586
      19A     -0.576124    20A     -0.557146    21A     -0.540741
      22A     -0.531262    23A     -0.526360    24A     -0.505909
      25A     -0.470827    26A     -0.439171    27A     -0.436737
      28A     -0.410346

  @DF-RHF Final Energy:  -309.12514194506940

   => Energetics <=

    Nuclear Repulsion Energy =            330.1501807987098687
    One-Electron Energy =               -1073.6895964672000900
    Two-Electron Energy =                 434.4142737234207630
    Total Energy =                       -309.1251419450694016
  Basis Set: (AUG-CC-PVTZ AUX)
    Blend: AUG-CC-PVTZ-RI
    Molecular point group: c1

    Geometry (in Angstrom), charge = 0, multiplicity = 1:

       Center              X                  Y                   Z               Mass
    ------------   -----------------  -----------------  -----------------  -----------------
         O           -1.966616514039    -0.478781332369    -0.258465705740    15.994914619570
         C            0.024174485961     0.215173667631     0.137082294260    12.000000000000
         C           -0.688917514039    -0.636476332369    -0.931372705740    12.000000000000
         C           -1.271521514039    -0.027606332369     0.934348294260    12.000000000000
         C            1.307010485961    -0.351746332369     0.729551294260    12.000000000000
         C            0.145278485961     1.671826667631    -0.291430705740    12.000000000000
         C            2.478003485961    -0.391590332369    -0.251457705740    12.000000000000
         H           -0.717416514039    -0.252997332369    -1.957834705740     1.007825032230
         H           -0.369799514039    -1.689054332369    -0.941112705740     1.007825032230
         H           -1.221018914039    -0.787224032369     1.727758894260     1.007825032230
         H           -1.760290514039     0.841426667631     1.390010294260     1.007825032230
         H            1.103022485961    -1.368877332369     1.087898294260     1.007825032230
         H            1.583329485961     0.238675667631     1.613650294260     1.007825032230
         H            0.444983485961     2.301222667631     0.553966294260     1.007825032230
         H            0.882565485961     1.797014667631    -1.089893705740     1.007825032230
         H           -0.819802514039     2.029991667631    -0.663122705740     1.007825032230
         H            2.210655485961    -0.948031332369    -1.155849705740     1.007825032230
         H            2.789047485961     0.611833667631    -0.552254705740     1.007825032230
         H            3.343806485961    -0.885662332369     0.198614294260     1.007825032230

  Basis Set: AUG-CC-PVTZ
    Blend: AUG-CC-PVTZ
  Basis Set: (AUG-CC-PVTZ AUX)
    Blend: AUG-CC-PVTZ-JKFIT
	 Reference Energy          =    -309.1251419450694016 [Eh]
	 Singles Energy            =      -0.0000000000000000 [Eh]
	 Same-Spin Energy          =      -0.3195684022232419 [Eh]
	 Opposite-Spin Energy      =      -1.1101441238770975 [Eh]
	 Correlation Energy        =      -1.4297125261003394 [Eh]
	 Total Energy              =    -310.5548544711697332 [Eh]

	 ================> DF-SCS-MP2 Energies <==================
	-----------------------------------------------------------
	 SCS Same-Spin Scale       =       0.3333333333333333 [-]
	 SCS Opposite-Spin Scale   =       1.2000000000000000 [-]
	 SCS Same-Spin Energy      =      -0.1065228007410806 [Eh]
	 SCS Opposite-Spin Energy  =      -1.3321729486525169 [Eh]
	 SCS Correlation Energy    =      -1.4386957493935975 [Eh]
	 SCS Total Energy          =    -310.5638376944630181 [Eh]
	-----------------------------------------------------------

  Dipole Moment: [D]
     X:     2.0584      Y:     0.4036      Z:     0.5085     Total:     2.1584

*** Psi4 exiting successfully. Buy a developer a beer!
