                               Psi4 1.3.2 release

  ==> Input File <==

--------------------------------------------------------------------------
#psi4
#
memory 32 gb

molecule  {
0 1
  O       -2.0333080    -0.4946570    -0.2594300
  C       -0.0425170     0.1992980     0.1361180
  C       -0.7556090    -0.6523520    -0.9323370
  C       -1.3382130    -0.0434820     0.9333840
  C        1.2403190    -0.3676220     0.7285870
  C        0.0785870     1.6559510    -0.2923950
  C        2.4113120    -0.4074660    -0.2524220
  H       -0.7841080    -0.2688730    -1.9587990
  H       -0.4364910    -1.7049300    -0.9420770
  H       -1.2618816    -0.8383458     1.6893172
  H       -1.8269820     0.8255510     1.3890460
  H        1.0363310    -1.3847530     1.0869340
  H        1.5166380     0.2228000     1.6126860
  H        0.3782920     2.2853470     0.5530020
  H        0.8158740     1.7811390    -1.0908580
  H       -0.8864940     2.0141160    -0.6640870
  H        2.1439640    -0.9639070    -1.1568140
  H        2.7223560     0.5959580    -0.5532190
  H        3.2771150    -0.9015380     0.1976500
units angstrom
no_reorient  #important for SAPT in psi4, default
symmetry c1  #important for SAPT in psi4, default
}

set PROPERTIES_ORIGIN ["COM"]
properties('MP2/aug-cc-pvtz', properties = ['dipole'])
--------------------------------------------------------------------------

    Molecular point group: c1
  Charge       = 0
  Multiplicity = 1
  Basis Set: AUG-CC-PVTZ
    Blend: AUG-CC-PVTZ
  Basis Set: (AUG-CC-PVTZ AUX)
    Blend: AUG-CC-PVTZ-JKFIT

    Orbital Energies [Eh]
    ---------------------

    Doubly Occupied:

       1A    -20.546563     2A    -11.273803     3A    -11.273241
       4A    -11.237649     5A    -11.227134     6A    -11.220462
       7A    -11.218524     8A     -1.370336     9A     -1.095433
      10A     -0.996920    11A     -0.928555    12A     -0.916743
      13A     -0.846942    14A     -0.732901    15A     -0.668215
      16A     -0.654695    17A     -0.625809    18A     -0.599656
      19A     -0.576640    20A     -0.557272    21A     -0.540696
      22A     -0.530954    23A     -0.527644    24A     -0.505907
      25A     -0.470836    26A     -0.438174    27A     -0.436541
      28A     -0.410627

  @DF-RHF Final Energy:  -309.12573932602515

   => Energetics <=

    Nuclear Repulsion Energy =            330.2291364913381813
    One-Electron Energy =               -1073.8520057953433025
    Two-Electron Energy =                 434.4971299779799665
    Total Energy =                       -309.1257393260251547
  Basis Set: (AUG-CC-PVTZ AUX)
    Blend: AUG-CC-PVTZ-RI
    Molecular point group: c1

    Geometry (in Angstrom), charge = 0, multiplicity = 1:

       Center              X                  Y                   Z               Mass
    ------------   -----------------  -----------------  -----------------  -----------------
         O           -1.966876592162    -0.478426428558    -0.258088334284    15.994914619570
         C            0.023914407838     0.215528571442     0.137459665716    12.000000000000
         C           -0.689177592162    -0.636121428558    -0.930995334284    12.000000000000
         C           -1.271781592162    -0.027251428558     0.934725665716    12.000000000000
         C            1.306750407838    -0.351391428558     0.729928665716    12.000000000000
         C            0.145018407838     1.672181571442    -0.291053334284    12.000000000000
         C            2.477743407838    -0.391235428558    -0.251080334284    12.000000000000
         H           -0.717676592162    -0.252642428558    -1.957457334284     1.007825032230
         H           -0.370059592162    -1.688699428558    -0.940735334284     1.007825032230
         H           -1.195450192162    -0.822115228558     1.690658865716     1.007825032230
         H           -1.760550592162     0.841781571442     1.390387665716     1.007825032230
         H            1.102762407838    -1.368522428558     1.088275665716     1.007825032230
         H            1.583069407838     0.239030571442     1.614027665716     1.007825032230
         H            0.444723407838     2.301577571442     0.554343665716     1.007825032230
         H            0.882305407838     1.797369571442    -1.089516334284     1.007825032230
         H           -0.820062592162     2.030346571442    -0.662745334284     1.007825032230
         H            2.210395407838    -0.947676428558    -1.155472334284     1.007825032230
         H            2.788787407838     0.612188571442    -0.551877334284     1.007825032230
         H            3.343546407838    -0.885307428558     0.198991665716     1.007825032230

  Basis Set: AUG-CC-PVTZ
    Blend: AUG-CC-PVTZ
  Basis Set: (AUG-CC-PVTZ AUX)
    Blend: AUG-CC-PVTZ-JKFIT
	 Reference Energy          =    -309.1257393260251547 [Eh]
	 Singles Energy            =      -0.0000000000000000 [Eh]
	 Same-Spin Energy          =      -0.3196019757213254 [Eh]
	 Opposite-Spin Energy      =      -1.1101821903849904 [Eh]
	 Correlation Energy        =      -1.4297841661063160 [Eh]
	 Total Energy              =    -310.5555234921314423 [Eh]

	 ================> DF-SCS-MP2 Energies <==================
	-----------------------------------------------------------
	 SCS Same-Spin Scale       =       0.3333333333333333 [-]
	 SCS Opposite-Spin Scale   =       1.2000000000000000 [-]
	 SCS Same-Spin Energy      =      -0.1065339919071085 [Eh]
	 SCS Opposite-Spin Energy  =      -1.3322186284619886 [Eh]
	 SCS Correlation Energy    =      -1.4387526203690970 [Eh]
	 SCS Total Energy          =    -310.5644919463942415 [Eh]
	-----------------------------------------------------------

  Dipole Moment: [D]
     X:     2.0644      Y:     0.4055      Z:     0.5026     Total:     2.1630

*** Psi4 exiting successfully. Buy a developer a beer!
