                               Psi4 1.3.2 release

  ==> Input File <==

--------------------------------------------------------------------------
#psi4
#
memory 32 gb

molecule  {
0 1
  O       -2.0333080    -0.4946570    -0.2594300
  C       -0.0425170     0.1992980     0.1361180
  C       -0.9315221    -0.6306406    -0.8396914
  C       -1.3382130    -0.0434820     0.9333840
  C        1.2403190    -0.3676220     0.7285870
  C        0.0785870     1.6559510    -0.2923950
  C        2.4113120    -0.4074660    -0.2524220
  H       -0.7841080    -0.2688730    -1.9587990
  H       -0.4364910    -1.7049300    -0.9420770
  H       -1.2533150    -0.8496150     1.6763590
  H       -1.8269820     0.8255510     1.3890460
  H        1.0363310    -1.3847530     1.0869340
  H        1.5166380     0.2228000     1.6126860
  H        0.3782920     2.2853470     0.5530020
  H        0.8158740     1.7811390    -1.0908580
  H       -0.8864940     2.0141160    -0.6640870
  H        2.1439640    -0.9639070    -1.1568140
  H        2.7223560     0.5959580    -0.5532190
  H        3.2771150    -0.9015380     0.1976500
units angstrom
no_reorient  #important for SAPT in psi4, default
symmetry c1  #important for SAPT in psi4, default
}

set PROPERTIES_ORIGIN ["COM"]
properties('MP2/aug-cc-pvtz', properties = ['dipole'])
--------------------------------------------------------------------------

    Molecular point group: c1
  Charge       = 0
  Multiplicity = 1
  Basis Set: AUG-CC-PVTZ
    Blend: AUG-CC-PVTZ
  Basis Set: (AUG-CC-PVTZ AUX)
    Blend: AUG-CC-PVTZ-JKFIT

    Orbital Energies [Eh]
    ---------------------

    Doubly Occupied:

       1A    -20.563310     2A    -11.288570     3A    -11.284377
       4A    -11.233257     5A    -11.227620     6A    -11.218434
       7A    -11.218057     8A     -1.463610     9A     -1.097712
      10A     -0.999926    11A     -0.942023    12A     -0.907727
      13A     -0.847432    14A     -0.726756    15A     -0.687022
      16A     -0.675667    17A     -0.654893    18A     -0.608652
      19A     -0.586674    20A     -0.567613    21A     -0.545492
      22A     -0.538194    23A     -0.520702    24A     -0.505361
      25A     -0.469987    26A     -0.454978    27A     -0.403528
      28A     -0.388846

  @DF-RHF Final Energy:  -309.08690433858345

   => Energetics <=

    Nuclear Repulsion Energy =            332.5227427714107762
    One-Electron Energy =               -1077.9664551626385673
    Two-Electron Energy =                 436.3568080526443396
    Total Energy =                       -309.0869043385834516
  Basis Set: (AUG-CC-PVTZ AUX)
    Blend: AUG-CC-PVTZ-RI
    Molecular point group: c1

    Geometry (in Angstrom), charge = 0, multiplicity = 1:

       Center              X                  Y                   Z               Mass
    ------------   -----------------  -----------------  -----------------  -----------------
         O           -1.945872011721    -0.480916011616    -0.269065460965    15.994914619570
         C            0.044918988279     0.213038988384     0.126482539035    12.000000000000
         C           -0.844086111721    -0.616899611616    -0.849326860965    12.000000000000
         C           -1.250777011721    -0.029741011616     0.923748539035    12.000000000000
         C            1.327754988279    -0.353881011616     0.718951539035    12.000000000000
         C            0.166022988279     1.669691988384    -0.302030460965    12.000000000000
         C            2.498747988279    -0.393725011616    -0.262057460965    12.000000000000
         H           -0.696672011721    -0.255132011616    -1.968434460965     1.007825032230
         H           -0.349055011721    -1.691189011616    -0.951712460965     1.007825032230
         H           -1.165879011721    -0.835874011616     1.666723539035     1.007825032230
         H           -1.739546011721     0.839291988384     1.379410539035     1.007825032230
         H            1.123766988279    -1.371012011616     1.077298539035     1.007825032230
         H            1.604073988279     0.236540988384     1.603050539035     1.007825032230
         H            0.465727988279     2.299087988384     0.543366539035     1.007825032230
         H            0.903309988279     1.794879988384    -1.100493460965     1.007825032230
         H           -0.799058011721     2.027856988384    -0.673722460965     1.007825032230
         H            2.231399988279    -0.950166011616    -1.166449460965     1.007825032230
         H            2.809791988279     0.609698988384    -0.562854460965     1.007825032230
         H            3.364550988279    -0.887797011616     0.188014539035     1.007825032230

  Basis Set: AUG-CC-PVTZ
    Blend: AUG-CC-PVTZ
  Basis Set: (AUG-CC-PVTZ AUX)
    Blend: AUG-CC-PVTZ-JKFIT
	 Reference Energy          =    -309.0869043385834516 [Eh]
	 Singles Energy            =      -0.0000000000000000 [Eh]
	 Same-Spin Energy          =      -0.3203730243536210 [Eh]
	 Opposite-Spin Energy      =      -1.1085056870087260 [Eh]
	 Correlation Energy        =      -1.4288787113623469 [Eh]
	 Total Energy              =    -310.5157830499458100 [Eh]

	 ================> DF-SCS-MP2 Energies <==================
	-----------------------------------------------------------
	 SCS Same-Spin Scale       =       0.3333333333333333 [-]
	 SCS Opposite-Spin Scale   =       1.2000000000000000 [-]
	 SCS Same-Spin Energy      =      -0.1067910081178737 [Eh]
	 SCS Opposite-Spin Energy  =      -1.3302068244104712 [Eh]
	 SCS Correlation Energy    =      -1.4369978325283448 [Eh]
	 SCS Total Energy          =    -310.5239021711117857 [Eh]
	-----------------------------------------------------------

  Dipole Moment: [D]
     X:     1.5227      Y:     0.6004      Z:     1.0402     Total:     1.9393

*** Psi4 exiting successfully. Buy a developer a beer!
