                               Psi4 1.3.2 release

  ==> Input File <==

--------------------------------------------------------------------------
#psi4
#
memory 32 gb

molecule  {
0 1
  O       -2.0219560    -0.4805962    -0.2416478
  C       -0.0425170     0.1992980     0.1361180
  C       -0.7556090    -0.6523520    -0.9323370
  C       -1.3382130    -0.0434820     0.9333840
  C        1.2403190    -0.3676220     0.7285870
  C        0.0785870     1.6559510    -0.2923950
  C        2.4113120    -0.4074660    -0.2524220
  H       -0.7841080    -0.2688730    -1.9587990
  H       -0.4364910    -1.7049300    -0.9420770
  H       -1.2533150    -0.8496150     1.6763590
  H       -1.8269820     0.8255510     1.3890460
  H        1.0363310    -1.3847530     1.0869340
  H        1.5166380     0.2228000     1.6126860
  H        0.3782920     2.2853470     0.5530020
  H        0.8158740     1.7811390    -1.0908580
  H       -0.8864940     2.0141160    -0.6640870
  H        2.1439640    -0.9639070    -1.1568140
  H        2.7223560     0.5959580    -0.5532190
  H        3.2771150    -0.9015380     0.1976500
units angstrom
no_reorient  #important for SAPT in psi4, default
symmetry c1  #important for SAPT in psi4, default
}

set PROPERTIES_ORIGIN ["COM"]
properties('MP2/aug-cc-pvtz', properties = ['dipole'])
--------------------------------------------------------------------------

    Molecular point group: c1
  Charge       = 0
  Multiplicity = 1
  Basis Set: AUG-CC-PVTZ
    Blend: AUG-CC-PVTZ
  Basis Set: (AUG-CC-PVTZ AUX)
    Blend: AUG-CC-PVTZ-JKFIT

    Orbital Energies [Eh]
    ---------------------

    Doubly Occupied:

       1A    -20.546132     2A    -11.274427     3A    -11.270499
       4A    -11.236719     5A    -11.226466     6A    -11.220158
       7A    -11.218167     8A     -1.378176     9A     -1.094563
      10A     -0.996172    11A     -0.930710    12A     -0.916095
      13A     -0.845807    14A     -0.732858    15A     -0.670613
      16A     -0.655410    17A     -0.626961    18A     -0.600811
      19A     -0.578556    20A     -0.557548    21A     -0.540906
      22A     -0.531122    23A     -0.528583    24A     -0.505588
      25A     -0.470429    26A     -0.438788    27A     -0.434697
      28A     -0.409424

  @DF-RHF Final Energy:  -309.12644961359251

   => Energetics <=

    Nuclear Repulsion Energy =            330.8204442229520055
    One-Electron Energy =               -1075.0210164149611956
    Two-Electron Energy =                 435.0741225784166772
    Total Energy =                       -309.1264496135925128
  Basis Set: (AUG-CC-PVTZ AUX)
    Blend: AUG-CC-PVTZ-RI
    Molecular point group: c1

    Geometry (in Angstrom), charge = 0, multiplicity = 1:

       Center              X                  Y                   Z               Mass
    ------------   -----------------  -----------------  -----------------  -----------------
         O           -1.957424983377    -0.466499172787    -0.243017378017    15.994914619570
         C            0.022014016623     0.213395027213     0.134748421983    12.000000000000
         C           -0.691077983377    -0.638254972787    -0.933706578017    12.000000000000
         C           -1.273681983377    -0.029384972787     0.932014421983    12.000000000000
         C            1.304850016623    -0.353524972787     0.727217421983    12.000000000000
         C            0.143118016623     1.670048027213    -0.293764578017    12.000000000000
         C            2.475843016623    -0.393368972787    -0.253791578017    12.000000000000
         H           -0.719576983377    -0.254775972787    -1.960168578017     1.007825032230
         H           -0.371959983377    -1.690832972787    -0.943446578017     1.007825032230
         H           -1.188783983377    -0.835517972787     1.674989421983     1.007825032230
         H           -1.762450983377     0.839648027213     1.387676421983     1.007825032230
         H            1.100862016623    -1.370655972787     1.085564421983     1.007825032230
         H            1.581169016623     0.236897027213     1.611316421983     1.007825032230
         H            0.442823016623     2.299444027213     0.551632421983     1.007825032230
         H            0.880405016623     1.795236027213    -1.092227578017     1.007825032230
         H           -0.821962983377     2.028213027213    -0.665456578017     1.007825032230
         H            2.208495016623    -0.949809972787    -1.158183578017     1.007825032230
         H            2.786887016623     0.610055027213    -0.554588578017     1.007825032230
         H            3.341646016623    -0.887440972787     0.196280421983     1.007825032230

  Basis Set: AUG-CC-PVTZ
    Blend: AUG-CC-PVTZ
  Basis Set: (AUG-CC-PVTZ AUX)
    Blend: AUG-CC-PVTZ-JKFIT
	 Reference Energy          =    -309.1264496135925128 [Eh]
	 Singles Energy            =      -0.0000000000000000 [Eh]
	 Same-Spin Energy          =      -0.3194609756250700 [Eh]
	 Opposite-Spin Energy      =      -1.1095281792554474 [Eh]
	 Correlation Energy        =      -1.4289891548805174 [Eh]
	 Total Energy              =    -310.5554387684730386 [Eh]

	 ================> DF-SCS-MP2 Energies <==================
	-----------------------------------------------------------
	 SCS Same-Spin Scale       =       0.3333333333333333 [-]
	 SCS Opposite-Spin Scale   =       1.2000000000000000 [-]
	 SCS Same-Spin Energy      =      -0.1064869918750233 [Eh]
	 SCS Opposite-Spin Energy  =      -1.3314338151065368 [Eh]
	 SCS Correlation Energy    =      -1.4379208069815601 [Eh]
	 SCS Total Energy          =    -310.5643704205740505 [Eh]
	-----------------------------------------------------------

  Dipole Moment: [D]
     X:     2.0274      Y:     0.3731      Z:     0.4298     Total:     2.1058

*** Psi4 exiting successfully. Buy a developer a beer!
