                               Psi4 1.3.2 release

  ==> Input File <==

--------------------------------------------------------------------------
#psi4
#
memory 32 gb

molecule  {
0 1
  O       -2.0333080    -0.4946570    -0.2594300
  C       -0.0425170     0.1992980     0.1361180
  C       -0.7556090    -0.6523520    -0.9323370
  C       -1.3382130    -0.0434820     0.9333840
  C        1.0718049    -0.2931510     0.6507599
  C        0.0785870     1.6559510    -0.2923950
  C        2.4113120    -0.4074660    -0.2524220
  H       -0.7841080    -0.2688730    -1.9587990
  H       -0.4364910    -1.7049300    -0.9420770
  H       -1.2533150    -0.8496150     1.6763590
  H       -1.8269820     0.8255510     1.3890460
  H        1.0363310    -1.3847530     1.0869340
  H        1.5166380     0.2228000     1.6126860
  H        0.3782920     2.2853470     0.5530020
  H        0.8158740     1.7811390    -1.0908580
  H       -0.8864940     2.0141160    -0.6640870
  H        2.1439640    -0.9639070    -1.1568140
  H        2.7223560     0.5959580    -0.5532190
  H        3.2771150    -0.9015380     0.1976500
units angstrom
no_reorient  #important for SAPT in psi4, default
symmetry c1  #important for SAPT in psi4, default
}

set PROPERTIES_ORIGIN ["COM"]
properties('MP2/aug-cc-pvtz', properties = ['dipole'])
--------------------------------------------------------------------------

    Molecular point group: c1
  Charge       = 0
  Multiplicity = 1
  Basis Set: AUG-CC-PVTZ
    Blend: AUG-CC-PVTZ
  Basis Set: (AUG-CC-PVTZ AUX)
    Blend: AUG-CC-PVTZ-JKFIT

    Orbital Energies [Eh]
    ---------------------

    Doubly Occupied:

       1A    -20.548094     2A    -11.276382     3A    -11.275707
       4A    -11.235813     5A    -11.227879     6A    -11.225692
       7A    -11.220760     8A     -1.373093     9A     -1.126980
      10A     -0.980822    11A     -0.932533    12A     -0.925226
      13A     -0.857230    14A     -0.734359    15A     -0.672860
      16A     -0.668993    17A     -0.628577    18A     -0.594356
      19A     -0.578659    20A     -0.557526    21A     -0.541561
      22A     -0.534714    23A     -0.530050    24A     -0.498284
      25A     -0.482011    26A     -0.430346    27A     -0.415214
      28A     -0.410753

  @DF-RHF Final Energy:  -309.07575824156936

   => Energetics <=

    Nuclear Repulsion Energy =            333.1857493163972777
    One-Electron Energy =               -1079.5540699800083075
    Two-Electron Energy =                 437.2925624220416694
    Total Energy =                       -309.0757582415693605
  Basis Set: (AUG-CC-PVTZ AUX)
    Blend: AUG-CC-PVTZ-RI
    Molecular point group: c1

    Geometry (in Angstrom), charge = 0, multiplicity = 1:

       Center              X                  Y                   Z               Mass
    ------------   -----------------  -----------------  -----------------  -----------------
         O           -1.946759103850    -0.487241545593    -0.248626889484    15.994914619570
         C            0.044031896150     0.206713454407     0.146921110516    12.000000000000
         C           -0.669060103850    -0.644936545593    -0.921533889484    12.000000000000
         C           -1.251664103850    -0.036066545593     0.944187110516    12.000000000000
         C            1.158353796150    -0.285735545593     0.661563010516    12.000000000000
         C            0.165135896150     1.663366454407    -0.281591889484    12.000000000000
         C            2.497860896150    -0.400050545593    -0.241618889484    12.000000000000
         H           -0.697559103850    -0.261457545593    -1.947995889484     1.007825032230
         H           -0.349942103850    -1.697514545593    -0.931273889484     1.007825032230
         H           -1.166766103850    -0.842199545593     1.687162110516     1.007825032230
         H           -1.740433103850     0.832966454407     1.399849110516     1.007825032230
         H            1.122879896150    -1.377337545593     1.097737110516     1.007825032230
         H            1.603186896150     0.230215454407     1.623489110516     1.007825032230
         H            0.464840896150     2.292762454407     0.563805110516     1.007825032230
         H            0.902422896150     1.788554454407    -1.080054889484     1.007825032230
         H           -0.799945103850     2.021531454407    -0.653283889484     1.007825032230
         H            2.230512896150    -0.956491545593    -1.146010889484     1.007825032230
         H            2.808904896150     0.603373454407    -0.542415889484     1.007825032230
         H            3.363663896150    -0.894122545593     0.208453110516     1.007825032230

  Basis Set: AUG-CC-PVTZ
    Blend: AUG-CC-PVTZ
  Basis Set: (AUG-CC-PVTZ AUX)
    Blend: AUG-CC-PVTZ-JKFIT
	 Reference Energy          =    -309.0757582415693605 [Eh]
	 Singles Energy            =      -0.0000000000000000 [Eh]
	 Same-Spin Energy          =      -0.3226558723977518 [Eh]
	 Opposite-Spin Energy      =      -1.1148438044792242 [Eh]
	 Correlation Energy        =      -1.4374996768769761 [Eh]
	 Total Energy              =    -310.5132579184463566 [Eh]

	 ================> DF-SCS-MP2 Energies <==================
	-----------------------------------------------------------
	 SCS Same-Spin Scale       =       0.3333333333333333 [-]
	 SCS Opposite-Spin Scale   =       1.2000000000000000 [-]
	 SCS Same-Spin Energy      =      -0.1075519574659173 [Eh]
	 SCS Opposite-Spin Energy  =      -1.3378125653750690 [Eh]
	 SCS Correlation Energy    =      -1.4453645228409862 [Eh]
	 SCS Total Energy          =    -310.5211227644103360 [Eh]
	-----------------------------------------------------------

  Dipole Moment: [D]
     X:     1.9509      Y:     0.4447      Z:     0.4190     Total:     2.0443

*** Psi4 exiting successfully. Buy a developer a beer!
