                               Psi4 1.3.2 release

  ==> Input File <==

--------------------------------------------------------------------------
#psi4
#
memory 32 gb

molecule  {
0 1
  O       -2.0333080    -0.4946570    -0.2594300
  C       -0.0425170     0.1992980     0.1361180
  C       -0.8066126    -0.6835206    -1.0142380
  C       -1.3382130    -0.0434820     0.9333840
  C        1.2403190    -0.3676220     0.7285870
  C        0.0785870     1.6559510    -0.2923950
  C        2.4113120    -0.4074660    -0.2524220
  H       -0.7841080    -0.2688730    -1.9587990
  H       -0.4364910    -1.7049300    -0.9420770
  H       -1.2533150    -0.8496150     1.6763590
  H       -1.8269820     0.8255510     1.3890460
  H        1.0363310    -1.3847530     1.0869340
  H        1.5166380     0.2228000     1.6126860
  H        0.3782920     2.2853470     0.5530020
  H        0.8158740     1.7811390    -1.0908580
  H       -0.8864940     2.0141160    -0.6640870
  H        2.1439640    -0.9639070    -1.1568140
  H        2.7223560     0.5959580    -0.5532190
  H        3.2771150    -0.9015380     0.1976500
units angstrom
no_reorient  #important for SAPT in psi4, default
symmetry c1  #important for SAPT in psi4, default
}

set PROPERTIES_ORIGIN ["COM"]
properties('MP2/aug-cc-pvtz', properties = ['dipole'])
--------------------------------------------------------------------------

    Molecular point group: c1
  Charge       = 0
  Multiplicity = 1
  Basis Set: AUG-CC-PVTZ
    Blend: AUG-CC-PVTZ
  Basis Set: (AUG-CC-PVTZ AUX)
    Blend: AUG-CC-PVTZ-JKFIT

    Orbital Energies [Eh]
    ---------------------

    Doubly Occupied:

       1A    -20.546478     2A    -11.272130     3A    -11.271340
       4A    -11.240987     5A    -11.226330     6A    -11.219748
       7A    -11.217330     8A     -1.364565     9A     -1.088592
      10A     -0.993584    11A     -0.934115    12A     -0.910344
      13A     -0.845766    14A     -0.731906    15A     -0.673133
      16A     -0.650284    17A     -0.622836    18A     -0.598193
      19A     -0.582790    20A     -0.556442    21A     -0.547102
      22A     -0.535268    23A     -0.527376    24A     -0.503544
      25A     -0.469051    26A     -0.437018    27A     -0.427340
      28A     -0.401506

  @DF-RHF Final Energy:  -309.11738348302714

   => Energetics <=

    Nuclear Repulsion Energy =            328.6371224582418336
    One-Electron Energy =               -1070.7188217713744507
    Two-Electron Energy =                 432.9643158301054768
    Total Energy =                       -309.1173834830271403
  Basis Set: (AUG-CC-PVTZ AUX)
    Blend: AUG-CC-PVTZ-RI
    Molecular point group: c1

    Geometry (in Angstrom), charge = 0, multiplicity = 1:

       Center              X                  Y                   Z               Mass
    ------------   -----------------  -----------------  -----------------  -----------------
         O           -1.960847850929    -0.474576042460    -0.248138455287    15.994914619570
         C            0.029943149071     0.219378957540     0.147409544713    12.000000000000
         C           -0.734152450929    -0.663439642460    -1.002946455287    12.000000000000
         C           -1.265752850929    -0.023401042460     0.944675544713    12.000000000000
         C            1.312779149071    -0.347541042460     0.739878544713    12.000000000000
         C            0.151047149071     1.676031957540    -0.281103455287    12.000000000000
         C            2.483772149071    -0.387385042460    -0.241130455287    12.000000000000
         H           -0.711647850929    -0.248792042460    -1.947507455287     1.007825032230
         H           -0.364030850929    -1.684849042460    -0.930785455287     1.007825032230
         H           -1.180854850929    -0.829534042460     1.687650544713     1.007825032230
         H           -1.754521850929     0.845631957540     1.400337544713     1.007825032230
         H            1.108791149071    -1.364672042460     1.098225544713     1.007825032230
         H            1.589098149071     0.242880957540     1.623977544713     1.007825032230
         H            0.450752149071     2.305427957540     0.564293544713     1.007825032230
         H            0.888334149071     1.801219957540    -1.079566455287     1.007825032230
         H           -0.814033850929     2.034196957540    -0.652795455287     1.007825032230
         H            2.216424149071    -0.943826042460    -1.145522455287     1.007825032230
         H            2.794816149071     0.616038957540    -0.541927455287     1.007825032230
         H            3.349575149071    -0.881457042460     0.208941544713     1.007825032230

  Basis Set: AUG-CC-PVTZ
    Blend: AUG-CC-PVTZ
  Basis Set: (AUG-CC-PVTZ AUX)
    Blend: AUG-CC-PVTZ-JKFIT
	 Reference Energy          =    -309.1173834830271403 [Eh]
	 Singles Energy            =      -0.0000000000000000 [Eh]
	 Same-Spin Energy          =      -0.3192225415889084 [Eh]
	 Opposite-Spin Energy      =      -1.1103172113672821 [Eh]
	 Correlation Energy        =      -1.4295397529561904 [Eh]
	 Total Energy              =    -310.5469232359833427 [Eh]

	 ================> DF-SCS-MP2 Energies <==================
	-----------------------------------------------------------
	 SCS Same-Spin Scale       =       0.3333333333333333 [-]
	 SCS Opposite-Spin Scale   =       1.2000000000000000 [-]
	 SCS Same-Spin Energy      =      -0.1064075138629695 [Eh]
	 SCS Opposite-Spin Energy  =      -1.3323806536407385 [Eh]
	 SCS Correlation Energy    =      -1.4387881675037080 [Eh]
	 SCS Total Energy          =    -310.5561716505308709 [Eh]
	-----------------------------------------------------------

  Dipole Moment: [D]
     X:     2.0462      Y:     0.3946      Z:     0.4164     Total:     2.1251

*** Psi4 exiting successfully. Buy a developer a beer!
