                               Psi4 1.3.2 release

  ==> Input File <==

--------------------------------------------------------------------------
#psi4
#
memory 32 gb

molecule  {
0 1
  O       -2.0333080    -0.4946570    -0.2594300
  C       -0.0546641     0.1955798     0.1594575
  C       -0.7556090    -0.6523520    -0.9323370
  C       -1.3382130    -0.0434820     0.9333840
  C        1.2403190    -0.3676220     0.7285870
  C        0.0785870     1.6559510    -0.2923950
  C        2.4113120    -0.4074660    -0.2524220
  H       -0.7841080    -0.2688730    -1.9587990
  H       -0.4364910    -1.7049300    -0.9420770
  H       -1.2533150    -0.8496150     1.6763590
  H       -1.8269820     0.8255510     1.3890460
  H        1.0363310    -1.3847530     1.0869340
  H        1.5166380     0.2228000     1.6126860
  H        0.3782920     2.2853470     0.5530020
  H        0.8158740     1.7811390    -1.0908580
  H       -0.8864940     2.0141160    -0.6640870
  H        2.1439640    -0.9639070    -1.1568140
  H        2.7223560     0.5959580    -0.5532190
  H        3.2771150    -0.9015380     0.1976500
units angstrom
no_reorient  #important for SAPT in psi4, default
symmetry c1  #important for SAPT in psi4, default
}

set PROPERTIES_ORIGIN ["COM"]
properties('MP2/aug-cc-pvtz', properties = ['dipole'])
--------------------------------------------------------------------------

    Molecular point group: c1
  Charge       = 0
  Multiplicity = 1
  Basis Set: AUG-CC-PVTZ
    Blend: AUG-CC-PVTZ
  Basis Set: (AUG-CC-PVTZ AUX)
    Blend: AUG-CC-PVTZ-JKFIT

    Orbital Energies [Eh]
    ---------------------

    Doubly Occupied:

       1A    -20.546285     2A    -11.273526     3A    -11.272937
       4A    -11.237422     5A    -11.227204     6A    -11.221027
       7A    -11.218755     8A     -1.371010     9A     -1.094866
      10A     -0.996773    11A     -0.929690    12A     -0.916345
      13A     -0.847758    14A     -0.732364    15A     -0.669318
      16A     -0.653825    17A     -0.625851    18A     -0.600178
      19A     -0.577110    20A     -0.556394    21A     -0.540345
      22A     -0.530942    23A     -0.528279    24A     -0.505113
      25A     -0.468796    26A     -0.443625    27A     -0.434961
      28A     -0.409628

  @DF-RHF Final Energy:  -309.12522079278830

   => Energetics <=

    Nuclear Repulsion Energy =            330.2718614657258627
    One-Electron Energy =               -1073.9335097931618748
    Two-Electron Energy =                 434.5364275346477712
    Total Energy =                       -309.1252207927882978
  Basis Set: (AUG-CC-PVTZ AUX)
    Blend: AUG-CC-PVTZ-RI
    Molecular point group: c1

    Geometry (in Angstrom), charge = 0, multiplicity = 1:

       Center              X                  Y                   Z               Mass
    ------------   -----------------  -----------------  -----------------  -----------------
         O           -1.965506493355    -0.477867167447    -0.260756108917    15.994914619570
         C            0.013137406645     0.212369632553     0.158131391083    12.000000000000
         C           -0.687807493355    -0.635562167447    -0.933663108917    12.000000000000
         C           -1.270411493355    -0.026692167447     0.932057891083    12.000000000000
         C            1.308120506645    -0.350832167447     0.727260891083    12.000000000000
         C            0.146388506645     1.672740832553    -0.293721108917    12.000000000000
         C            2.479113506645    -0.390676167447    -0.253748108917    12.000000000000
         H           -0.716306493355    -0.252083167447    -1.960125108917     1.007825032230
         H           -0.368689493355    -1.688140167447    -0.943403108917     1.007825032230
         H           -1.185513493355    -0.832825167447     1.675032891083     1.007825032230
         H           -1.759180493355     0.842340832553     1.387719891083     1.007825032230
         H            1.104132506645    -1.367963167447     1.085607891083     1.007825032230
         H            1.584439506645     0.239589832553     1.611359891083     1.007825032230
         H            0.446093506645     2.302136832553     0.551675891083     1.007825032230
         H            0.883675506645     1.797928832553    -1.092184108917     1.007825032230
         H           -0.818692493355     2.030905832553    -0.665413108917     1.007825032230
         H            2.211765506645    -0.947117167447    -1.158140108917     1.007825032230
         H            2.790157506645     0.612747832553    -0.554545108917     1.007825032230
         H            3.344916506645    -0.884748167447     0.196323891083     1.007825032230

  Basis Set: AUG-CC-PVTZ
    Blend: AUG-CC-PVTZ
  Basis Set: (AUG-CC-PVTZ AUX)
    Blend: AUG-CC-PVTZ-JKFIT
	 Reference Energy          =    -309.1252207927882978 [Eh]
	 Singles Energy            =      -0.0000000000000000 [Eh]
	 Same-Spin Energy          =      -0.3196102043505729 [Eh]
	 Opposite-Spin Energy      =      -1.1101821294891125 [Eh]
	 Correlation Energy        =      -1.4297923338396854 [Eh]
	 Total Energy              =    -310.5550131266279550 [Eh]

	 ================> DF-SCS-MP2 Energies <==================
	-----------------------------------------------------------
	 SCS Same-Spin Scale       =       0.3333333333333333 [-]
	 SCS Opposite-Spin Scale   =       1.2000000000000000 [-]
	 SCS Same-Spin Energy      =      -0.1065367347835243 [Eh]
	 SCS Opposite-Spin Energy  =      -1.3322185553869350 [Eh]
	 SCS Correlation Energy    =      -1.4387552901704592 [Eh]
	 SCS Total Energy          =    -310.5639760829587317 [Eh]
	-----------------------------------------------------------

  Dipole Moment: [D]
     X:     2.0710      Y:     0.3995      Z:     0.4907     Total:     2.1655

*** Psi4 exiting successfully. Buy a developer a beer!
