                               Psi4 1.3.2 release

  ==> Input File <==

--------------------------------------------------------------------------
#psi4
#
memory 32 gb

molecule  {
0 1
  O       -2.0333080    -0.4946570    -0.2594300
  C       -0.0425170     0.1992980     0.1361180
  C       -0.7556090    -0.6523520    -0.9323370
  C       -1.3382130    -0.0434820     0.9333840
  C        1.2403190    -0.3676220     0.7285870
  C        0.0785870     1.6559510    -0.2923950
  C        2.4113120    -0.4074660    -0.2524220
  H       -0.7841080    -0.2688730    -1.9587990
  H       -0.4364910    -1.7049300    -0.9420770
  H       -1.2362620    -0.8714133     1.6497678
  H       -1.8269820     0.8255510     1.3890460
  H        1.0363310    -1.3847530     1.0869340
  H        1.5166380     0.2228000     1.6126860
  H        0.3782920     2.2853470     0.5530020
  H        0.8158740     1.7811390    -1.0908580
  H       -0.8864940     2.0141160    -0.6640870
  H        2.1439640    -0.9639070    -1.1568140
  H        2.7223560     0.5959580    -0.5532190
  H        3.2771150    -0.9015380     0.1976500
units angstrom
no_reorient  #important for SAPT in psi4, default
symmetry c1  #important for SAPT in psi4, default
}

set PROPERTIES_ORIGIN ["COM"]
properties('MP2/aug-cc-pvtz', properties = ['dipole'])
--------------------------------------------------------------------------

    Molecular point group: c1
  Charge       = 0
  Multiplicity = 1
  Basis Set: AUG-CC-PVTZ
    Blend: AUG-CC-PVTZ
  Basis Set: (AUG-CC-PVTZ AUX)
    Blend: AUG-CC-PVTZ-JKFIT

    Orbital Energies [Eh]
    ---------------------

    Doubly Occupied:

       1A    -20.545826     2A    -11.273637     3A    -11.273353
       4A    -11.237151     5A    -11.227186     6A    -11.220525
       7A    -11.218426     8A     -1.370211     9A     -1.095448
      10A     -0.996919    11A     -0.928226    12A     -0.916910
      13A     -0.846809    14A     -0.731449    15A     -0.669892
      16A     -0.654121    17A     -0.625869    18A     -0.599747
      19A     -0.577012    20A     -0.557374    21A     -0.540648
      22A     -0.530820    23A     -0.528587    24A     -0.505902
      25A     -0.470853    26A     -0.437700    27A     -0.435925
      28A     -0.410565

  @DF-RHF Final Energy:  -309.12561590863868

   => Energetics <=

    Nuclear Repulsion Energy =            330.3136889653102344
    One-Electron Energy =               -1074.0244209494117058
    Two-Electron Energy =                 434.5851160754627927
    Total Energy =                       -309.1256159086386788
  Basis Set: (AUG-CC-PVTZ AUX)
    Blend: AUG-CC-PVTZ-RI
    Molecular point group: c1

    Geometry (in Angstrom), charge = 0, multiplicity = 1:

       Center              X                  Y                   Z               Mass
    ------------   -----------------  -----------------  -----------------  -----------------
         O           -1.967134563787    -0.478093461740    -0.257690099224    15.994914619570
         C            0.023656436213     0.215861538260     0.137857900776    12.000000000000
         C           -0.689435563787    -0.635788461740    -0.930597099224    12.000000000000
         C           -1.272039563787    -0.026918461740     0.935123900776    12.000000000000
         C            1.306492436213    -0.351058461740     0.730326900776    12.000000000000
         C            0.144760436213     1.672514538260    -0.290655099224    12.000000000000
         C            2.477485436213    -0.390902461740    -0.250682099224    12.000000000000
         H           -0.717934563787    -0.252309461740    -1.957059099224     1.007825032230
         H           -0.370317563787    -1.688366461740    -0.940337099224     1.007825032230
         H           -1.170088563787    -0.854849761740     1.651507700776     1.007825032230
         H           -1.760808563787     0.842114538260     1.390785900776     1.007825032230
         H            1.102504436213    -1.368189461740     1.088673900776     1.007825032230
         H            1.582811436213     0.239363538260     1.614425900776     1.007825032230
         H            0.444465436213     2.301910538260     0.554741900776     1.007825032230
         H            0.882047436213     1.797702538260    -1.089118099224     1.007825032230
         H           -0.820320563787     2.030679538260    -0.662347099224     1.007825032230
         H            2.210137436213    -0.947343461740    -1.155074099224     1.007825032230
         H            2.788529436213     0.612521538260    -0.551479099224     1.007825032230
         H            3.343288436213    -0.884974461740     0.199389900776     1.007825032230

  Basis Set: AUG-CC-PVTZ
    Blend: AUG-CC-PVTZ
  Basis Set: (AUG-CC-PVTZ AUX)
    Blend: AUG-CC-PVTZ-JKFIT
	 Reference Energy          =    -309.1256159086386788 [Eh]
	 Singles Energy            =      -0.0000000000000000 [Eh]
	 Same-Spin Energy          =      -0.3196683208908863 [Eh]
	 Opposite-Spin Energy      =      -1.1102664352845968 [Eh]
	 Correlation Energy        =      -1.4299347561754829 [Eh]
	 Total Energy              =    -310.5555506648141773 [Eh]

	 ================> DF-SCS-MP2 Energies <==================
	-----------------------------------------------------------
	 SCS Same-Spin Scale       =       0.3333333333333333 [-]
	 SCS Opposite-Spin Scale   =       1.2000000000000000 [-]
	 SCS Same-Spin Energy      =      -0.1065561069636287 [Eh]
	 SCS Opposite-Spin Energy  =      -1.3323197223415162 [Eh]
	 SCS Correlation Energy    =      -1.4388758293051449 [Eh]
	 SCS Total Energy          =    -310.5644917379437970 [Eh]
	-----------------------------------------------------------

  Dipole Moment: [D]
     X:     2.0698      Y:     0.4092      Z:     0.4960     Total:     2.1674

*** Psi4 exiting successfully. Buy a developer a beer!
