                               Psi4 1.3.2 release

  ==> Input File <==

--------------------------------------------------------------------------
#psi4
#
memory 32 gb

molecule  {
0 1
  O       -2.0333080    -0.4946570    -0.2594300
  C       -0.0425170     0.1992980     0.1361180
  C       -0.8435655    -0.6414963    -0.8860142
  C       -1.3382130    -0.0434820     0.9333840
  C        1.2403190    -0.3676220     0.7285870
  C        0.0785870     1.6559510    -0.2923950
  C        2.4113120    -0.4074660    -0.2524220
  H       -0.7841080    -0.2688730    -1.9587990
  H       -0.4364910    -1.7049300    -0.9420770
  H       -1.2533150    -0.8496150     1.6763590
  H       -1.8269820     0.8255510     1.3890460
  H        1.0363310    -1.3847530     1.0869340
  H        1.5166380     0.2228000     1.6126860
  H        0.3782920     2.2853470     0.5530020
  H        0.8158740     1.7811390    -1.0908580
  H       -0.8864940     2.0141160    -0.6640870
  H        2.1439640    -0.9639070    -1.1568140
  H        2.7223560     0.5959580    -0.5532190
  H        3.2771150    -0.9015380     0.1976500
units angstrom
no_reorient  #important for SAPT in psi4, default
symmetry c1  #important for SAPT in psi4, default
}

set PROPERTIES_ORIGIN ["COM"]
properties('MP2/aug-cc-pvtz', properties = ['dipole'])
--------------------------------------------------------------------------

    Molecular point group: c1
  Charge       = 0
  Multiplicity = 1
  Basis Set: AUG-CC-PVTZ
    Blend: AUG-CC-PVTZ
  Basis Set: (AUG-CC-PVTZ AUX)
    Blend: AUG-CC-PVTZ-JKFIT

    Orbital Energies [Eh]
    ---------------------

    Doubly Occupied:

       1A    -20.554095     2A    -11.279704     3A    -11.276874
       4A    -11.235028     5A    -11.227355     6A    -11.219475
       7A    -11.218191     8A     -1.410708     9A     -1.095937
      10A     -0.997793    11A     -0.932819    12A     -0.912911
      13A     -0.847242    14A     -0.728430    15A     -0.674870
      16A     -0.662859    17A     -0.636533    18A     -0.604640
      19A     -0.578730    20A     -0.565522    21A     -0.540614
      22A     -0.536224    23A     -0.523441    24A     -0.505828
      25A     -0.470780    26A     -0.446652    27A     -0.422207
      28A     -0.404201

  @DF-RHF Final Energy:  -309.11848524674275

   => Energetics <=

    Nuclear Repulsion Energy =            331.3226537098822178
    One-Electron Energy =               -1075.8629499300961925
    Two-Electron Energy =                 435.4218109734712812
    Total Energy =                       -309.1184852467427504
  Basis Set: (AUG-CC-PVTZ AUX)
    Blend: AUG-CC-PVTZ-RI
    Molecular point group: c1

    Geometry (in Angstrom), charge = 0, multiplicity = 1:

       Center              X                  Y                   Z               Mass
    ------------   -----------------  -----------------  -----------------  -----------------
         O           -1.956417437800    -0.479614483568    -0.263511657576    15.994914619570
         C            0.034373562200     0.214340516432     0.132036342424    12.000000000000
         C           -0.766674937800    -0.626453783568    -0.890095857576    12.000000000000
         C           -1.261322437800    -0.028439483568     0.929302342424    12.000000000000
         C            1.317209562200    -0.352579483568     0.724505342424    12.000000000000
         C            0.155477562200     1.670993516432    -0.296476657576    12.000000000000
         C            2.488202562200    -0.392423483568    -0.256503657576    12.000000000000
         H           -0.707217437800    -0.253830483568    -1.962880657576     1.007825032230
         H           -0.359600437800    -1.689887483568    -0.946158657576     1.007825032230
         H           -1.176424437800    -0.834572483568     1.672277342424     1.007825032230
         H           -1.750091437800     0.840593516432     1.384964342424     1.007825032230
         H            1.113221562200    -1.369710483568     1.082852342424     1.007825032230
         H            1.593528562200     0.237842516432     1.608604342424     1.007825032230
         H            0.455182562200     2.300389516432     0.548920342424     1.007825032230
         H            0.892764562200     1.796181516432    -1.094939657576     1.007825032230
         H           -0.809603437800     2.029158516432    -0.668168657576     1.007825032230
         H            2.220854562200    -0.948864483568    -1.160895657576     1.007825032230
         H            2.799246562200     0.611000516432    -0.557300657576     1.007825032230
         H            3.354005562200    -0.886495483568     0.193568342424     1.007825032230

  Basis Set: AUG-CC-PVTZ
    Blend: AUG-CC-PVTZ
  Basis Set: (AUG-CC-PVTZ AUX)
    Blend: AUG-CC-PVTZ-JKFIT
	 Reference Energy          =    -309.1184852467427504 [Eh]
	 Singles Energy            =      -0.0000000000000000 [Eh]
	 Same-Spin Energy          =      -0.3196795449412739 [Eh]
	 Opposite-Spin Energy      =      -1.1087727848243545 [Eh]
	 Correlation Energy        =      -1.4284523297656284 [Eh]
	 Total Energy              =    -310.5469375765083555 [Eh]

	 ================> DF-SCS-MP2 Energies <==================
	-----------------------------------------------------------
	 SCS Same-Spin Scale       =       0.3333333333333333 [-]
	 SCS Opposite-Spin Scale   =       1.2000000000000000 [-]
	 SCS Same-Spin Energy      =      -0.1065598483137580 [Eh]
	 SCS Opposite-Spin Energy  =      -1.3305273417892254 [Eh]
	 SCS Correlation Energy    =      -1.4370871901029834 [Eh]
	 SCS Total Energy          =    -310.5555724368457504 [Eh]
	-----------------------------------------------------------

  Dipole Moment: [D]
     X:     1.8316      Y:     0.4832      Z:     0.7274     Total:     2.0291

*** Psi4 exiting successfully. Buy a developer a beer!
