                               Psi4 1.3.2 release

  ==> Input File <==

--------------------------------------------------------------------------
#psi4
#
memory 32 gb

molecule  {
0 1
  O       -2.0333080    -0.4946570    -0.2594300
  C       -0.1094131     0.1744402     0.2786116
  C       -0.7556090    -0.6523520    -0.9323370
  C       -1.3382130    -0.0434820     0.9333840
  C        1.2403190    -0.3676220     0.7285870
  C        0.0785870     1.6559510    -0.2923950
  C        2.4113120    -0.4074660    -0.2524220
  H       -0.7841080    -0.2688730    -1.9587990
  H       -0.4364910    -1.7049300    -0.9420770
  H       -1.2533150    -0.8496150     1.6763590
  H       -1.8269820     0.8255510     1.3890460
  H        1.0363310    -1.3847530     1.0869340
  H        1.5166380     0.2228000     1.6126860
  H        0.3782920     2.2853470     0.5530020
  H        0.8158740     1.7811390    -1.0908580
  H       -0.8864940     2.0141160    -0.6640870
  H        2.1439640    -0.9639070    -1.1568140
  H        2.7223560     0.5959580    -0.5532190
  H        3.2771150    -0.9015380     0.1976500
units angstrom
no_reorient  #important for SAPT in psi4, default
symmetry c1  #important for SAPT in psi4, default
}

set PROPERTIES_ORIGIN ["COM"]
properties('MP2/aug-cc-pvtz', properties = ['dipole'])
--------------------------------------------------------------------------

    Molecular point group: c1
  Charge       = 0
  Multiplicity = 1
  Basis Set: AUG-CC-PVTZ
    Blend: AUG-CC-PVTZ
  Basis Set: (AUG-CC-PVTZ AUX)
    Blend: AUG-CC-PVTZ-JKFIT

    Orbital Energies [Eh]
    ---------------------

    Doubly Occupied:

       1A    -20.546238     2A    -11.273655     3A    -11.270536
       4A    -11.239514     5A    -11.228990     6A    -11.224286
       7A    -11.220663     8A     -1.374370     9A     -1.094571
      10A     -0.999938    11A     -0.937364    12A     -0.910974
      13A     -0.852872    14A     -0.731839    15A     -0.673110
      16A     -0.650313    17A     -0.627041    18A     -0.603481
      19A     -0.579810    20A     -0.553211    21A     -0.538753
      22A     -0.530956    23A     -0.528912    24A     -0.503015
      25A     -0.478151    26A     -0.456474    27A     -0.422219
      28A     -0.395080

  @DF-RHF Final Energy:  -309.10123954115994

   => Energetics <=

    Nuclear Repulsion Energy =            330.2545632076516426
    One-Electron Energy =               -1073.8189319264733967
    Two-Electron Energy =                 434.4631291776617559
    Total Energy =                       -309.1012395411599414
  Basis Set: (AUG-CC-PVTZ AUX)
    Blend: AUG-CC-PVTZ-RI
    Molecular point group: c1

    Geometry (in Angstrom), charge = 0, multiplicity = 1:

       Center              X                  Y                   Z               Mass
    ------------   -----------------  -----------------  -----------------  -----------------
         O           -1.958942443217    -0.475332666464    -0.275041912979    15.994914619570
         C           -0.035047543217     0.193764533536     0.262999687021    12.000000000000
         C           -0.681243443217    -0.633027666464    -0.947948912979    12.000000000000
         C           -1.263847443217    -0.024157666464     0.917772087021    12.000000000000
         C            1.314684556783    -0.348297666464     0.712975087021    12.000000000000
         C            0.152952556783     1.675275333536    -0.308006912979    12.000000000000
         C            2.485677556783    -0.388141666464    -0.268033912979    12.000000000000
         H           -0.709742443217    -0.249548666464    -1.974410912979     1.007825032230
         H           -0.362125443217    -1.685605666464    -0.957688912979     1.007825032230
         H           -1.178949443217    -0.830290666464     1.660747087021     1.007825032230
         H           -1.752616443217     0.844875333536     1.373434087021     1.007825032230
         H            1.110696556783    -1.365428666464     1.071322087021     1.007825032230
         H            1.591003556783     0.242124333536     1.597074087021     1.007825032230
         H            0.452657556783     2.304671333536     0.537390087021     1.007825032230
         H            0.890239556783     1.800463333536    -1.106469912979     1.007825032230
         H           -0.812128443217     2.033440333536    -0.679698912979     1.007825032230
         H            2.218329556783    -0.944582666464    -1.172425912979     1.007825032230
         H            2.796721556783     0.615282333536    -0.568830912979     1.007825032230
         H            3.351480556783    -0.882213666464     0.182038087021     1.007825032230

  Basis Set: AUG-CC-PVTZ
    Blend: AUG-CC-PVTZ
  Basis Set: (AUG-CC-PVTZ AUX)
    Blend: AUG-CC-PVTZ-JKFIT
	 Reference Energy          =    -309.1012395411599414 [Eh]
	 Singles Energy            =      -0.0000000000000000 [Eh]
	 Same-Spin Energy          =      -0.3205062190997703 [Eh]
	 Opposite-Spin Energy      =      -1.1119120386207779 [Eh]
	 Correlation Energy        =      -1.4324182577205482 [Eh]
	 Total Energy              =    -310.5336577988804834 [Eh]

	 ================> DF-SCS-MP2 Energies <==================
	-----------------------------------------------------------
	 SCS Same-Spin Scale       =       0.3333333333333333 [-]
	 SCS Opposite-Spin Scale   =       1.2000000000000000 [-]
	 SCS Same-Spin Energy      =      -0.1068354063665901 [Eh]
	 SCS Opposite-Spin Energy  =      -1.3342944463449335 [Eh]
	 SCS Correlation Energy    =      -1.4411298527115237 [Eh]
	 SCS Total Energy          =    -310.5423693938714678 [Eh]
	-----------------------------------------------------------

  Dipole Moment: [D]
     X:     2.1133      Y:     0.3545      Z:     0.4403     Total:     2.1876

*** Psi4 exiting successfully. Buy a developer a beer!
