                               Psi4 1.3.2 release

  ==> Input File <==

--------------------------------------------------------------------------
#psi4
#
memory 32 gb

molecule  {
0 1
  O       -2.0333080    -0.4946570    -0.2594300
  C        0.0384341     0.2179445     0.0001156
  C       -0.7556090    -0.6523520    -0.9323370
  C       -1.3382130    -0.0434820     0.9333840
  C        1.2403190    -0.3676220     0.7285870
  C        0.0785870     1.6559510    -0.2923950
  C        2.4113120    -0.4074660    -0.2524220
  H       -0.7841080    -0.2688730    -1.9587990
  H       -0.4364910    -1.7049300    -0.9420770
  H       -1.2533150    -0.8496150     1.6763590
  H       -1.8269820     0.8255510     1.3890460
  H        1.0363310    -1.3847530     1.0869340
  H        1.5166380     0.2228000     1.6126860
  H        0.3782920     2.2853470     0.5530020
  H        0.8158740     1.7811390    -1.0908580
  H       -0.8864940     2.0141160    -0.6640870
  H        2.1439640    -0.9639070    -1.1568140
  H        2.7223560     0.5959580    -0.5532190
  H        3.2771150    -0.9015380     0.1976500
units angstrom
no_reorient  #important for SAPT in psi4, default
symmetry c1  #important for SAPT in psi4, default
}

set PROPERTIES_ORIGIN ["COM"]
properties('MP2/aug-cc-pvtz', properties = ['dipole'])
--------------------------------------------------------------------------

    Molecular point group: c1
  Charge       = 0
  Multiplicity = 1
  Basis Set: AUG-CC-PVTZ
    Blend: AUG-CC-PVTZ
  Basis Set: (AUG-CC-PVTZ AUX)
    Blend: AUG-CC-PVTZ-JKFIT

    Orbital Energies [Eh]
    ---------------------

    Doubly Occupied:

       1A    -20.546664     2A    -11.276822     3A    -11.273848
       4A    -11.241502     5A    -11.228784     6A    -11.218322
       7A    -11.218100     8A     -1.365870     9A     -1.101223
      10A     -1.000578    11A     -0.931231    12A     -0.909259
      13A     -0.842825    14A     -0.732836    15A     -0.667308
      16A     -0.657203    17A     -0.626767    18A     -0.597817
      19A     -0.577476    20A     -0.562576    21A     -0.543107
      22A     -0.532212    23A     -0.525240    24A     -0.512512
      25A     -0.479067    26A     -0.453189    27A     -0.419092
      28A     -0.383155

  @DF-RHF Final Energy:  -309.10428245699865

   => Energetics <=

    Nuclear Repulsion Energy =            330.0140748175971908
    One-Electron Energy =               -1073.3875436680673374
    Two-Electron Energy =                 434.2691863934714434
    Total Energy =                       -309.1042824569986465
  Basis Set: (AUG-CC-PVTZ AUX)
    Blend: AUG-CC-PVTZ-RI
    Molecular point group: c1

    Geometry (in Angstrom), charge = 0, multiplicity = 1:

       Center              X                  Y                   Z               Mass
    ------------   -----------------  -----------------  -----------------  -----------------
         O           -1.976668363939    -0.480548549977    -0.241652048190    15.994914619570
         C            0.095073736061     0.232052950023     0.017893551810    12.000000000000
         C           -0.698969363939    -0.638243549977    -0.914559048190    12.000000000000
         C           -1.281573363939    -0.029373549977     0.951161951810    12.000000000000
         C            1.296958636061    -0.353513549977     0.746364951810    12.000000000000
         C            0.135226636061     1.670059450023    -0.274617048190    12.000000000000
         C            2.467951636061    -0.393357549977    -0.234644048190    12.000000000000
         H           -0.727468363939    -0.254764549977    -1.941021048190     1.007825032230
         H           -0.379851363939    -1.690821549977    -0.924299048190     1.007825032230
         H           -1.196675363939    -0.835506549977     1.694136951810     1.007825032230
         H           -1.770342363939     0.839659450023     1.406823951810     1.007825032230
         H            1.092970636061    -1.370644549977     1.104711951810     1.007825032230
         H            1.573277636061     0.236908450023     1.630463951810     1.007825032230
         H            0.434931636061     2.299455450023     0.570779951810     1.007825032230
         H            0.872513636061     1.795247450023    -1.073080048190     1.007825032230
         H           -0.829854363939     2.028224450023    -0.646309048190     1.007825032230
         H            2.200603636061    -0.949798549977    -1.139036048190     1.007825032230
         H            2.778995636061     0.610066450023    -0.535441048190     1.007825032230
         H            3.333754636061    -0.887429549977     0.215427951810     1.007825032230

  Basis Set: AUG-CC-PVTZ
    Blend: AUG-CC-PVTZ
  Basis Set: (AUG-CC-PVTZ AUX)
    Blend: AUG-CC-PVTZ-JKFIT
	 Reference Energy          =    -309.1042824569986465 [Eh]
	 Singles Energy            =      -0.0000000000000000 [Eh]
	 Same-Spin Energy          =      -0.3208900362783298 [Eh]
	 Opposite-Spin Energy      =      -1.1127376785259200 [Eh]
	 Correlation Energy        =      -1.4336277148042498 [Eh]
	 Total Energy              =    -310.5379101718028778 [Eh]

	 ================> DF-SCS-MP2 Energies <==================
	-----------------------------------------------------------
	 SCS Same-Spin Scale       =       0.3333333333333333 [-]
	 SCS Opposite-Spin Scale   =       1.2000000000000000 [-]
	 SCS Same-Spin Energy      =      -0.1069633454261099 [Eh]
	 SCS Opposite-Spin Energy  =      -1.3352852142311040 [Eh]
	 SCS Correlation Energy    =      -1.4422485596572139 [Eh]
	 SCS Total Energy          =    -310.5465310166558766 [Eh]
	-----------------------------------------------------------

  Dipole Moment: [D]
     X:     2.0584      Y:     0.4390      Z:     0.5530     Total:     2.1762

*** Psi4 exiting successfully. Buy a developer a beer!
