                               Psi4 1.4a3.dev225

  ==> Input File <==

--------------------------------------------------------------------------
#psi4
#
memory 32 gb

molecule  {
0 1
  O       -2.0333080    -0.4946570    -0.2594300
  C       -0.0425170     0.1992980     0.1361180
  C       -0.7556090    -0.6523520    -0.9323370
  C       -1.3382130    -0.0434820     0.9333840
  C        1.2403190    -0.3676220     0.7285870
  C        0.0785870     1.6559510    -0.2923950
  C        2.4113120    -0.4074660    -0.2524220
  H       -0.7846280    -0.2618760    -1.9775279
  H       -0.4364910    -1.7049300    -0.9420770
  H       -1.2533150    -0.8496150     1.6763590
  H       -1.8269820     0.8255510     1.3890460
  H        1.0363310    -1.3847530     1.0869340
  H        1.5166380     0.2228000     1.6126860
  H        0.3782920     2.2853470     0.5530020
  H        0.8158740     1.7811390    -1.0908580
  H       -0.8864940     2.0141160    -0.6640870
  H        2.1439640    -0.9639070    -1.1568140
  H        2.7223560     0.5959580    -0.5532190
  H        3.2771150    -0.9015380     0.1976500
units angstrom
no_reorient  #important for SAPT in psi4, default
symmetry c1  #important for SAPT in psi4, default
}

set PROPERTIES_ORIGIN ["COM"]
properties('MP2/aug-cc-pvtz', properties = ['dipole'])
--------------------------------------------------------------------------

    Molecular point group: c1
  Charge       = 0
  Multiplicity = 1
  Basis Set: AUG-CC-PVTZ
    Blend: AUG-CC-PVTZ
  Basis Set: (AUG-CC-PVTZ AUX)
    Blend: AUG-CC-PVTZ-JKFIT

    Orbital Energies [Eh]
    ---------------------

    Doubly Occupied:

       1A    -20.546703     2A    -11.276162     3A    -11.273490
       4A    -11.237727     5A    -11.227277     6A    -11.220513
       7A    -11.218511     8A     -1.370554     9A     -1.095544
      10A     -0.996961    11A     -0.927205    12A     -0.916614
      13A     -0.846827    14A     -0.731559    15A     -0.667413
      16A     -0.654393    17A     -0.625943    18A     -0.599745
      19A     -0.576679    20A     -0.557398    21A     -0.540308
      22A     -0.530526    23A     -0.527402    24A     -0.505973
      25A     -0.470931    26A     -0.437821    27A     -0.436455
      28A     -0.410555

  @DF-RHF Final Energy:  -309.12517793553138

   => Energetics <=

    Nuclear Repulsion Energy =            330.1579458179833750
    One-Electron Energy =               -1073.7118671730343067
    Two-Electron Energy =                 434.4287434195196056
    Total Energy =                       -309.1251779355313829
  Basis Set: (AUG-CC-PVTZ AUX)
    Blend: AUG-CC-PVTZ-RI
    Molecular point group: c1

    Geometry (in Angstrom), charge = 0, multiplicity = 1:

       Center              X                  Y                   Z               Mass
    ------------   -----------------  -----------------  -----------------  -----------------
         O           -1.966957615850    -0.478383410463    -0.257769267138    15.994914619570
         C            0.023833384150     0.215571589537     0.137778732862    12.000000000000
         C           -0.689258615850    -0.636078410463    -0.930676267138    12.000000000000
         C           -1.271862615850    -0.027208410463     0.935044732862    12.000000000000
         C            1.306669384150    -0.351348410463     0.730247732862    12.000000000000
         C            0.144937384150     1.672224589537    -0.290734267138    12.000000000000
         C            2.477662384150    -0.391192410463    -0.250761267138    12.000000000000
         H           -0.718277615850    -0.245602410463    -1.975867167138     1.007825032230
         H           -0.370140615850    -1.688656410463    -0.940416267138     1.007825032230
         H           -1.186964615850    -0.833341410463     1.678019732862     1.007825032230
         H           -1.760631615850     0.841824589537     1.390706732862     1.007825032230
         H            1.102681384150    -1.368479410463     1.088594732862     1.007825032230
         H            1.582988384150     0.239073589537     1.614346732862     1.007825032230
         H            0.444642384150     2.301620589537     0.554662732862     1.007825032230
         H            0.882224384150     1.797412589537    -1.089197267138     1.007825032230
         H           -0.820143615850     2.030389589537    -0.662426267138     1.007825032230
         H            2.210314384150    -0.947633410463    -1.155153267138     1.007825032230
         H            2.788706384150     0.612231589537    -0.551558267138     1.007825032230
         H            3.343465384150    -0.885264410463     0.199310732862     1.007825032230

  Basis Set: AUG-CC-PVTZ
    Blend: AUG-CC-PVTZ
  Basis Set: (AUG-CC-PVTZ AUX)
    Blend: AUG-CC-PVTZ-JKFIT
	 Reference Energy          =    -309.1251779355313829 [Eh]
	 Singles Energy            =      -0.0000000000000000 [Eh]
	 Same-Spin Energy          =      -0.3196520888963567 [Eh]
	 Opposite-Spin Energy      =      -1.1103656756154663 [Eh]
	 Correlation Energy        =      -1.4300177645118231 [Eh]
	 Total Energy              =    -310.5551957000432139 [Eh]

	 ================> DF-SCS-MP2 Energies <==================
	-----------------------------------------------------------
	 SCS Same-Spin Scale       =       0.3333333333333333 [-]
	 SCS Opposite-Spin Scale   =       1.2000000000000000 [-]
	 SCS Same-Spin Energy      =      -0.1065506962987856 [Eh]
	 SCS Opposite-Spin Energy  =      -1.3324388107385594 [Eh]
	 SCS Correlation Energy    =      -1.4389895070373449 [Eh]
	 SCS Total Energy          =    -310.5641674425687029 [Eh]
	-----------------------------------------------------------

  Dipole Moment: [D]
     X:     2.0650      Y:     0.4055      Z:     0.5169     Total:     2.1670

*** Psi4 exiting successfully. Buy a developer a beer!
