                               Psi4 1.3.2 release

  ==> Input File <==

--------------------------------------------------------------------------
#psi4
#
memory 32 gb

molecule  {
0 1
  O       -2.0333080    -0.4946570    -0.2594300
  C       -0.0392405     0.3070114     0.2535255
  C       -0.7556090    -0.6523520    -0.9323370
  C       -1.3382130    -0.0434820     0.9333840
  C        1.2403190    -0.3676220     0.7285870
  C        0.0785870     1.6559510    -0.2923950
  C        2.4113120    -0.4074660    -0.2524220
  H       -0.7841080    -0.2688730    -1.9587990
  H       -0.4364910    -1.7049300    -0.9420770
  H       -1.2533150    -0.8496150     1.6763590
  H       -1.8269820     0.8255510     1.3890460
  H        1.0363310    -1.3847530     1.0869340
  H        1.5166380     0.2228000     1.6126860
  H        0.3782920     2.2853470     0.5530020
  H        0.8158740     1.7811390    -1.0908580
  H       -0.8864940     2.0141160    -0.6640870
  H        2.1439640    -0.9639070    -1.1568140
  H        2.7223560     0.5959580    -0.5532190
  H        3.2771150    -0.9015380     0.1976500
units angstrom
no_reorient  #important for SAPT in psi4, default
symmetry c1  #important for SAPT in psi4, default
}

set PROPERTIES_ORIGIN ["COM"]
properties('MP2/aug-cc-pvtz', properties = ['dipole'])
--------------------------------------------------------------------------

    Molecular point group: c1
  Charge       = 0
  Multiplicity = 1
  Basis Set: AUG-CC-PVTZ
    Blend: AUG-CC-PVTZ
  Basis Set: (AUG-CC-PVTZ AUX)
    Blend: AUG-CC-PVTZ-JKFIT

    Orbital Energies [Eh]
    ---------------------

    Doubly Occupied:

       1A    -20.546693     2A    -11.276481     3A    -11.273966
       4A    -11.242156     5A    -11.228624     6A    -11.222108
       7A    -11.218086     8A     -1.365583     9A     -1.100180
      10A     -1.002831    11A     -0.932848    12A     -0.906163
      13A     -0.848195    14A     -0.730419    15A     -0.666037
      16A     -0.655123    17A     -0.624675    18A     -0.602606
      19A     -0.579326    20A     -0.559539    21A     -0.544089
      22A     -0.536412    23A     -0.529867    24A     -0.502107
      25A     -0.484044    26A     -0.450391    27A     -0.419556
      28A     -0.383570

  @DF-RHF Final Energy:  -309.10409216583076

   => Energetics <=

    Nuclear Repulsion Energy =            329.5490018627168638
    One-Electron Energy =               -1072.4428453313923910
    Two-Electron Energy =                 433.7897513028447634
    Total Energy =                       -309.1040921658307639
  Basis Set: (AUG-CC-PVTZ AUX)
    Blend: AUG-CC-PVTZ-RI
    Molecular point group: c1

    Geometry (in Angstrom), charge = 0, multiplicity = 1:

       Center              X                  Y                   Z               Mass
    ------------   -----------------  -----------------  -----------------  -----------------
         O           -1.967355682997    -0.491227093828    -0.272034252233    15.994914619570
         C            0.026711817003     0.310441306172     0.240921247767    12.000000000000
         C           -0.689656682997    -0.648922093828    -0.944941252233    12.000000000000
         C           -1.272260682997    -0.040052093828     0.920779747767    12.000000000000
         C            1.306271317003    -0.364192093828     0.715982747767    12.000000000000
         C            0.144539317003     1.659380906172    -0.304999252233    12.000000000000
         C            2.477264317003    -0.404036093828    -0.265026252233    12.000000000000
         H           -0.718155682997    -0.265443093828    -1.971403252233     1.007825032230
         H           -0.370538682997    -1.701500093828    -0.954681252233     1.007825032230
         H           -1.187362682997    -0.846185093828     1.663754747767     1.007825032230
         H           -1.761029682997     0.828980906172     1.376441747767     1.007825032230
         H            1.102283317003    -1.381323093828     1.074329747767     1.007825032230
         H            1.582590317003     0.226229906172     1.600081747767     1.007825032230
         H            0.444244317003     2.288776906172     0.540397747767     1.007825032230
         H            0.881826317003     1.784568906172    -1.103462252233     1.007825032230
         H           -0.820541682997     2.017545906172    -0.676691252233     1.007825032230
         H            2.209916317003    -0.960477093828    -1.169418252233     1.007825032230
         H            2.788308317003     0.599387906172    -0.565823252233     1.007825032230
         H            3.343067317003    -0.898108093828     0.185045747767     1.007825032230

  Basis Set: AUG-CC-PVTZ
    Blend: AUG-CC-PVTZ
  Basis Set: (AUG-CC-PVTZ AUX)
    Blend: AUG-CC-PVTZ-JKFIT
	 Reference Energy          =    -309.1040921658307639 [Eh]
	 Singles Energy            =      -0.0000000000000000 [Eh]
	 Same-Spin Energy          =      -0.3208870100782148 [Eh]
	 Opposite-Spin Energy      =      -1.1126020973674409 [Eh]
	 Correlation Energy        =      -1.4334891074456557 [Eh]
	 Total Energy              =    -310.5375812732764302 [Eh]

	 ================> DF-SCS-MP2 Energies <==================
	-----------------------------------------------------------
	 SCS Same-Spin Scale       =       0.3333333333333333 [-]
	 SCS Opposite-Spin Scale   =       1.2000000000000000 [-]
	 SCS Same-Spin Energy      =      -0.1069623366927383 [Eh]
	 SCS Opposite-Spin Energy  =      -1.3351225168409291 [Eh]
	 SCS Correlation Energy    =      -1.4420848535336674 [Eh]
	 SCS Total Energy          =    -310.5461770193644497 [Eh]
	-----------------------------------------------------------

  Dipole Moment: [D]
     X:     2.1003      Y:     0.4201      Z:     0.4586     Total:     2.1904

*** Psi4 exiting successfully. Buy a developer a beer!
