                               Psi4 1.3.2 release

  ==> Input File <==

--------------------------------------------------------------------------
#psi4
#
memory 32 gb

molecule  {
0 1
  O       -2.0333080    -0.4946570    -0.2594300
  C       -0.0425170     0.1992980     0.1361180
  C       -0.7324272    -0.6364700    -0.8901315
  C       -1.3382130    -0.0434820     0.9333840
  C        1.2403190    -0.3676220     0.7285870
  C        0.0785870     1.6559510    -0.2923950
  C        2.4113120    -0.4074660    -0.2524220
  H       -0.7841080    -0.2688730    -1.9587990
  H       -0.4364910    -1.7049300    -0.9420770
  H       -1.2533150    -0.8496150     1.6763590
  H       -1.8269820     0.8255510     1.3890460
  H        1.0363310    -1.3847530     1.0869340
  H        1.5166380     0.2228000     1.6126860
  H        0.3782920     2.2853470     0.5530020
  H        0.8158740     1.7811390    -1.0908580
  H       -0.8864940     2.0141160    -0.6640870
  H        2.1439640    -0.9639070    -1.1568140
  H        2.7223560     0.5959580    -0.5532190
  H        3.2771150    -0.9015380     0.1976500
units angstrom
no_reorient  #important for SAPT in psi4, default
symmetry c1  #important for SAPT in psi4, default
}

set PROPERTIES_ORIGIN ["COM"]
properties('MP2/aug-cc-pvtz', properties = ['dipole'])
--------------------------------------------------------------------------

    Molecular point group: c1
  Charge       = 0
  Multiplicity = 1
  Basis Set: AUG-CC-PVTZ
    Blend: AUG-CC-PVTZ
  Basis Set: (AUG-CC-PVTZ AUX)
    Blend: AUG-CC-PVTZ-JKFIT

    Orbital Energies [Eh]
    ---------------------

    Doubly Occupied:

       1A    -20.546431     2A    -11.275978     3A    -11.274517
       4A    -11.235503     5A    -11.227760     6A    -11.220870
       7A    -11.219262     8A     -1.373795     9A     -1.100113
      10A     -0.999070    11A     -0.925807    12A     -0.920878
      13A     -0.847901    14A     -0.732541    15A     -0.667365
      16A     -0.656864    17A     -0.627994    18A     -0.600753
      19A     -0.573878    20A     -0.558029    21A     -0.540085
      22A     -0.530260    23A     -0.523757    24A     -0.507488
      25A     -0.472103    26A     -0.446299    27A     -0.435912
      28A     -0.408688

  @DF-RHF Final Energy:  -309.12214531233684

   => Energetics <=

    Nuclear Repulsion Energy =            331.1043486641884783
    One-Electron Energy =               -1075.5531810076352031
    Two-Electron Energy =                 435.3266870311098842
    Total Energy =                       -309.1221453123368406
  Basis Set: (AUG-CC-PVTZ AUX)
    Blend: AUG-CC-PVTZ-RI
    Molecular point group: c1

    Geometry (in Angstrom), charge = 0, multiplicity = 1:

       Center              X                  Y                   Z               Mass
    ------------   -----------------  -----------------  -----------------  -----------------
         O           -1.969742199412    -0.480217104350    -0.263018020000    15.994914619570
         C            0.021048800588     0.213737895650     0.132529980000    12.000000000000
         C           -0.668861399412    -0.622030104350    -0.893719520000    12.000000000000
         C           -1.274647199412    -0.029042104350     0.929795980000    12.000000000000
         C            1.303884800588    -0.353182104350     0.724998980000    12.000000000000
         C            0.142152800588     1.670390895650    -0.295983020000    12.000000000000
         C            2.474877800588    -0.393026104350    -0.256010020000    12.000000000000
         H           -0.720542199412    -0.254433104350    -1.962387020000     1.007825032230
         H           -0.372925199412    -1.690490104350    -0.945665020000     1.007825032230
         H           -1.189749199412    -0.835175104350     1.672770980000     1.007825032230
         H           -1.763416199412     0.839990895650     1.385457980000     1.007825032230
         H            1.099896800588    -1.370313104350     1.083345980000     1.007825032230
         H            1.580203800588     0.237239895650     1.609097980000     1.007825032230
         H            0.441857800588     2.299786895650     0.549413980000     1.007825032230
         H            0.879439800588     1.795578895650    -1.094446020000     1.007825032230
         H           -0.822928199412     2.028555895650    -0.667675020000     1.007825032230
         H            2.207529800588    -0.949467104350    -1.160402020000     1.007825032230
         H            2.785921800588     0.610397895650    -0.556807020000     1.007825032230
         H            3.340680800588    -0.887098104350     0.194061980000     1.007825032230

  Basis Set: AUG-CC-PVTZ
    Blend: AUG-CC-PVTZ
  Basis Set: (AUG-CC-PVTZ AUX)
    Blend: AUG-CC-PVTZ-JKFIT
	 Reference Energy          =    -309.1221453123368406 [Eh]
	 Singles Energy            =      -0.0000000000000000 [Eh]
	 Same-Spin Energy          =      -0.3201641101072264 [Eh]
	 Opposite-Spin Energy      =      -1.1107350641900671 [Eh]
	 Correlation Energy        =      -1.4308991742972934 [Eh]
	 Total Energy              =    -310.5530444866341213 [Eh]

	 ================> DF-SCS-MP2 Energies <==================
	-----------------------------------------------------------
	 SCS Same-Spin Scale       =       0.3333333333333333 [-]
	 SCS Opposite-Spin Scale   =       1.2000000000000000 [-]
	 SCS Same-Spin Energy      =      -0.1067213700357421 [Eh]
	 SCS Opposite-Spin Energy  =      -1.3328820770280805 [Eh]
	 SCS Correlation Energy    =      -1.4396034470638226 [Eh]
	 SCS Total Energy          =    -310.5617487594006434 [Eh]
	-----------------------------------------------------------

  Dipole Moment: [D]
     X:     2.0740      Y:     0.4199      Z:     0.5671     Total:     2.1908

*** Psi4 exiting successfully. Buy a developer a beer!
