                               Psi4 1.3.2 release

  ==> Input File <==

--------------------------------------------------------------------------
#psi4
#
memory 32 gb

molecule  {
0 1
  O       -2.0548412    -0.5229185    -0.2956039
  C       -0.0425170     0.1992980     0.1361180
  C       -0.7556090    -0.6523520    -0.9323370
  C       -1.3382130    -0.0434820     0.9333840
  C        1.2403190    -0.3676220     0.7285870
  C        0.0785870     1.6559510    -0.2923950
  C        2.4113120    -0.4074660    -0.2524220
  H       -0.7841080    -0.2688730    -1.9587990
  H       -0.4364910    -1.7049300    -0.9420770
  H       -1.2533150    -0.8496150     1.6763590
  H       -1.8269820     0.8255510     1.3890460
  H        1.0363310    -1.3847530     1.0869340
  H        1.5166380     0.2228000     1.6126860
  H        0.3782920     2.2853470     0.5530020
  H        0.8158740     1.7811390    -1.0908580
  H       -0.8864940     2.0141160    -0.6640870
  H        2.1439640    -0.9639070    -1.1568140
  H        2.7223560     0.5959580    -0.5532190
  H        3.2771150    -0.9015380     0.1976500
units angstrom
no_reorient  #important for SAPT in psi4, default
symmetry c1  #important for SAPT in psi4, default
}

set PROPERTIES_ORIGIN ["COM"]
properties('MP2/aug-cc-pvtz', properties = ['dipole'])
--------------------------------------------------------------------------

    Molecular point group: c1
  Charge       = 0
  Multiplicity = 1
  Basis Set: AUG-CC-PVTZ
    Blend: AUG-CC-PVTZ
  Basis Set: (AUG-CC-PVTZ AUX)
    Blend: AUG-CC-PVTZ-JKFIT

    Orbital Energies [Eh]
    ---------------------

    Doubly Occupied:

       1A    -20.546468     2A    -11.278907     3A    -11.272472
       4A    -11.239030     5A    -11.228497     6A    -11.221125
       7A    -11.219180     8A     -1.355859     9A     -1.097294
      10A     -0.998489    11A     -0.925935    12A     -0.916554
      13A     -0.848958    14A     -0.731935    15A     -0.665649
      16A     -0.652896    17A     -0.624170    18A     -0.598172
      19A     -0.573450    20A     -0.556772    21A     -0.540362
      22A     -0.530111    23A     -0.526706    24A     -0.506315
      25A     -0.471579    26A     -0.440450    27A     -0.434996
      28A     -0.412269

  @DF-RHF Final Energy:  -309.12215897513875

   => Energetics <=

    Nuclear Repulsion Energy =            329.1755503767642494
    One-Electron Energy =               -1071.7662240157621909
    Two-Electron Energy =                 433.4685146638591959
    Total Energy =                       -309.1221589751387455
  Basis Set: (AUG-CC-PVTZ AUX)
    Blend: AUG-CC-PVTZ-RI
    Molecular point group: c1

    Geometry (in Angstrom), charge = 0, multiplicity = 1:

       Center              X                  Y                   Z               Mass
    ------------   -----------------  -----------------  -----------------  -----------------
         O           -1.985054891202    -0.502058063959    -0.288350904030    15.994914619570
         C            0.027269308798     0.220158436041     0.143370995970    12.000000000000
         C           -0.685822691202    -0.631491563959    -0.925084004030    12.000000000000
         C           -1.268426691202    -0.022621563959     0.940636995970    12.000000000000
         C            1.310105308798    -0.346761563959     0.735839995970    12.000000000000
         C            0.148373308798     1.676811436041    -0.285142004030    12.000000000000
         C            2.481098308798    -0.386605563959    -0.245169004030    12.000000000000
         H           -0.714321691202    -0.248012563959    -1.951546004030     1.007825032230
         H           -0.366704691202    -1.684069563959    -0.934824004030     1.007825032230
         H           -1.183528691202    -0.828754563959     1.683611995970     1.007825032230
         H           -1.757195691202     0.846411436041     1.396298995970     1.007825032230
         H            1.106117308798    -1.363892563959     1.094186995970     1.007825032230
         H            1.586424308798     0.243660436041     1.619938995970     1.007825032230
         H            0.448078308798     2.306207436041     0.560254995970     1.007825032230
         H            0.885660308798     1.801999436041    -1.083605004030     1.007825032230
         H           -0.816707691202     2.034976436041    -0.656834004030     1.007825032230
         H            2.213750308798    -0.943046563959    -1.149561004030     1.007825032230
         H            2.792142308798     0.616818436041    -0.545966004030     1.007825032230
         H            3.346901308798    -0.880677563959     0.204902995970     1.007825032230

  Basis Set: AUG-CC-PVTZ
    Blend: AUG-CC-PVTZ
  Basis Set: (AUG-CC-PVTZ AUX)
    Blend: AUG-CC-PVTZ-JKFIT
	 Reference Energy          =    -309.1221589751387455 [Eh]
	 Singles Energy            =      -0.0000000000000000 [Eh]
	 Same-Spin Energy          =      -0.3200049026717521 [Eh]
	 Opposite-Spin Energy      =      -1.1116885314945737 [Eh]
	 Correlation Energy        =      -1.4316934341663257 [Eh]
	 Total Energy              =    -310.5538524093050796 [Eh]

	 ================> DF-SCS-MP2 Energies <==================
	-----------------------------------------------------------
	 SCS Same-Spin Scale       =       0.3333333333333333 [-]
	 SCS Opposite-Spin Scale   =       1.2000000000000000 [-]
	 SCS Same-Spin Energy      =      -0.1066683008905840 [Eh]
	 SCS Opposite-Spin Energy  =      -1.3340262377934884 [Eh]
	 SCS Correlation Energy    =      -1.4406945386840724 [Eh]
	 SCS Total Energy          =    -310.5628535138228017 [Eh]
	-----------------------------------------------------------

  Dipole Moment: [D]
     X:     2.1412      Y:     0.4736      Z:     0.6362     Total:     2.2833

*** Psi4 exiting successfully. Buy a developer a beer!
