                               Psi4 1.3.2 release

  ==> Input File <==

--------------------------------------------------------------------------
#psi4
#
memory 32 gb

molecule  {
0 1
  O       -2.0333080    -0.4946570    -0.2594300
  C       -0.0425170     0.1992980     0.1361180
  C       -0.7556090    -0.6523520    -0.9323370
  C       -1.3382130    -0.0434820     0.9333840
  C        1.2403190    -0.3676220     0.7285870
  C        0.0785870     1.6559510    -0.2923950
  C        2.4113120    -0.4074660    -0.2524220
  H       -0.7893079    -0.1989031    -2.1460880
  H       -0.4364910    -1.7049300    -0.9420770
  H       -1.2533150    -0.8496150     1.6763590
  H       -1.8269820     0.8255510     1.3890460
  H        1.0363310    -1.3847530     1.0869340
  H        1.5166380     0.2228000     1.6126860
  H        0.3782920     2.2853470     0.5530020
  H        0.8158740     1.7811390    -1.0908580
  H       -0.8864940     2.0141160    -0.6640870
  H        2.1439640    -0.9639070    -1.1568140
  H        2.7223560     0.5959580    -0.5532190
  H        3.2771150    -0.9015380     0.1976500
units angstrom
no_reorient  #important for SAPT in psi4, default
symmetry c1  #important for SAPT in psi4, default
}

set PROPERTIES_ORIGIN ["COM"]
properties('MP2/aug-cc-pvtz', properties = ['dipole'])
--------------------------------------------------------------------------

    Molecular point group: c1
  Charge       = 0
  Multiplicity = 1
  Basis Set: AUG-CC-PVTZ
    Blend: AUG-CC-PVTZ
  Basis Set: (AUG-CC-PVTZ AUX)
    Blend: AUG-CC-PVTZ-JKFIT

    Orbital Energies [Eh]
    ---------------------

    Doubly Occupied:

       1A    -20.551028     2A    -11.296575     3A    -11.275933
       4A    -11.240565     5A    -11.228734     6A    -11.220922
       7A    -11.218843     8A     -1.373776     9A     -1.096993
      10A     -0.997700    11A     -0.922886    12A     -0.913770
      13A     -0.846862    14A     -0.727575    15A     -0.660964
      16A     -0.650389    17A     -0.627321    18A     -0.600624
      19A     -0.576431    20A     -0.558528    21A     -0.538953
      22A     -0.530988    23A     -0.515909    24A     -0.506661
      25A     -0.471967    26A     -0.439289    27A     -0.434739
      28A     -0.408454

  @DF-RHF Final Energy:  -309.10525661263722

   => Energetics <=

    Nuclear Repulsion Energy =            329.3549948969230741
    One-Electron Energy =               -1072.0537459653382939
    Two-Electron Energy =                 433.5934944557780568
    Total Energy =                       -309.1052566126372199
  Basis Set: (AUG-CC-PVTZ AUX)
    Blend: AUG-CC-PVTZ-RI
    Molecular point group: c1

    Geometry (in Angstrom), charge = 0, multiplicity = 1:

       Center              X                  Y                   Z               Mass
    ------------   -----------------  -----------------  -----------------  -----------------
         O           -1.966910492499    -0.479017503943    -0.256071983698    15.994914619570
         C            0.023880507501     0.214937496057     0.139476016302    12.000000000000
         C           -0.689211492499    -0.636712503943    -0.928978983698    12.000000000000
         C           -1.271815492499    -0.027842503943     0.936742016302    12.000000000000
         C            1.306716507501    -0.351982503943     0.731945016302    12.000000000000
         C            0.144984507501     1.671590496057    -0.289036983698    12.000000000000
         C            2.477709507501    -0.391826503943    -0.249063983698    12.000000000000
         H           -0.722910392499    -0.183263603943    -2.142729983698     1.007825032230
         H           -0.370093492499    -1.689290503943    -0.938718983698     1.007825032230
         H           -1.186917492499    -0.833975503943     1.679717016302     1.007825032230
         H           -1.760584492499     0.841190496057     1.392404016302     1.007825032230
         H            1.102728507501    -1.369113503943     1.090292016302     1.007825032230
         H            1.583035507501     0.238439496057     1.616044016302     1.007825032230
         H            0.444689507501     2.300986496057     0.556360016302     1.007825032230
         H            0.882271507501     1.796778496057    -1.087499983698     1.007825032230
         H           -0.820096492499     2.029755496057    -0.660728983698     1.007825032230
         H            2.210361507501    -0.948267503943    -1.153455983698     1.007825032230
         H            2.788753507501     0.611597496057    -0.549860983698     1.007825032230
         H            3.343512507501    -0.885898503943     0.201008016302     1.007825032230

  Basis Set: AUG-CC-PVTZ
    Blend: AUG-CC-PVTZ
  Basis Set: (AUG-CC-PVTZ AUX)
    Blend: AUG-CC-PVTZ-JKFIT
	 Reference Energy          =    -309.1052566126372199 [Eh]
	 Singles Energy            =      -0.0000000000000000 [Eh]
	 Same-Spin Energy          =      -0.3199961362332800 [Eh]
	 Opposite-Spin Energy      =      -1.1121950826857159 [Eh]
	 Correlation Energy        =      -1.4321912189189958 [Eh]
	 Total Energy              =    -310.5374478315562214 [Eh]

	 ================> DF-SCS-MP2 Energies <==================
	-----------------------------------------------------------
	 SCS Same-Spin Scale       =       0.3333333333333333 [-]
	 SCS Opposite-Spin Scale   =       1.2000000000000000 [-]
	 SCS Same-Spin Energy      =      -0.1066653787444267 [Eh]
	 SCS Opposite-Spin Energy  =      -1.3346340992228589 [Eh]
	 SCS Correlation Energy    =      -1.4412994779672856 [Eh]
	 SCS Total Energy          =    -310.5465560906044971 [Eh]
	-----------------------------------------------------------

  Dipole Moment: [D]
     X:     2.0540      Y:     0.3895      Z:     0.7093     Total:     2.2077

*** Psi4 exiting successfully. Buy a developer a beer!
