                               Psi4 1.3.2 release

  ==> Input File <==

--------------------------------------------------------------------------
#psi4
#
memory 32 gb

molecule  {
0 1
  O       -2.0333080    -0.4946570    -0.2594300
  C       -0.0425170     0.1992980     0.1361180
  C       -0.7556090    -0.6523520    -0.9323370
  C       -1.3382130    -0.0434820     0.9333840
  C        1.2403190    -0.3676220     0.7285870
  C        0.0785870     1.6559510    -0.2923950
  C        2.4113120    -0.4074660    -0.2524220
  H       -0.7841080    -0.2688730    -1.9587990
  H       -0.4364910    -1.7049300    -0.9420770
  H       -1.2447743    -0.8606386     1.6631745
  H       -1.8269820     0.8255510     1.3890460
  H        1.0363310    -1.3847530     1.0869340
  H        1.5166380     0.2228000     1.6126860
  H        0.3782920     2.2853470     0.5530020
  H        0.8158740     1.7811390    -1.0908580
  H       -0.8864940     2.0141160    -0.6640870
  H        2.1439640    -0.9639070    -1.1568140
  H        2.7223560     0.5959580    -0.5532190
  H        3.2771150    -0.9015380     0.1976500
units angstrom
no_reorient  #important for SAPT in psi4, default
symmetry c1  #important for SAPT in psi4, default
}

set PROPERTIES_ORIGIN ["COM"]
properties('MP2/aug-cc-pvtz', properties = ['dipole'])
--------------------------------------------------------------------------

    Molecular point group: c1
  Charge       = 0
  Multiplicity = 1
  Basis Set: AUG-CC-PVTZ
    Blend: AUG-CC-PVTZ
  Basis Set: (AUG-CC-PVTZ AUX)
    Blend: AUG-CC-PVTZ-JKFIT

    Orbital Energies [Eh]
    ---------------------

    Doubly Occupied:

       1A    -20.546073     2A    -11.273691     3A    -11.273317
       4A    -11.237313     5A    -11.227168     6A    -11.220504
       7A    -11.218460     8A     -1.370250     9A     -1.095441
      10A     -0.996919    11A     -0.928329    12A     -0.916852
      13A     -0.846850    14A     -0.731926    15A     -0.669314
      16A     -0.654310    17A     -0.625849    18A     -0.599715
      19A     -0.576906    20A     -0.557342    21A     -0.540664
      22A     -0.530831    23A     -0.528324    24A     -0.505904
      25A     -0.470846    26A     -0.437793    27A     -0.436182
      28A     -0.410624

  @DF-RHF Final Energy:  -309.12573748675220

   => Energetics <=

    Nuclear Repulsion Energy =            330.2848784741366330
    One-Electron Energy =               -1073.9658351800535456
    Two-Electron Energy =                 434.5552192191647691
    Total Energy =                       -309.1257374867522003
  Basis Set: (AUG-CC-PVTZ AUX)
    Blend: AUG-CC-PVTZ-RI
    Molecular point group: c1

    Geometry (in Angstrom), charge = 0, multiplicity = 1:

       Center              X                  Y                   Z               Mass
    ------------   -----------------  -----------------  -----------------  -----------------
         O           -1.967048850823    -0.478201955505    -0.257825095405    15.994914619570
         C            0.023742149177     0.215753044495     0.137722904595    12.000000000000
         C           -0.689349850823    -0.635896955505    -0.930732095405    12.000000000000
         C           -1.271953850823    -0.027026955505     0.934988904595    12.000000000000
         C            1.306578149177    -0.351166955505     0.730191904595    12.000000000000
         C            0.144846149177     1.672406044495    -0.290790095405    12.000000000000
         C            2.477571149177    -0.391010955505    -0.250817095405    12.000000000000
         H           -0.717848850823    -0.252417955505    -1.957194095405     1.007825032230
         H           -0.370231850823    -1.688474955505    -0.940472095405     1.007825032230
         H           -1.178515150823    -0.844183555505     1.664779404595     1.007825032230
         H           -1.760722850823     0.842006044495     1.390650904595     1.007825032230
         H            1.102590149177    -1.368297955505     1.088538904595     1.007825032230
         H            1.582897149177     0.239255044495     1.614290904595     1.007825032230
         H            0.444551149177     2.301802044495     0.554606904595     1.007825032230
         H            0.882133149177     1.797594044495    -1.089253095405     1.007825032230
         H           -0.820234850823     2.030571044495    -0.662482095405     1.007825032230
         H            2.210223149177    -0.947451955505    -1.155209095405     1.007825032230
         H            2.788615149177     0.612413044495    -0.551614095405     1.007825032230
         H            3.343374149177    -0.885082955505     0.199254904595     1.007825032230

  Basis Set: AUG-CC-PVTZ
    Blend: AUG-CC-PVTZ
  Basis Set: (AUG-CC-PVTZ AUX)
    Blend: AUG-CC-PVTZ-JKFIT
	 Reference Energy          =    -309.1257374867522003 [Eh]
	 Singles Energy            =      -0.0000000000000000 [Eh]
	 Same-Spin Energy          =      -0.3196425523430282 [Eh]
	 Opposite-Spin Energy      =      -1.1102332137420994 [Eh]
	 Correlation Energy        =      -1.4298757660851276 [Eh]
	 Total Energy              =    -310.5556132528373041 [Eh]

	 ================> DF-SCS-MP2 Energies <==================
	-----------------------------------------------------------
	 SCS Same-Spin Scale       =       0.3333333333333333 [-]
	 SCS Opposite-Spin Scale   =       1.2000000000000000 [-]
	 SCS Same-Spin Energy      =      -0.1065475174476761 [Eh]
	 SCS Opposite-Spin Energy  =      -1.3322798564905192 [Eh]
	 SCS Correlation Energy    =      -1.4388273739381952 [Eh]
	 SCS Total Energy          =    -310.5645648606903819 [Eh]
	-----------------------------------------------------------

  Dipole Moment: [D]
     X:     2.0680      Y:     0.4078      Z:     0.4983     Total:     2.1659

*** Psi4 exiting successfully. Buy a developer a beer!
