                               Psi4 1.3.2 release

  ==> Input File <==

--------------------------------------------------------------------------
#psi4
#
memory 32 gb

molecule  {
0 1
  O       -2.0518731    -0.4734257    -0.3015668
  C       -0.0425170     0.1992980     0.1361180
  C       -0.7556090    -0.6523520    -0.9323370
  C       -1.3382130    -0.0434820     0.9333840
  C        1.2403190    -0.3676220     0.7285870
  C        0.0785870     1.6559510    -0.2923950
  C        2.4113120    -0.4074660    -0.2524220
  H       -0.7841080    -0.2688730    -1.9587990
  H       -0.4364910    -1.7049300    -0.9420770
  H       -1.2533150    -0.8496150     1.6763590
  H       -1.8269820     0.8255510     1.3890460
  H        1.0363310    -1.3847530     1.0869340
  H        1.5166380     0.2228000     1.6126860
  H        0.3782920     2.2853470     0.5530020
  H        0.8158740     1.7811390    -1.0908580
  H       -0.8864940     2.0141160    -0.6640870
  H        2.1439640    -0.9639070    -1.1568140
  H        2.7223560     0.5959580    -0.5532190
  H        3.2771150    -0.9015380     0.1976500
units angstrom
no_reorient  #important for SAPT in psi4, default
symmetry c1  #important for SAPT in psi4, default
}

set PROPERTIES_ORIGIN ["COM"]
properties('MP2/aug-cc-pvtz', properties = ['dipole'])
--------------------------------------------------------------------------

    Molecular point group: c1
  Charge       = 0
  Multiplicity = 1
  Basis Set: AUG-CC-PVTZ
    Blend: AUG-CC-PVTZ
  Basis Set: (AUG-CC-PVTZ AUX)
    Blend: AUG-CC-PVTZ-JKFIT

    Orbital Energies [Eh]
    ---------------------

    Doubly Occupied:

       1A    -20.547111     2A    -11.277641     3A    -11.272858
       4A    -11.238404     5A    -11.227891     6A    -11.220890
       7A    -11.218503     8A     -1.359791     9A     -1.096383
      10A     -0.997661    11A     -0.926345    12A     -0.917009
      13A     -0.848294    14A     -0.732614    15A     -0.665602
      16A     -0.653240    17A     -0.624328    18A     -0.597521
      19A     -0.577760    20A     -0.556099    21A     -0.539507
      22A     -0.530326    23A     -0.524443    24A     -0.506362
      25A     -0.471307    26A     -0.439985    27A     -0.435976
      28A     -0.412264

  @DF-RHF Final Energy:  -309.12273232446466

   => Energetics <=

    Nuclear Repulsion Energy =            329.5620610647953868
    One-Electron Energy =               -1072.5373595017476873
    Two-Electron Energy =                 433.8525661124875796
    Total Energy =                       -309.1227323244646641
  Basis Set: (AUG-CC-PVTZ AUX)
    Blend: AUG-CC-PVTZ-RI
    Molecular point group: c1

    Geometry (in Angstrom), charge = 0, multiplicity = 1:

       Center              X                  Y                   Z               Mass
    ------------   -----------------  -----------------  -----------------  -----------------
         O           -1.982561114992    -0.460474570410    -0.293360889597    15.994914619570
         C            0.026794985008     0.212249129590     0.144323910403    12.000000000000
         C           -0.686297014992    -0.639400870410    -0.924131089597    12.000000000000
         C           -1.268901014992    -0.030530870410     0.941589910403    12.000000000000
         C            1.309630985008    -0.354670870410     0.736792910403    12.000000000000
         C            0.147898985008     1.668902129590    -0.284189089597    12.000000000000
         C            2.480623985008    -0.394514870410    -0.244216089597    12.000000000000
         H           -0.714796014992    -0.255921870410    -1.950593089597     1.007825032230
         H           -0.367179014992    -1.691978870410    -0.933871089597     1.007825032230
         H           -1.184003014992    -0.836663870410     1.684564910403     1.007825032230
         H           -1.757670014992     0.838502129590     1.397251910403     1.007825032230
         H            1.105642985008    -1.371801870410     1.095139910403     1.007825032230
         H            1.585949985008     0.235751129590     1.620891910403     1.007825032230
         H            0.447603985008     2.298298129590     0.561207910403     1.007825032230
         H            0.885185985008     1.794090129590    -1.082652089597     1.007825032230
         H           -0.817182014992     2.027067129590    -0.655881089597     1.007825032230
         H            2.213275985008    -0.950955870410    -1.148608089597     1.007825032230
         H            2.791667985008     0.608909129590    -0.545013089597     1.007825032230
         H            3.346426985008    -0.888586870410     0.205855910403     1.007825032230

  Basis Set: AUG-CC-PVTZ
    Blend: AUG-CC-PVTZ
  Basis Set: (AUG-CC-PVTZ AUX)
    Blend: AUG-CC-PVTZ-JKFIT
	 Reference Energy          =    -309.1227323244646641 [Eh]
	 Singles Energy            =      -0.0000000000000000 [Eh]
	 Same-Spin Energy          =      -0.3200176405699382 [Eh]
	 Opposite-Spin Energy      =      -1.1114944375133122 [Eh]
	 Correlation Energy        =      -1.4315120780832504 [Eh]
	 Total Energy              =    -310.5542444025479085 [Eh]

	 ================> DF-SCS-MP2 Energies <==================
	-----------------------------------------------------------
	 SCS Same-Spin Scale       =       0.3333333333333333 [-]
	 SCS Opposite-Spin Scale   =       1.2000000000000000 [-]
	 SCS Same-Spin Energy      =      -0.1066725468566461 [Eh]
	 SCS Opposite-Spin Energy  =      -1.3337933250159746 [Eh]
	 SCS Correlation Energy    =      -1.4404658718726207 [Eh]
	 SCS Total Energy          =    -310.5631981963372823 [Eh]
	-----------------------------------------------------------

  Dipole Moment: [D]
     X:     2.1138      Y:     0.3864      Z:     0.6259     Total:     2.2382

*** Psi4 exiting successfully. Buy a developer a beer!
