                               Psi4 1.3.2 release

  ==> Input File <==

--------------------------------------------------------------------------
#psi4
#
memory 32 gb

molecule  {
0 1
  O       -2.0688589    -0.4524125    -0.3444720
  C       -0.0425170     0.1992980     0.1361180
  C       -0.7556090    -0.6523520    -0.9323370
  C       -1.3382130    -0.0434820     0.9333840
  C        1.2403190    -0.3676220     0.7285870
  C        0.0785870     1.6559510    -0.2923950
  C        2.4113120    -0.4074660    -0.2524220
  H       -0.7841080    -0.2688730    -1.9587990
  H       -0.4364910    -1.7049300    -0.9420770
  H       -1.2533150    -0.8496150     1.6763590
  H       -1.8269820     0.8255510     1.3890460
  H        1.0363310    -1.3847530     1.0869340
  H        1.5166380     0.2228000     1.6126860
  H        0.3782920     2.2853470     0.5530020
  H        0.8158740     1.7811390    -1.0908580
  H       -0.8864940     2.0141160    -0.6640870
  H        2.1439640    -0.9639070    -1.1568140
  H        2.7223560     0.5959580    -0.5532190
  H        3.2771150    -0.9015380     0.1976500
units angstrom
no_reorient  #important for SAPT in psi4, default
symmetry c1  #important for SAPT in psi4, default
}

set PROPERTIES_ORIGIN ["COM"]
properties('MP2/aug-cc-pvtz', properties = ['dipole'])
--------------------------------------------------------------------------

    Molecular point group: c1
  Charge       = 0
  Multiplicity = 1
  Basis Set: AUG-CC-PVTZ
    Blend: AUG-CC-PVTZ
  Basis Set: (AUG-CC-PVTZ AUX)
    Blend: AUG-CC-PVTZ-JKFIT

    Orbital Energies [Eh]
    ---------------------

    Doubly Occupied:

       1A    -20.547707     2A    -11.282086     3A    -11.272046
       4A    -11.239354     5A    -11.228657     6A    -11.221304
       7A    -11.218515     8A     -1.350094     9A     -1.097430
      10A     -0.998491    11A     -0.926143    12A     -0.915548
      13A     -0.849649    14A     -0.732976    15A     -0.662872
      16A     -0.652143    17A     -0.623173    18A     -0.595865
      19A     -0.578721    20A     -0.555131    21A     -0.538859
      22A     -0.530204    23A     -0.519781    24A     -0.506584
      25A     -0.471669    26A     -0.442576    27A     -0.434342
      28A     -0.413367

  @DF-RHF Final Energy:  -309.11777040461425

   => Energetics <=

    Nuclear Repulsion Energy =            328.8926933984438961
    One-Electron Energy =               -1071.2103524681319868
    Two-Electron Energy =                 433.1998886650737859
    Total Energy =                       -309.1177704046142480
  Basis Set: (AUG-CC-PVTZ AUX)
    Blend: AUG-CC-PVTZ-RI
    Molecular point group: c1

    Geometry (in Angstrom), charge = 0, multiplicity = 1:

       Center              X                  Y                   Z               Mass
    ------------   -----------------  -----------------  -----------------  -----------------
         O           -1.996832461627    -0.442819431347    -0.329409529144    15.994914619570
         C            0.029509438373     0.208891068653     0.151180470856    12.000000000000
         C           -0.683582561627    -0.642758931347    -0.917274529144    12.000000000000
         C           -1.266186561627    -0.033888931347     0.948446470856    12.000000000000
         C            1.312345438373    -0.358028931347     0.743649470856    12.000000000000
         C            0.150613438373     1.665544068653    -0.277332529144    12.000000000000
         C            2.483338438373    -0.397872931347    -0.237359529144    12.000000000000
         H           -0.712081561627    -0.259279931347    -1.943736529144     1.007825032230
         H           -0.364464561627    -1.695336931347    -0.927014529144     1.007825032230
         H           -1.181288561627    -0.840021931347     1.691421470856     1.007825032230
         H           -1.754955561627     0.835144068653     1.404108470856     1.007825032230
         H            1.108357438373    -1.375159931347     1.101996470856     1.007825032230
         H            1.588664438373     0.232393068653     1.627748470856     1.007825032230
         H            0.450318438373     2.294940068653     0.568064470856     1.007825032230
         H            0.887900438373     1.790732068653    -1.075795529144     1.007825032230
         H           -0.814467561627     2.023709068653    -0.649024529144     1.007825032230
         H            2.215990438373    -0.954313931347    -1.141751529144     1.007825032230
         H            2.794382438373     0.605551068653    -0.538156529144     1.007825032230
         H            3.349141438373    -0.891944931347     0.212712470856     1.007825032230

  Basis Set: AUG-CC-PVTZ
    Blend: AUG-CC-PVTZ
  Basis Set: (AUG-CC-PVTZ AUX)
    Blend: AUG-CC-PVTZ-JKFIT
	 Reference Energy          =    -309.1177704046142480 [Eh]
	 Singles Energy            =      -0.0000000000000000 [Eh]
	 Same-Spin Energy          =      -0.3204780245147796 [Eh]
	 Opposite-Spin Energy      =      -1.1129182418368933 [Eh]
	 Correlation Energy        =      -1.4333962663516728 [Eh]
	 Total Energy              =    -310.5511666709659266 [Eh]

	 ================> DF-SCS-MP2 Energies <==================
	-----------------------------------------------------------
	 SCS Same-Spin Scale       =       0.3333333333333333 [-]
	 SCS Opposite-Spin Scale   =       1.2000000000000000 [-]
	 SCS Same-Spin Energy      =      -0.1068260081715932 [Eh]
	 SCS Opposite-Spin Energy  =      -1.3355018902042719 [Eh]
	 SCS Correlation Energy    =      -1.4423278983758652 [Eh]
	 SCS Total Energy          =    -310.5600983029901272 [Eh]
	-----------------------------------------------------------

  Dipole Moment: [D]
     X:     2.1588      Y:     0.3655      Z:     0.7478     Total:     2.3137

*** Psi4 exiting successfully. Buy a developer a beer!
