                               Psi4 1.4a3.dev225

  ==> Input File <==

--------------------------------------------------------------------------
#psi4
#
memory 32 gb

molecule  {
0 1
  O       -2.0333080    -0.4946570    -0.2594300
  C       -0.0425170     0.1992980     0.1361180
  C       -0.7556090    -0.6523520    -0.9323370
  C       -1.3382130    -0.0434820     0.9333840
  C        1.1981905    -0.3490043     0.7091302
  C        0.0785870     1.6559510    -0.2923950
  C        2.4113120    -0.4074660    -0.2524220
  H       -0.7841080    -0.2688730    -1.9587990
  H       -0.4364910    -1.7049300    -0.9420770
  H       -1.2533150    -0.8496150     1.6763590
  H       -1.8269820     0.8255510     1.3890460
  H        1.0363310    -1.3847530     1.0869340
  H        1.5166380     0.2228000     1.6126860
  H        0.3782920     2.2853470     0.5530020
  H        0.8158740     1.7811390    -1.0908580
  H       -0.8864940     2.0141160    -0.6640870
  H        2.1439640    -0.9639070    -1.1568140
  H        2.7223560     0.5959580    -0.5532190
  H        3.2771150    -0.9015380     0.1976500
units angstrom
no_reorient  #important for SAPT in psi4, default
symmetry c1  #important for SAPT in psi4, default
}

set PROPERTIES_ORIGIN ["COM"]
properties('MP2/aug-cc-pvtz', properties = ['dipole'])
--------------------------------------------------------------------------

    Molecular point group: c1
  Charge       = 0
  Multiplicity = 1
  Basis Set: AUG-CC-PVTZ
    Blend: AUG-CC-PVTZ
  Basis Set: (AUG-CC-PVTZ AUX)
    Blend: AUG-CC-PVTZ-JKFIT

    Orbital Energies [Eh]
    ---------------------

    Doubly Occupied:

       1A    -20.546630     2A    -11.274197     3A    -11.273707
       4A    -11.235652     5A    -11.228656     6A    -11.221543
       7A    -11.218877     8A     -1.370813     9A     -1.101283
      10A     -0.993002    11A     -0.929196    12A     -0.918592
      13A     -0.848495    14A     -0.733180    15A     -0.669522
      16A     -0.658332    17A     -0.625347    18A     -0.598344
      19A     -0.577095    20A     -0.557374    21A     -0.540785
      22A     -0.529450    23A     -0.527622    24A     -0.503763
      25A     -0.471848    26A     -0.441555    27A     -0.433481
      28A     -0.410993

  @DF-RHF Final Energy:  -309.12281476180999

   => Energetics <=

    Nuclear Repulsion Energy =            330.9388573478960893
    One-Electron Energy =               -1075.2446694993941492
    Two-Electron Energy =                 435.1829973896880119
    Total Energy =                       -309.1228147618099911
  Basis Set: (AUG-CC-PVTZ AUX)
    Blend: AUG-CC-PVTZ-RI
    Molecular point group: c1

    Geometry (in Angstrom), charge = 0, multiplicity = 1:

       Center              X                  Y                   Z               Mass
    ------------   -----------------  -----------------  -----------------  -----------------
         O           -1.961911917877    -0.480545097044    -0.255625110014    15.994914619570
         C            0.028879082123     0.213409902956     0.139922889986    12.000000000000
         C           -0.684212917877    -0.638240097044    -0.928532110014    12.000000000000
         C           -1.266816917877    -0.029370097044     0.937188889986    12.000000000000
         C            1.269586582123    -0.334892397044     0.712935089986    12.000000000000
         C            0.149983082123     1.670062902956    -0.288590110014    12.000000000000
         C            2.482708082123    -0.393354097044    -0.248617110014    12.000000000000
         H           -0.712711917877    -0.254761097044    -1.954994110014     1.007825032230
         H           -0.365094917877    -1.690818097044    -0.938272110014     1.007825032230
         H           -1.181918917877    -0.835503097044     1.680163889986     1.007825032230
         H           -1.755585917877     0.839662902956     1.392850889986     1.007825032230
         H            1.107727082123    -1.370641097044     1.090738889986     1.007825032230
         H            1.588034082123     0.236911902956     1.616490889986     1.007825032230
         H            0.449688082123     2.299458902956     0.556806889986     1.007825032230
         H            0.887270082123     1.795250902956    -1.087053110014     1.007825032230
         H           -0.815097917877     2.028227902956    -0.660282110014     1.007825032230
         H            2.215360082123    -0.949795097044    -1.153009110014     1.007825032230
         H            2.793752082123     0.610069902956    -0.549414110014     1.007825032230
         H            3.348511082123    -0.887426097044     0.201454889986     1.007825032230

  Basis Set: AUG-CC-PVTZ
    Blend: AUG-CC-PVTZ
  Basis Set: (AUG-CC-PVTZ AUX)
    Blend: AUG-CC-PVTZ-JKFIT
	 Reference Energy          =    -309.1228147618099911 [Eh]
	 Singles Energy            =      -0.0000000000000000 [Eh]
	 Same-Spin Energy          =      -0.3199821550348602 [Eh]
	 Opposite-Spin Energy      =      -1.1106997851738047 [Eh]
	 Correlation Energy        =      -1.4306819402086650 [Eh]
	 Total Energy              =    -310.5534967020186627 [Eh]

	 ================> DF-SCS-MP2 Energies <==================
	-----------------------------------------------------------
	 SCS Same-Spin Scale       =       0.3333333333333333 [-]
	 SCS Opposite-Spin Scale   =       1.2000000000000000 [-]
	 SCS Same-Spin Energy      =      -0.1066607183449534 [Eh]
	 SCS Opposite-Spin Energy  =      -1.3328397422085656 [Eh]
	 SCS Correlation Energy    =      -1.4395004605535191 [Eh]
	 SCS Total Energy          =    -310.5623152223635088 [Eh]
	-----------------------------------------------------------

  Dipole Moment: [D]
     X:     2.0482      Y:     0.4112      Z:     0.4897     Total:     2.1457

*** Psi4 exiting successfully. Buy a developer a beer!
