                               Psi4 1.4a3.dev225

  ==> Input File <==

--------------------------------------------------------------------------
#psi4
#
memory 32 gb

molecule  {
0 1
  O       -2.0333080    -0.4946570    -0.2594300
  C       -0.0425170     0.1992980     0.1361180
  C       -0.7556090    -0.6523520    -0.9323370
  C       -1.3382130    -0.0434820     0.9333840
  C        1.2403190    -0.3676220     0.7285870
  C        0.0785870     1.6559510    -0.2923950
  C        2.4113120    -0.4074660    -0.2524220
  H       -0.7828080    -0.2863655    -1.9119767
  H       -0.4364910    -1.7049300    -0.9420770
  H       -1.2533150    -0.8496150     1.6763590
  H       -1.8269820     0.8255510     1.3890460
  H        1.0363310    -1.3847530     1.0869340
  H        1.5166380     0.2228000     1.6126860
  H        0.3782920     2.2853470     0.5530020
  H        0.8158740     1.7811390    -1.0908580
  H       -0.8864940     2.0141160    -0.6640870
  H        2.1439640    -0.9639070    -1.1568140
  H        2.7223560     0.5959580    -0.5532190
  H        3.2771150    -0.9015380     0.1976500
units angstrom
no_reorient  #important for SAPT in psi4, default
symmetry c1  #important for SAPT in psi4, default
}

set PROPERTIES_ORIGIN ["COM"]
properties('MP2/aug-cc-pvtz', properties = ['dipole'])
--------------------------------------------------------------------------

    Molecular point group: c1
  Charge       = 0
  Multiplicity = 1
  Basis Set: AUG-CC-PVTZ
    Blend: AUG-CC-PVTZ
  Basis Set: (AUG-CC-PVTZ AUX)
    Blend: AUG-CC-PVTZ-JKFIT

    Orbital Energies [Eh]
    ---------------------

    Doubly Occupied:

       1A    -20.545445     2A    -11.272803     3A    -11.267606
       4A    -11.236917     5A    -11.226866     6A    -11.220420
       7A    -11.218460     8A     -1.369721     9A     -1.095215
      10A     -0.996857    11A     -0.932355    12A     -0.917102
      13A     -0.847125    14A     -0.734982    15A     -0.672331
      16A     -0.654630    17A     -0.625574    18A     -0.599562
      19A     -0.577097    20A     -0.557116    21A     -0.541913
      22A     -0.532275    23A     -0.528553    24A     -0.505754
      25A     -0.470638    26A     -0.438424    27A     -0.436094
      28A     -0.410818

  @DF-RHF Final Energy:  -309.12504381429017

   => Energetics <=

    Nuclear Repulsion Energy =            330.5135850401414928
    One-Electron Energy =               -1074.4119506785884823
    Two-Electron Energy =                 434.7733218241568238
    Total Energy =                       -309.1250438142901658
  Basis Set: (AUG-CC-PVTZ AUX)
    Blend: AUG-CC-PVTZ-RI
    Molecular point group: c1

    Geometry (in Angstrom), charge = 0, multiplicity = 1:

       Center              X                  Y                   Z               Mass
    ------------   -----------------  -----------------  -----------------  -----------------
         O           -1.966975941989    -0.478136818163    -0.258429322313    15.994914619570
         C            0.023815058011     0.215818181837     0.137118677687    12.000000000000
         C           -0.689276941989    -0.635831818163    -0.931336322313    12.000000000000
         C           -1.271880941989    -0.026961818163     0.934384677687    12.000000000000
         C            1.306651058011    -0.351101818163     0.729587677687    12.000000000000
         C            0.144919058011     1.672471181837    -0.291394322313    12.000000000000
         C            2.477644058011    -0.390945818163    -0.251421322313    12.000000000000
         H           -0.716475941989    -0.269845318163    -1.910976022313     1.007825032230
         H           -0.370158941989    -1.688409818163    -0.941076322313     1.007825032230
         H           -1.186982941989    -0.833094818163     1.677359677687     1.007825032230
         H           -1.760649941989     0.842071181837     1.390046677687     1.007825032230
         H            1.102663058011    -1.368232818163     1.087934677687     1.007825032230
         H            1.582970058011     0.239320181837     1.613686677687     1.007825032230
         H            0.444624058011     2.301867181837     0.554002677687     1.007825032230
         H            0.882206058011     1.797659181837    -1.089857322313     1.007825032230
         H           -0.820161941989     2.030636181837    -0.663086322313     1.007825032230
         H            2.210296058011    -0.947386818163    -1.155813322313     1.007825032230
         H            2.788688058011     0.612478181837    -0.552218322313     1.007825032230
         H            3.343447058011    -0.885017818163     0.198650677687     1.007825032230

  Basis Set: AUG-CC-PVTZ
    Blend: AUG-CC-PVTZ
  Basis Set: (AUG-CC-PVTZ AUX)
    Blend: AUG-CC-PVTZ-JKFIT
	 Reference Energy          =    -309.1250438142901658 [Eh]
	 Singles Energy            =      -0.0000000000000000 [Eh]
	 Same-Spin Energy          =      -0.3195510058980412 [Eh]
	 Opposite-Spin Energy      =      -1.1098547319764263 [Eh]
	 Correlation Energy        =      -1.4294057378744673 [Eh]
	 Total Energy              =    -310.5544495521646127 [Eh]

	 ================> DF-SCS-MP2 Energies <==================
	-----------------------------------------------------------
	 SCS Same-Spin Scale       =       0.3333333333333333 [-]
	 SCS Opposite-Spin Scale   =       1.2000000000000000 [-]
	 SCS Same-Spin Energy      =      -0.1065170019660137 [Eh]
	 SCS Opposite-Spin Energy  =      -1.3318256783717115 [Eh]
	 SCS Correlation Energy    =      -1.4383426803377253 [Eh]
	 SCS Total Energy          =    -310.5633864946278777 [Eh]
	-----------------------------------------------------------

  Dipole Moment: [D]
     X:     2.0694      Y:     0.4085      Z:     0.4636     Total:     2.1597

*** Psi4 exiting successfully. Buy a developer a beer!
