                               Psi4 1.3.2 release

  ==> Input File <==

--------------------------------------------------------------------------
#psi4
#
memory 32 gb

molecule  {
0 1
  O       -2.0333080    -0.4946570    -0.2594300
  C       -0.0425170     0.1992980     0.1361180
  C       -0.7438217    -0.6444338    -0.9113336
  C       -1.3382130    -0.0434820     0.9333840
  C        1.2403190    -0.3676220     0.7285870
  C        0.0785870     1.6559510    -0.2923950
  C        2.4113120    -0.4074660    -0.2524220
  H       -0.7841080    -0.2688730    -1.9587990
  H       -0.4364910    -1.7049300    -0.9420770
  H       -1.2533150    -0.8496150     1.6763590
  H       -1.8269820     0.8255510     1.3890460
  H        1.0363310    -1.3847530     1.0869340
  H        1.5166380     0.2228000     1.6126860
  H        0.3782920     2.2853470     0.5530020
  H        0.8158740     1.7811390    -1.0908580
  H       -0.8864940     2.0141160    -0.6640870
  H        2.1439640    -0.9639070    -1.1568140
  H        2.7223560     0.5959580    -0.5532190
  H        3.2771150    -0.9015380     0.1976500
units angstrom
no_reorient  #important for SAPT in psi4, default
symmetry c1  #important for SAPT in psi4, default
}

set PROPERTIES_ORIGIN ["COM"]
properties('MP2/aug-cc-pvtz', properties = ['dipole'])
--------------------------------------------------------------------------

    Molecular point group: c1
  Charge       = 0
  Multiplicity = 1
  Basis Set: AUG-CC-PVTZ
    Blend: AUG-CC-PVTZ
  Basis Set: (AUG-CC-PVTZ AUX)
    Blend: AUG-CC-PVTZ-JKFIT

    Orbital Energies [Eh]
    ---------------------

    Doubly Occupied:

       1A    -20.546361     2A    -11.274781     3A    -11.273838
       4A    -11.236510     5A    -11.227437     6A    -11.220675
       7A    -11.218861     8A     -1.371988     9A     -1.097653
      10A     -0.997952    11A     -0.927099    12A     -0.918768
      13A     -0.847361    14A     -0.732499    15A     -0.667977
      16A     -0.655663    17A     -0.626856    18A     -0.600200
      19A     -0.575283    20A     -0.557675    21A     -0.540246
      22A     -0.530071    23A     -0.526468    24A     -0.506662
      25A     -0.471432    26A     -0.442107    27A     -0.436227
      28A     -0.410000

  @DF-RHF Final Energy:  -309.12467092008376

   => Energetics <=

    Nuclear Repulsion Energy =            330.6771000021652753
    One-Electron Energy =               -1074.7262373907253732
    Two-Electron Energy =                 434.9244664684763393
    Total Energy =                       -309.1246709200837586
  Basis Set: (AUG-CC-PVTZ AUX)
    Blend: AUG-CC-PVTZ-RI
    Molecular point group: c1

    Geometry (in Angstrom), charge = 0, multiplicity = 1:

       Center              X                  Y                   Z               Mass
    ------------   -----------------  -----------------  -----------------  -----------------
         O           -1.968376072738    -0.479262296363    -0.260476025673    15.994914619570
         C            0.022414927262     0.214692703637     0.135071974327    12.000000000000
         C           -0.678889772738    -0.629039096363    -0.912379625673    12.000000000000
         C           -1.273281072738    -0.028087296363     0.932337974327    12.000000000000
         C            1.305250927262    -0.352227296363     0.727540974327    12.000000000000
         C            0.143518927262     1.671345703637    -0.293441025673    12.000000000000
         C            2.476243927262    -0.392071296363    -0.253468025673    12.000000000000
         H           -0.719176072738    -0.253478296363    -1.959845025673     1.007825032230
         H           -0.371559072738    -1.689535296363    -0.943123025673     1.007825032230
         H           -1.188383072738    -0.834220296363     1.675312974327     1.007825032230
         H           -1.762050072738     0.840945703637     1.387999974327     1.007825032230
         H            1.101262927262    -1.369358296363     1.085887974327     1.007825032230
         H            1.581569927262     0.238194703637     1.611639974327     1.007825032230
         H            0.443223927262     2.300741703637     0.551955974327     1.007825032230
         H            0.880805927262     1.796533703637    -1.091904025673     1.007825032230
         H           -0.821562072738     2.029510703637    -0.665133025673     1.007825032230
         H            2.208895927262    -0.948512296363    -1.157860025673     1.007825032230
         H            2.787287927262     0.611352703637    -0.554265025673     1.007825032230
         H            3.342046927262    -0.886143296363     0.196603974327     1.007825032230

  Basis Set: AUG-CC-PVTZ
    Blend: AUG-CC-PVTZ
  Basis Set: (AUG-CC-PVTZ AUX)
    Blend: AUG-CC-PVTZ-JKFIT
	 Reference Energy          =    -309.1246709200837586 [Eh]
	 Singles Energy            =      -0.0000000000000000 [Eh]
	 Same-Spin Energy          =      -0.3198623098916206 [Eh]
	 Opposite-Spin Energy      =      -1.1104204107043782 [Eh]
	 Correlation Energy        =      -1.4302827205959989 [Eh]
	 Total Energy              =    -310.5549536406797415 [Eh]

	 ================> DF-SCS-MP2 Energies <==================
	-----------------------------------------------------------
	 SCS Same-Spin Scale       =       0.3333333333333333 [-]
	 SCS Opposite-Spin Scale   =       1.2000000000000000 [-]
	 SCS Same-Spin Energy      =      -0.1066207699638735 [Eh]
	 SCS Opposite-Spin Energy  =      -1.3325044928452539 [Eh]
	 SCS Correlation Energy    =      -1.4391252628091273 [Eh]
	 SCS Total Energy          =    -310.5637961828928724 [Eh]
	-----------------------------------------------------------

  Dipole Moment: [D]
     X:     2.0703      Y:     0.4126      Z:     0.5317     Total:     2.1770

*** Psi4 exiting successfully. Buy a developer a beer!
