                               Psi4 1.3.2 release

  ==> Input File <==

--------------------------------------------------------------------------
#psi4
#
memory 32 gb

molecule  {
0 1
  O       -2.0333080    -0.4946570    -0.2594300
  C       -0.0425170     0.1992980     0.1361180
  C       -0.7556090    -0.6523520    -0.9323370
  C       -1.3382130    -0.0434820     0.9333840
  C        1.1560619    -0.3303865     0.6896734
  C        0.0785870     1.6559510    -0.2923950
  C        2.4113120    -0.4074660    -0.2524220
  H       -0.7841080    -0.2688730    -1.9587990
  H       -0.4364910    -1.7049300    -0.9420770
  H       -1.2533150    -0.8496150     1.6763590
  H       -1.8269820     0.8255510     1.3890460
  H        1.0363310    -1.3847530     1.0869340
  H        1.5166380     0.2228000     1.6126860
  H        0.3782920     2.2853470     0.5530020
  H        0.8158740     1.7811390    -1.0908580
  H       -0.8864940     2.0141160    -0.6640870
  H        2.1439640    -0.9639070    -1.1568140
  H        2.7223560     0.5959580    -0.5532190
  H        3.2771150    -0.9015380     0.1976500
units angstrom
no_reorient  #important for SAPT in psi4, default
symmetry c1  #important for SAPT in psi4, default
}

set PROPERTIES_ORIGIN ["COM"]
properties('MP2/aug-cc-pvtz', properties = ['dipole'])
--------------------------------------------------------------------------

    Molecular point group: c1
  Charge       = 0
  Multiplicity = 1
  Basis Set: AUG-CC-PVTZ
    Blend: AUG-CC-PVTZ
  Basis Set: (AUG-CC-PVTZ AUX)
    Blend: AUG-CC-PVTZ-JKFIT

    Orbital Energies [Eh]
    ---------------------

    Doubly Occupied:

       1A    -20.547009     2A    -11.274758     3A    -11.274225
       4A    -11.233497     5A    -11.230602     6A    -11.222802
       7A    -11.219359     8A     -1.371428     9A     -1.108391
      10A     -0.988981    11A     -0.930086    12A     -0.920605
      13A     -0.850731    14A     -0.733824    15A     -0.670447
      16A     -0.662150    17A     -0.625668    18A     -0.596871
      19A     -0.577483    20A     -0.557433    21A     -0.540938
      22A     -0.529427    23A     -0.528461    24A     -0.501350
      25A     -0.474712    26A     -0.440700    27A     -0.428924
      28A     -0.411279

  @DF-RHF Final Energy:  -309.11415210049876

   => Energetics <=

    Nuclear Repulsion Energy =            331.6504177900657737
    One-Electron Energy =               -1076.6248577923358880
    Two-Electron Energy =                 435.8602879017713008
    Total Energy =                       -309.1141521004987567
  Basis Set: (AUG-CC-PVTZ AUX)
    Blend: AUG-CC-PVTZ-RI
    Molecular point group: c1

    Geometry (in Angstrom), charge = 0, multiplicity = 1:

       Center              X                  Y                   Z               Mass
    ------------   -----------------  -----------------  -----------------  -----------------
         O           -1.956860971875    -0.482777250556    -0.253292365841    15.994914619570
         C            0.033930028125     0.211177749444     0.142255634159    12.000000000000
         C           -0.679161971875    -0.640472250556    -0.926199365841    12.000000000000
         C           -1.261765971875    -0.031602250556     0.939521634159    12.000000000000
         C            1.232508928125    -0.318506750556     0.695811034159    12.000000000000
         C            0.155034028125     1.667830749444    -0.286257365841    12.000000000000
         C            2.487759028125    -0.395586250556    -0.246284365841    12.000000000000
         H           -0.707660971875    -0.256993250556    -1.952661365841     1.007825032230
         H           -0.360043971875    -1.693050250556    -0.935939365841     1.007825032230
         H           -1.176867971875    -0.837735250556     1.682496634159     1.007825032230
         H           -1.750534971875     0.837430749444     1.395183634159     1.007825032230
         H            1.112778028125    -1.372873250556     1.093071634159     1.007825032230
         H            1.593085028125     0.234679749444     1.618823634159     1.007825032230
         H            0.454739028125     2.297226749444     0.559139634159     1.007825032230
         H            0.892321028125     1.793018749444    -1.084720365841     1.007825032230
         H           -0.810046971875     2.025995749444    -0.657949365841     1.007825032230
         H            2.220411028125    -0.952027250556    -1.150676365841     1.007825032230
         H            2.798803028125     0.607837749444    -0.547081365841     1.007825032230
         H            3.353562028125    -0.889658250556     0.203787634159     1.007825032230

  Basis Set: AUG-CC-PVTZ
    Blend: AUG-CC-PVTZ
  Basis Set: (AUG-CC-PVTZ AUX)
    Blend: AUG-CC-PVTZ-JKFIT
	 Reference Energy          =    -309.1141521004987567 [Eh]
	 Singles Energy            =      -0.0000000000000000 [Eh]
	 Same-Spin Energy          =      -0.3205937230893934 [Eh]
	 Opposite-Spin Energy      =      -1.1116187821952281 [Eh]
	 Correlation Energy        =      -1.4322125052846215 [Eh]
	 Total Energy              =    -310.5463646057833671 [Eh]

	 ================> DF-SCS-MP2 Energies <==================
	-----------------------------------------------------------
	 SCS Same-Spin Scale       =       0.3333333333333333 [-]
	 SCS Opposite-Spin Scale   =       1.2000000000000000 [-]
	 SCS Same-Spin Energy      =      -0.1068645743631311 [Eh]
	 SCS Opposite-Spin Energy  =      -1.3339425386342738 [Eh]
	 SCS Correlation Energy    =      -1.4408071129974049 [Eh]
	 SCS Total Energy          =    -310.5549592134961472 [Eh]
	-----------------------------------------------------------

  Dipole Moment: [D]
     X:     2.0244      Y:     0.4186      Z:     0.4733     Total:     2.1207

*** Psi4 exiting successfully. Buy a developer a beer!
