                               Psi4 1.3.2 release

  ==> Input File <==

--------------------------------------------------------------------------
#psi4
#
memory 32 gb

molecule  {
0 1
  O       -2.0333080    -0.4946570    -0.2594300
  C       -0.0425170     0.1992980     0.1361180
  C       -0.8343721    -0.6987692    -1.0538337
  C       -1.3382130    -0.0434820     0.9333840
  C        1.2403190    -0.3676220     0.7285870
  C        0.0785870     1.6559510    -0.2923950
  C        2.4113120    -0.4074660    -0.2524220
  H       -0.7841080    -0.2688730    -1.9587990
  H       -0.4364910    -1.7049300    -0.9420770
  H       -1.2533150    -0.8496150     1.6763590
  H       -1.8269820     0.8255510     1.3890460
  H        1.0363310    -1.3847530     1.0869340
  H        1.5166380     0.2228000     1.6126860
  H        0.3782920     2.2853470     0.5530020
  H        0.8158740     1.7811390    -1.0908580
  H       -0.8864940     2.0141160    -0.6640870
  H        2.1439640    -0.9639070    -1.1568140
  H        2.7223560     0.5959580    -0.5532190
  H        3.2771150    -0.9015380     0.1976500
units angstrom
no_reorient  #important for SAPT in psi4, default
symmetry c1  #important for SAPT in psi4, default
}

set PROPERTIES_ORIGIN ["COM"]
properties('MP2/aug-cc-pvtz', properties = ['dipole'])
--------------------------------------------------------------------------

    Molecular point group: c1
  Charge       = 0
  Multiplicity = 1
  Basis Set: AUG-CC-PVTZ
    Blend: AUG-CC-PVTZ
  Basis Set: (AUG-CC-PVTZ AUX)
    Blend: AUG-CC-PVTZ-JKFIT

    Orbital Energies [Eh]
    ---------------------

    Doubly Occupied:

       1A    -20.546768     2A    -11.272140     3A    -11.271204
       4A    -11.242583     5A    -11.226104     6A    -11.219415
       7A    -11.216946     8A     -1.362292     9A     -1.086167
      10A     -0.992363    11A     -0.937042    12A     -0.907952
      13A     -0.845641    14A     -0.731787    15A     -0.675675
      16A     -0.648463    17A     -0.622013    18A     -0.597958
      19A     -0.585288    20A     -0.557462    21A     -0.550251
      22A     -0.535462    23A     -0.526868    24A     -0.502698
      25A     -0.468430    26A     -0.437061    27A     -0.426820
      28A     -0.390264

  @DF-RHF Final Energy:  -309.10646522782633

   => Energetics <=

    Nuclear Repulsion Energy =            327.8599713221930756
    One-Electron Energy =               -1069.1666437706655870
    Two-Electron Energy =                 432.2002072206461207
    Total Energy =                       -309.1064652278263338
  Basis Set: (AUG-CC-PVTZ AUX)
    Blend: AUG-CC-PVTZ-RI
    Molecular point group: c1

    Geometry (in Angstrom), charge = 0, multiplicity = 1:

       Center              X                  Y                   Z               Mass
    ------------   -----------------  -----------------  -----------------  -----------------
         O           -1.957519666855    -0.472747834183    -0.243391187573    15.994914619570
         C            0.033271333145     0.221207165817     0.152156812427    12.000000000000
         C           -0.758583766855    -0.676860034183    -1.037794887573    12.000000000000
         C           -1.262424666855    -0.021572834183     0.949422812427    12.000000000000
         C            1.316107333145    -0.345712834183     0.744625812427    12.000000000000
         C            0.154375333145     1.677860165817    -0.276356187573    12.000000000000
         C            2.487100333145    -0.385556834183    -0.236383187573    12.000000000000
         H           -0.708319666855    -0.246963834183    -1.942760187573     1.007825032230
         H           -0.360702666855    -1.683020834183    -0.926038187573     1.007825032230
         H           -1.177526666855    -0.827705834183     1.692397812427     1.007825032230
         H           -1.751193666855     0.847460165817     1.405084812427     1.007825032230
         H            1.112119333145    -1.362843834183     1.102972812427     1.007825032230
         H            1.592426333145     0.244709165817     1.628724812427     1.007825032230
         H            0.454080333145     2.307256165817     0.569040812427     1.007825032230
         H            0.891662333145     1.803048165817    -1.074819187573     1.007825032230
         H           -0.810705666855     2.036025165817    -0.648048187573     1.007825032230
         H            2.219752333145    -0.941997834183    -1.140775187573     1.007825032230
         H            2.798144333145     0.617867165817    -0.537180187573     1.007825032230
         H            3.352903333145    -0.879628834183     0.213688812427     1.007825032230

  Basis Set: AUG-CC-PVTZ
    Blend: AUG-CC-PVTZ
  Basis Set: (AUG-CC-PVTZ AUX)
    Blend: AUG-CC-PVTZ-JKFIT
	 Reference Energy          =    -309.1064652278263338 [Eh]
	 Singles Energy            =      -0.0000000000000000 [Eh]
	 Same-Spin Energy          =      -0.3193456543466353 [Eh]
	 Opposite-Spin Energy      =      -1.1109462927068270 [Eh]
	 Correlation Energy        =      -1.4302919470534623 [Eh]
	 Total Energy              =    -310.5367571748798241 [Eh]

	 ================> DF-SCS-MP2 Energies <==================
	-----------------------------------------------------------
	 SCS Same-Spin Scale       =       0.3333333333333333 [-]
	 SCS Opposite-Spin Scale   =       1.2000000000000000 [-]
	 SCS Same-Spin Energy      =      -0.1064485514488784 [Eh]
	 SCS Opposite-Spin Energy  =      -1.3331355512481924 [Eh]
	 SCS Correlation Energy    =      -1.4395841026970708 [Eh]
	 SCS Total Energy          =    -310.5460493305234309 [Eh]
	-----------------------------------------------------------

  Dipole Moment: [D]
     X:     2.0358      Y:     0.3981      Z:     0.3988     Total:     2.1123

*** Psi4 exiting successfully. Buy a developer a beer!
