                               Psi4 1.4a3.dev225

  ==> Input File <==

--------------------------------------------------------------------------
#psi4
#
memory 32 gb

molecule  {
0 1
  O       -2.0333080    -0.4946570    -0.2594300
  C       -0.0425170     0.1992980     0.1361180
  C       -0.7556090    -0.6523520    -0.9323370
  C       -1.3382130    -0.0434820     0.9333840
  C        1.2571704    -0.3750691     0.7363697
  C        0.0785870     1.6559510    -0.2923950
  C        2.4113120    -0.4074660    -0.2524220
  H       -0.7841080    -0.2688730    -1.9587990
  H       -0.4364910    -1.7049300    -0.9420770
  H       -1.2533150    -0.8496150     1.6763590
  H       -1.8269820     0.8255510     1.3890460
  H        1.0363310    -1.3847530     1.0869340
  H        1.5166380     0.2228000     1.6126860
  H        0.3782920     2.2853470     0.5530020
  H        0.8158740     1.7811390    -1.0908580
  H       -0.8864940     2.0141160    -0.6640870
  H        2.1439640    -0.9639070    -1.1568140
  H        2.7223560     0.5959580    -0.5532190
  H        3.2771150    -0.9015380     0.1976500
units angstrom
no_reorient  #important for SAPT in psi4, default
symmetry c1  #important for SAPT in psi4, default
}

set PROPERTIES_ORIGIN ["COM"]
properties('MP2/aug-cc-pvtz', properties = ['dipole'])
--------------------------------------------------------------------------

    Molecular point group: c1
  Charge       = 0
  Multiplicity = 1
  Basis Set: AUG-CC-PVTZ
    Blend: AUG-CC-PVTZ
  Basis Set: (AUG-CC-PVTZ AUX)
    Blend: AUG-CC-PVTZ-JKFIT

    Orbital Energies [Eh]
    ---------------------

    Doubly Occupied:

       1A    -20.546208     2A    -11.273590     3A    -11.273126
       4A    -11.238103     5A    -11.226707     6A    -11.220124
       7A    -11.218360     8A     -1.370102     9A     -1.093416
      10A     -0.998448    11A     -0.928162    12A     -0.916136
      13A     -0.846414    14A     -0.732084    15A     -0.668486
      16A     -0.653013    17A     -0.626236    18A     -0.600143
      19A     -0.576672    20A     -0.557283    21A     -0.540647
      22A     -0.532241    23A     -0.528104    24A     -0.506608
      25A     -0.470921    26A     -0.437860    27A     -0.434611
      28A     -0.410500

  @DF-RHF Final Energy:  -309.12556032696125

   => Energetics <=

    Nuclear Repulsion Energy =            329.9908000945774234
    One-Electron Energy =               -1073.3841143407944401
    Two-Electron Energy =                 434.2677539192557106
    Total Energy =                       -309.1255603269612493
  Basis Set: (AUG-CC-PVTZ AUX)
    Blend: AUG-CC-PVTZ-RI
    Molecular point group: c1

    Geometry (in Angstrom), charge = 0, multiplicity = 1:

       Center              X                  Y                   Z               Mass
    ------------   -----------------  -----------------  -----------------  -----------------
         O           -1.968983225495    -0.477420096513    -0.258890949458    15.994914619570
         C            0.021807774505     0.216534903487     0.136657050542    12.000000000000
         C           -0.691284225495    -0.635115096513    -0.931797949458    12.000000000000
         C           -1.273888225495    -0.026245096513     0.933923050542    12.000000000000
         C            1.321495174505    -0.357832196513     0.736908750542    12.000000000000
         C            0.142911774505     1.673187903487    -0.291855949458    12.000000000000
         C            2.475636774505    -0.390229096513    -0.251882949458    12.000000000000
         H           -0.719783225495    -0.251636096513    -1.958259949458     1.007825032230
         H           -0.372166225495    -1.687693096513    -0.941537949458     1.007825032230
         H           -1.188990225495    -0.832378096513     1.676898050542     1.007825032230
         H           -1.762657225495     0.842787903487     1.389585050542     1.007825032230
         H            1.100655774505    -1.367516096513     1.087473050542     1.007825032230
         H            1.580962774505     0.240036903487     1.613225050542     1.007825032230
         H            0.442616774505     2.302583903487     0.553541050542     1.007825032230
         H            0.880198774505     1.798375903487    -1.090318949458     1.007825032230
         H           -0.822169225495     2.031352903487    -0.663547949458     1.007825032230
         H            2.208288774505    -0.946670096513    -1.156274949458     1.007825032230
         H            2.786680774505     0.613194903487    -0.552679949458     1.007825032230
         H            3.341439774505    -0.884301096513     0.198189050542     1.007825032230

  Basis Set: AUG-CC-PVTZ
    Blend: AUG-CC-PVTZ
  Basis Set: (AUG-CC-PVTZ AUX)
    Blend: AUG-CC-PVTZ-JKFIT
	 Reference Energy          =    -309.1255603269612493 [Eh]
	 Singles Energy            =      -0.0000000000000000 [Eh]
	 Same-Spin Energy          =      -0.3195413897490324 [Eh]
	 Opposite-Spin Energy      =      -1.1101199894237506 [Eh]
	 Correlation Energy        =      -1.4296613791727830 [Eh]
	 Total Energy              =    -310.5552217061340343 [Eh]

	 ================> DF-SCS-MP2 Energies <==================
	-----------------------------------------------------------
	 SCS Same-Spin Scale       =       0.3333333333333333 [-]
	 SCS Opposite-Spin Scale   =       1.2000000000000000 [-]
	 SCS Same-Spin Energy      =      -0.1065137965830108 [Eh]
	 SCS Opposite-Spin Energy  =      -1.3321439873085006 [Eh]
	 SCS Correlation Energy    =      -1.4386577838915113 [Eh]
	 SCS Total Energy          =    -310.5642181108527780 [Eh]
	-----------------------------------------------------------

  Dipole Moment: [D]
     X:     2.0722      Y:     0.4052      Z:     0.5033     Total:     2.1706

*** Psi4 exiting successfully. Buy a developer a beer!
