                               Psi4 1.3.2 release

  ==> Input File <==

--------------------------------------------------------------------------
#psi4
#
memory 32 gb

molecule  {
0 1
  O       -2.0427866    -0.4840157    -0.2803991
  C       -0.0425170     0.1992980     0.1361180
  C       -0.7556090    -0.6523520    -0.9323370
  C       -1.3382130    -0.0434820     0.9333840
  C        1.2403190    -0.3676220     0.7285870
  C        0.0785870     1.6559510    -0.2923950
  C        2.4113120    -0.4074660    -0.2524220
  H       -0.7841080    -0.2688730    -1.9587990
  H       -0.4364910    -1.7049300    -0.9420770
  H       -1.2533150    -0.8496150     1.6763590
  H       -1.8269820     0.8255510     1.3890460
  H        1.0363310    -1.3847530     1.0869340
  H        1.5166380     0.2228000     1.6126860
  H        0.3782920     2.2853470     0.5530020
  H        0.8158740     1.7811390    -1.0908580
  H       -0.8864940     2.0141160    -0.6640870
  H        2.1439640    -0.9639070    -1.1568140
  H        2.7223560     0.5959580    -0.5532190
  H        3.2771150    -0.9015380     0.1976500
units angstrom
no_reorient  #important for SAPT in psi4, default
symmetry c1  #important for SAPT in psi4, default
}

set PROPERTIES_ORIGIN ["COM"]
properties('MP2/aug-cc-pvtz', properties = ['dipole'])
--------------------------------------------------------------------------

    Molecular point group: c1
  Charge       = 0
  Multiplicity = 1
  Basis Set: AUG-CC-PVTZ
    Blend: AUG-CC-PVTZ
  Basis Set: (AUG-CC-PVTZ AUX)
    Blend: AUG-CC-PVTZ-JKFIT

    Orbital Energies [Eh]
    ---------------------

    Doubly Occupied:

       1A    -20.546738     2A    -11.275448     3A    -11.273292
       4A    -11.237938     5A    -11.227517     6A    -11.220685
       7A    -11.218498     8A     -1.364939     9A     -1.095896
      10A     -0.997279    11A     -0.927171    12A     -0.917096
      13A     -0.847600    14A     -0.732490    15A     -0.667125
      16A     -0.653850    17A     -0.625025    18A     -0.598545
      19A     -0.577268    20A     -0.556671    21A     -0.540019
      22A     -0.530450    23A     -0.526507    24A     -0.506152
      25A     -0.471084    26A     -0.438633    27A     -0.436592
      28A     -0.411520

  @DF-RHF Final Energy:  -309.12451196292398

   => Energetics <=

    Nuclear Repulsion Energy =            329.9062669516720803
    One-Electron Energy =               -1073.2174987745561339
    Two-Electron Energy =                 434.1867198599601352
    Total Energy =                       -309.1245119629239753
  Basis Set: (AUG-CC-PVTZ AUX)
    Blend: AUG-CC-PVTZ-RI
    Molecular point group: c1

    Geometry (in Angstrom), charge = 0, multiplicity = 1:

       Center              X                  Y                   Z               Mass
    ------------   -----------------  -----------------  -----------------  -----------------
         O           -1.974926703237    -0.469372212020    -0.275575940748    15.994914619570
         C            0.025342896763     0.213941487980     0.140941159252    12.000000000000
         C           -0.687749103237    -0.637708512020    -0.927513840748    12.000000000000
         C           -1.270353103237    -0.028838512020     0.938207159252    12.000000000000
         C            1.308178896763    -0.352978512020     0.733410159252    12.000000000000
         C            0.146446896763     1.670594487980    -0.287571840748    12.000000000000
         C            2.479171896763    -0.392822512020    -0.247598840748    12.000000000000
         H           -0.716248103237    -0.254229512020    -1.953975840748     1.007825032230
         H           -0.368631103237    -1.690286512020    -0.937253840748     1.007825032230
         H           -1.185455103237    -0.834971512020     1.681182159252     1.007825032230
         H           -1.759122103237     0.840194487980     1.393869159252     1.007825032230
         H            1.104190896763    -1.370109512020     1.091757159252     1.007825032230
         H            1.584497896763     0.237443487980     1.617509159252     1.007825032230
         H            0.446151896763     2.299990487980     0.557825159252     1.007825032230
         H            0.883733896763     1.795782487980    -1.086034840748     1.007825032230
         H           -0.818634103237     2.028759487980    -0.659263840748     1.007825032230
         H            2.211823896763    -0.949263512020    -1.151990840748     1.007825032230
         H            2.790215896763     0.610601487980    -0.548395840748     1.007825032230
         H            3.344974896763    -0.886894512020     0.202473159252     1.007825032230

  Basis Set: AUG-CC-PVTZ
    Blend: AUG-CC-PVTZ
  Basis Set: (AUG-CC-PVTZ AUX)
    Blend: AUG-CC-PVTZ-JKFIT
	 Reference Energy          =    -309.1245119629239753 [Eh]
	 Singles Energy            =      -0.0000000000000000 [Eh]
	 Same-Spin Energy          =      -0.3198106869979893 [Eh]
	 Opposite-Spin Energy      =      -1.1108321126741902 [Eh]
	 Correlation Energy        =      -1.4306427996721796 [Eh]
	 Total Energy              =    -310.5551547625961462 [Eh]

	 ================> DF-SCS-MP2 Energies <==================
	-----------------------------------------------------------
	 SCS Same-Spin Scale       =       0.3333333333333333 [-]
	 SCS Opposite-Spin Scale   =       1.2000000000000000 [-]
	 SCS Same-Spin Energy      =      -0.1066035623326631 [Eh]
	 SCS Opposite-Spin Energy  =      -1.3329985352090283 [Eh]
	 SCS Correlation Energy    =      -1.4396020975416914 [Eh]
	 SCS Total Energy          =    -310.5641140604656698 [Eh]
	-----------------------------------------------------------

  Dipole Moment: [D]
     X:     2.0904      Y:     0.3966      Z:     0.5636     Total:     2.2010

*** Psi4 exiting successfully. Buy a developer a beer!
