                               Psi4 1.3.2 release

  ==> Input File <==

--------------------------------------------------------------------------
#psi4
#
memory 32 gb

molecule  {
0 1
  O       -2.0333080    -0.4946570    -0.2594300
  C       -0.0416953     0.1807090     0.1171474
  C       -0.7556090    -0.6523520    -0.9323370
  C       -1.3382130    -0.0434820     0.9333840
  C        1.2403190    -0.3676220     0.7285870
  C        0.0785870     1.6559510    -0.2923950
  C        2.4113120    -0.4074660    -0.2524220
  H       -0.7841080    -0.2688730    -1.9587990
  H       -0.4364910    -1.7049300    -0.9420770
  H       -1.2533150    -0.8496150     1.6763590
  H       -1.8269820     0.8255510     1.3890460
  H        1.0363310    -1.3847530     1.0869340
  H        1.5166380     0.2228000     1.6126860
  H        0.3782920     2.2853470     0.5530020
  H        0.8158740     1.7811390    -1.0908580
  H       -0.8864940     2.0141160    -0.6640870
  H        2.1439640    -0.9639070    -1.1568140
  H        2.7223560     0.5959580    -0.5532190
  H        3.2771150    -0.9015380     0.1976500
units angstrom
no_reorient  #important for SAPT in psi4, default
symmetry c1  #important for SAPT in psi4, default
}

set PROPERTIES_ORIGIN ["COM"]
properties('MP2/aug-cc-pvtz', properties = ['dipole'])
--------------------------------------------------------------------------

    Molecular point group: c1
  Charge       = 0
  Multiplicity = 1
  Basis Set: AUG-CC-PVTZ
    Blend: AUG-CC-PVTZ
  Basis Set: (AUG-CC-PVTZ AUX)
    Blend: AUG-CC-PVTZ-JKFIT

    Orbital Energies [Eh]
    ---------------------

    Doubly Occupied:

       1A    -20.546282     2A    -11.273423     3A    -11.273064
       4A    -11.237316     5A    -11.227241     6A    -11.220267
       7A    -11.218792     8A     -1.371067     9A     -1.095101
      10A     -0.996187    11A     -0.929394    12A     -0.917123
      13A     -0.846790    14A     -0.732684    15A     -0.669377
      16A     -0.654689    17A     -0.625970    18A     -0.599287
      19A     -0.576721    20A     -0.556887    21A     -0.540225
      22A     -0.530294    23A     -0.527524    24A     -0.506641
      25A     -0.468252    26A     -0.444897    27A     -0.433913
      28A     -0.409612

  @DF-RHF Final Energy:  -309.12523237713407

   => Energetics <=

    Nuclear Repulsion Energy =            330.3488459284170062
    One-Electron Energy =               -1074.0901218984590741
    Two-Electron Energy =                 434.6160435929080563
    Total Energy =                       -309.1252323771340684
  Basis Set: (AUG-CC-PVTZ AUX)
    Blend: AUG-CC-PVTZ-RI
    Molecular point group: c1

    Geometry (in Angstrom), charge = 0, multiplicity = 1:

       Center              X                  Y                   Z               Mass
    ------------   -----------------  -----------------  -----------------  -----------------
         O           -1.967061368393    -0.476084254941    -0.255683402242    15.994914619570
         C            0.024551331607     0.199281745059     0.120893997758    12.000000000000
         C           -0.689362368393    -0.633779254941    -0.928590402242    12.000000000000
         C           -1.271966368393    -0.024909254941     0.937130597758    12.000000000000
         C            1.306565631607    -0.349049254941     0.732333597758    12.000000000000
         C            0.144833631607     1.674523745059    -0.288648402242    12.000000000000
         C            2.477558631607    -0.388893254941    -0.248675402242    12.000000000000
         H           -0.717861368393    -0.250300254941    -1.955052402242     1.007825032230
         H           -0.370244368393    -1.686357254941    -0.938330402242     1.007825032230
         H           -1.187068368393    -0.831042254941     1.680105597758     1.007825032230
         H           -1.760735368393     0.844123745059     1.392792597758     1.007825032230
         H            1.102577631607    -1.366180254941     1.090680597758     1.007825032230
         H            1.582884631607     0.241372745059     1.616432597758     1.007825032230
         H            0.444538631607     2.303919745059     0.556748597758     1.007825032230
         H            0.882120631607     1.799711745059    -1.087111402242     1.007825032230
         H           -0.820247368393     2.032688745059    -0.660340402242     1.007825032230
         H            2.210210631607    -0.945334254941    -1.153067402242     1.007825032230
         H            2.788602631607     0.614530745059    -0.549472402242     1.007825032230
         H            3.343361631607    -0.882965254941     0.201396597758     1.007825032230

  Basis Set: AUG-CC-PVTZ
    Blend: AUG-CC-PVTZ
  Basis Set: (AUG-CC-PVTZ AUX)
    Blend: AUG-CC-PVTZ-JKFIT
	 Reference Energy          =    -309.1252323771340684 [Eh]
	 Singles Energy            =      -0.0000000000000000 [Eh]
	 Same-Spin Energy          =      -0.3196080566625383 [Eh]
	 Opposite-Spin Energy      =      -1.1101923472046424 [Eh]
	 Correlation Energy        =      -1.4298004038671808 [Eh]
	 Total Energy              =    -310.5550327810012732 [Eh]

	 ================> DF-SCS-MP2 Energies <==================
	-----------------------------------------------------------
	 SCS Same-Spin Scale       =       0.3333333333333333 [-]
	 SCS Opposite-Spin Scale   =       1.2000000000000000 [-]
	 SCS Same-Spin Energy      =      -0.1065360188875128 [Eh]
	 SCS Opposite-Spin Energy  =      -1.3322308166455710 [Eh]
	 SCS Correlation Energy    =      -1.4387668355330838 [Eh]
	 SCS Total Energy          =    -310.5639992126671700 [Eh]
	-----------------------------------------------------------

  Dipole Moment: [D]
     X:     2.0624      Y:     0.4045      Z:     0.5103     Total:     2.1627

*** Psi4 exiting successfully. Buy a developer a beer!
