                               Psi4 1.3.2 release

  ==> Input File <==

--------------------------------------------------------------------------
#psi4
#
memory 32 gb

molecule  {
0 1
  O       -1.9915323    -0.5376698    -0.1776663
  C       -0.0425170     0.1992980     0.1361180
  C       -0.7556090    -0.6523520    -0.9323370
  C       -1.3382130    -0.0434820     0.9333840
  C        1.2403190    -0.3676220     0.7285870
  C        0.0785870     1.6559510    -0.2923950
  C        2.4113120    -0.4074660    -0.2524220
  H       -0.7841080    -0.2688730    -1.9587990
  H       -0.4364910    -1.7049300    -0.9420770
  H       -1.2533150    -0.8496150     1.6763590
  H       -1.8269820     0.8255510     1.3890460
  H        1.0363310    -1.3847530     1.0869340
  H        1.5166380     0.2228000     1.6126860
  H        0.3782920     2.2853470     0.5530020
  H        0.8158740     1.7811390    -1.0908580
  H       -0.8864940     2.0141160    -0.6640870
  H        2.1439640    -0.9639070    -1.1568140
  H        2.7223560     0.5959580    -0.5532190
  H        3.2771150    -0.9015380     0.1976500
units angstrom
no_reorient  #important for SAPT in psi4, default
symmetry c1  #important for SAPT in psi4, default
}

set PROPERTIES_ORIGIN ["COM"]
properties('MP2/aug-cc-pvtz', properties = ['dipole'])
--------------------------------------------------------------------------

    Molecular point group: c1
  Charge       = 0
  Multiplicity = 1
  Basis Set: AUG-CC-PVTZ
    Blend: AUG-CC-PVTZ
  Basis Set: (AUG-CC-PVTZ AUX)
    Blend: AUG-CC-PVTZ-JKFIT

    Orbital Energies [Eh]
    ---------------------

    Doubly Occupied:

       1A    -20.544278     2A    -11.275771     3A    -11.264923
       4A    -11.235712     5A    -11.225769     6A    -11.219698
       7A    -11.218457     8A     -1.393763     9A     -1.093886
      10A     -0.995752    11A     -0.935897    12A     -0.913721
      13A     -0.843997    14A     -0.732636    15A     -0.676333
      16A     -0.657487    17A     -0.630651    18A     -0.604898
      19A     -0.575090    20A     -0.560569    21A     -0.544553
      22A     -0.535067    23A     -0.528173    24A     -0.504767
      25A     -0.469734    26A     -0.440295    27A     -0.429237
      28A     -0.405836

  @DF-RHF Final Energy:  -309.12500181966669

   => Energetics <=

    Nuclear Repulsion Energy =            331.7178434217256040
    One-Electron Energy =               -1076.7717987542937408
    Two-Electron Energy =                 435.9289535129015007
    Total Energy =                       -309.1250018196666929
  Basis Set: (AUG-CC-PVTZ AUX)
    Blend: AUG-CC-PVTZ-RI
    Molecular point group: c1

    Geometry (in Angstrom), charge = 0, multiplicity = 1:

       Center              X                  Y                   Z               Mass
    ------------   -----------------  -----------------  -----------------  -----------------
         O           -1.931863210095    -0.514451999811    -0.189260583242    15.994914619570
         C            0.017152089905     0.222515800189     0.124523716758    12.000000000000
         C           -0.695939910095    -0.629134199811    -0.943931283242    12.000000000000
         C           -1.278543910095    -0.020264199811     0.921789716758    12.000000000000
         C            1.299988089905    -0.344404199811     0.716992716758    12.000000000000
         C            0.138256089905     1.679168800189    -0.303989283242    12.000000000000
         C            2.470981089905    -0.384248199811    -0.264016283242    12.000000000000
         H           -0.724438910095    -0.245655199811    -1.970393283242     1.007825032230
         H           -0.376821910095    -1.681712199811    -0.953671283242     1.007825032230
         H           -1.193645910095    -0.826397199811     1.664764716758     1.007825032230
         H           -1.767312910095     0.848768800189     1.377451716758     1.007825032230
         H            1.096000089905    -1.361535199811     1.075339716758     1.007825032230
         H            1.576307089905     0.246017800189     1.601091716758     1.007825032230
         H            0.437961089905     2.308564800189     0.541407716758     1.007825032230
         H            0.875543089905     1.804356800189    -1.102452283242     1.007825032230
         H           -0.826824910095     2.037333800189    -0.675681283242     1.007825032230
         H            2.203633089905    -0.940689199811    -1.168408283242     1.007825032230
         H            2.782025089905     0.619175800189    -0.564813283242     1.007825032230
         H            3.336784089905    -0.878320199811     0.186055716758     1.007825032230

  Basis Set: AUG-CC-PVTZ
    Blend: AUG-CC-PVTZ
  Basis Set: (AUG-CC-PVTZ AUX)
    Blend: AUG-CC-PVTZ-JKFIT
	 Reference Energy          =    -309.1250018196666929 [Eh]
	 Singles Energy            =      -0.0000000000000000 [Eh]
	 Same-Spin Energy          =      -0.3190446936097074 [Eh]
	 Opposite-Spin Energy      =      -1.1080832527273308 [Eh]
	 Correlation Energy        =      -1.4271279463370381 [Eh]
	 Total Energy              =    -310.5521297660037590 [Eh]

	 ================> DF-SCS-MP2 Energies <==================
	-----------------------------------------------------------
	 SCS Same-Spin Scale       =       0.3333333333333333 [-]
	 SCS Opposite-Spin Scale   =       1.2000000000000000 [-]
	 SCS Same-Spin Energy      =      -0.1063482312032358 [Eh]
	 SCS Opposite-Spin Energy  =      -1.3296999032727970 [Eh]
	 SCS Correlation Energy    =      -1.4360481344760327 [Eh]
	 SCS Total Energy          =    -310.5610499541427316 [Eh]
	-----------------------------------------------------------

  Dipole Moment: [D]
     X:     1.9639      Y:     0.4422      Z:     0.2403     Total:     2.0273

*** Psi4 exiting successfully. Buy a developer a beer!
