                               Psi4 1.3.2 release

  ==> Input File <==

--------------------------------------------------------------------------
#psi4
#
memory 32 gb

molecule  {
0 1
  O       -2.0333080    -0.4946570    -0.2594300
  C       -0.0425170     0.1992980     0.1361180
  C       -0.7108303    -0.6204151    -0.8471577
  C       -1.3382130    -0.0434820     0.9333840
  C        1.2403190    -0.3676220     0.7285870
  C        0.0785870     1.6559510    -0.2923950
  C        2.4113120    -0.4074660    -0.2524220
  H       -0.7841080    -0.2688730    -1.9587990
  H       -0.4364910    -1.7049300    -0.9420770
  H       -1.2533150    -0.8496150     1.6763590
  H       -1.8269820     0.8255510     1.3890460
  H        1.0363310    -1.3847530     1.0869340
  H        1.5166380     0.2228000     1.6126860
  H        0.3782920     2.2853470     0.5530020
  H        0.8158740     1.7811390    -1.0908580
  H       -0.8864940     2.0141160    -0.6640870
  H        2.1439640    -0.9639070    -1.1568140
  H        2.7223560     0.5959580    -0.5532190
  H        3.2771150    -0.9015380     0.1976500
units angstrom
no_reorient  #important for SAPT in psi4, default
symmetry c1  #important for SAPT in psi4, default
}

set PROPERTIES_ORIGIN ["COM"]
properties('MP2/aug-cc-pvtz', properties = ['dipole'])
--------------------------------------------------------------------------

    Molecular point group: c1
  Charge       = 0
  Multiplicity = 1
  Basis Set: AUG-CC-PVTZ
    Blend: AUG-CC-PVTZ
  Basis Set: (AUG-CC-PVTZ AUX)
    Blend: AUG-CC-PVTZ-JKFIT

    Orbital Energies [Eh]
    ---------------------

    Doubly Occupied:

       1A    -20.546643     2A    -11.278823     3A    -11.276267
       4A    -11.233390     5A    -11.228528     6A    -11.221273
       7A    -11.220169     8A     -1.377757     9A     -1.105851
      10A     -1.001572    11A     -0.925564    12A     -0.923326
      13A     -0.849192    14A     -0.732421    15A     -0.666700
      16A     -0.659359    17A     -0.630606    18A     -0.601938
      19A     -0.571573    20A     -0.558576    21A     -0.540168
      22A     -0.531376    23A     -0.517938    24A     -0.509283
      25A     -0.473737    26A     -0.453738    27A     -0.435001
      28A     -0.404491

  @DF-RHF Final Energy:  -309.11256482006007

   => Energetics <=

    Nuclear Repulsion Energy =            331.9805858158740079
    One-Electron Energy =               -1077.2357855557115727
    Two-Electron Energy =                 436.1426349197774357
    Total Energy =                       -309.1125648200600722
  Basis Set: (AUG-CC-PVTZ AUX)
    Blend: AUG-CC-PVTZ-RI
    Molecular point group: c1

    Geometry (in Angstrom), charge = 0, multiplicity = 1:

       Center              X                  Y                   Z               Mass
    ------------   -----------------  -----------------  -----------------  -----------------
         O           -1.972331527700    -0.482141982770    -0.268170300002    15.994914619570
         C            0.018459472300     0.211813017230     0.127377699998    12.000000000000
         C           -0.649853827700    -0.607900082770    -0.855898000002    12.000000000000
         C           -1.277236527700    -0.030966982770     0.924643699998    12.000000000000
         C            1.301295472300    -0.355106982770     0.719846699998    12.000000000000
         C            0.139563472300     1.668466017230    -0.301135300002    12.000000000000
         C            2.472288472300    -0.394950982770    -0.261162300002    12.000000000000
         H           -0.723131527700    -0.256357982770    -1.967539300002     1.007825032230
         H           -0.375514527700    -1.692414982770    -0.950817300002     1.007825032230
         H           -1.192338527700    -0.837099982770     1.667618699998     1.007825032230
         H           -1.766005527700     0.838066017230     1.380305699998     1.007825032230
         H            1.097307472300    -1.372237982770     1.078193699998     1.007825032230
         H            1.577614472300     0.235315017230     1.603945699998     1.007825032230
         H            0.439268472300     2.297862017230     0.544261699998     1.007825032230
         H            0.876850472300     1.793654017230    -1.099598300002     1.007825032230
         H           -0.825517527700     2.026631017230    -0.672827300002     1.007825032230
         H            2.204940472300    -0.951391982770    -1.165554300002     1.007825032230
         H            2.783332472300     0.608473017230    -0.561959300002     1.007825032230
         H            3.338091472300    -0.889022982770     0.188909699998     1.007825032230

  Basis Set: AUG-CC-PVTZ
    Blend: AUG-CC-PVTZ
  Basis Set: (AUG-CC-PVTZ AUX)
    Blend: AUG-CC-PVTZ-JKFIT
	 Reference Energy          =    -309.1125648200600722 [Eh]
	 Singles Energy            =      -0.0000000000000000 [Eh]
	 Same-Spin Energy          =      -0.3209538205020857 [Eh]
	 Opposite-Spin Energy      =      -1.1116672557592442 [Eh]
	 Correlation Energy        =      -1.4326210762613298 [Eh]
	 Total Energy              =    -310.5451858963214136 [Eh]

	 ================> DF-SCS-MP2 Energies <==================
	-----------------------------------------------------------
	 SCS Same-Spin Scale       =       0.3333333333333333 [-]
	 SCS Opposite-Spin Scale   =       1.2000000000000000 [-]
	 SCS Same-Spin Energy      =      -0.1069846068340286 [Eh]
	 SCS Opposite-Spin Energy  =      -1.3340007069110931 [Eh]
	 SCS Correlation Energy    =      -1.4409853137451216 [Eh]
	 SCS Total Energy          =    -310.5535501338051745 [Eh]
	-----------------------------------------------------------

  Dipole Moment: [D]
     X:     2.0804      Y:     0.4379      Z:     0.6518     Total:     2.2237

*** Psi4 exiting successfully. Buy a developer a beer!
