                               Psi4 1.3.2 release

  ==> Input File <==

--------------------------------------------------------------------------
#psi4
#
memory 32 gb

molecule  {
0 1
  O       -2.0333080    -0.4946570    -0.2594300
  C       -0.0887246     0.1834008     0.2304876
  C       -0.7556090    -0.6523520    -0.9323370
  C       -1.3382130    -0.0434820     0.9333840
  C        1.2403190    -0.3676220     0.7285870
  C        0.0785870     1.6559510    -0.2923950
  C        2.4113120    -0.4074660    -0.2524220
  H       -0.7841080    -0.2688730    -1.9587990
  H       -0.4364910    -1.7049300    -0.9420770
  H       -1.2533150    -0.8496150     1.6763590
  H       -1.8269820     0.8255510     1.3890460
  H        1.0363310    -1.3847530     1.0869340
  H        1.5166380     0.2228000     1.6126860
  H        0.3782920     2.2853470     0.5530020
  H        0.8158740     1.7811390    -1.0908580
  H       -0.8864940     2.0141160    -0.6640870
  H        2.1439640    -0.9639070    -1.1568140
  H        2.7223560     0.5959580    -0.5532190
  H        3.2771150    -0.9015380     0.1976500
units angstrom
no_reorient  #important for SAPT in psi4, default
symmetry c1  #important for SAPT in psi4, default
}

set PROPERTIES_ORIGIN ["COM"]
properties('MP2/aug-cc-pvtz', properties = ['dipole'])
--------------------------------------------------------------------------

    Molecular point group: c1
  Charge       = 0
  Multiplicity = 1
  Basis Set: AUG-CC-PVTZ
    Blend: AUG-CC-PVTZ
  Basis Set: (AUG-CC-PVTZ AUX)
    Blend: AUG-CC-PVTZ-JKFIT

    Orbital Energies [Eh]
    ---------------------

    Doubly Occupied:

       1A    -20.546232     2A    -11.273357     3A    -11.271601
       4A    -11.238229     5A    -11.227968     6A    -11.222883
       7A    -11.219817     8A     -1.373082     9A     -1.094117
      10A     -0.997763    11A     -0.934552    12A     -0.913355
      13A     -0.850673    14A     -0.732127    15A     -0.671411
      16A     -0.651708    17A     -0.626325    18A     -0.601987
      19A     -0.578573    20A     -0.554132    21A     -0.539392
      22A     -0.531132    23A     -0.528751    24A     -0.503502
      25A     -0.465333    26A     -0.461316    27A     -0.426859
      28A     -0.402635

  @DF-RHF Final Energy:  -309.11524158096404

   => Energetics <=

    Nuclear Repulsion Energy =            330.2793443493432051
    One-Electron Energy =               -1073.9115486905532180
    Two-Electron Energy =                 434.5169627602459741
    Total Energy =                       -309.1152415809640388
  Basis Set: (AUG-CC-PVTZ AUX)
    Blend: AUG-CC-PVTZ-RI
    Molecular point group: c1

    Geometry (in Angstrom), charge = 0, multiplicity = 1:

       Center              X                  Y                   Z               Mass
    ------------   -----------------  -----------------  -----------------  -----------------
         O           -1.961422860234    -0.476406984309    -0.269272157388    15.994914619570
         C           -0.016839460234     0.201650815691     0.220645442612    12.000000000000
         C           -0.683723860234    -0.634101984309    -0.942179157388    12.000000000000
         C           -1.266327860234    -0.025231984309     0.923541842612    12.000000000000
         C            1.312204139766    -0.349371984309     0.718744842612    12.000000000000
         C            0.150472139766     1.674201015691    -0.302237157388    12.000000000000
         C            2.483197139766    -0.389215984309    -0.262264157388    12.000000000000
         H           -0.712222860234    -0.250622984309    -1.968641157388     1.007825032230
         H           -0.364605860234    -1.686679984309    -0.951919157388     1.007825032230
         H           -1.181429860234    -0.831364984309     1.666516842612     1.007825032230
         H           -1.755096860234     0.843801015691     1.379203842612     1.007825032230
         H            1.108216139766    -1.366502984309     1.077091842612     1.007825032230
         H            1.588523139766     0.241050015691     1.602843842612     1.007825032230
         H            0.450177139766     2.303597015691     0.543159842612     1.007825032230
         H            0.887759139766     1.799389015691    -1.100700157388     1.007825032230
         H           -0.814608860234     2.032366015691    -0.673929157388     1.007825032230
         H            2.215849139766    -0.945656984309    -1.166656157388     1.007825032230
         H            2.794241139766     0.614208015691    -0.563061157388     1.007825032230
         H            3.349000139766    -0.883287984309     0.187807842612     1.007825032230

  Basis Set: AUG-CC-PVTZ
    Blend: AUG-CC-PVTZ
  Basis Set: (AUG-CC-PVTZ AUX)
    Blend: AUG-CC-PVTZ-JKFIT
	 Reference Energy          =    -309.1152415809640388 [Eh]
	 Singles Energy            =      -0.0000000000000000 [Eh]
	 Same-Spin Energy          =      -0.3199533981686808 [Eh]
	 Opposite-Spin Energy      =      -1.1108434178417299 [Eh]
	 Correlation Energy        =      -1.4307968160104108 [Eh]
	 Total Energy              =    -310.5460383969744385 [Eh]

	 ================> DF-SCS-MP2 Energies <==================
	-----------------------------------------------------------
	 SCS Same-Spin Scale       =       0.3333333333333333 [-]
	 SCS Opposite-Spin Scale   =       1.2000000000000000 [-]
	 SCS Same-Spin Energy      =      -0.1066511327228936 [Eh]
	 SCS Opposite-Spin Energy  =      -1.3330121014100758 [Eh]
	 SCS Correlation Energy    =      -1.4396632341329694 [Eh]
	 SCS Total Energy          =    -310.5549048150970179 [Eh]
	-----------------------------------------------------------

  Dipole Moment: [D]
     X:     2.0926      Y:     0.3749      Z:     0.4606     Total:     2.1753

*** Psi4 exiting successfully. Buy a developer a beer!
