                               Psi4 1.4a3.dev225

  ==> Input File <==

--------------------------------------------------------------------------
#psi4
#
memory 32 gb

molecule  {
0 1
  O       -2.0333080    -0.4946570    -0.2594300
  C       -0.0425170     0.1992980     0.1361180
  C       -0.7556090    -0.6523520    -0.9323370
  C       -1.3382130    -0.0434820     0.9333840
  C        1.2234676    -0.3601749     0.7208043
  C        0.0785870     1.6559510    -0.2923950
  C        2.4113120    -0.4074660    -0.2524220
  H       -0.7841080    -0.2688730    -1.9587990
  H       -0.4364910    -1.7049300    -0.9420770
  H       -1.2533150    -0.8496150     1.6763590
  H       -1.8269820     0.8255510     1.3890460
  H        1.0363310    -1.3847530     1.0869340
  H        1.5166380     0.2228000     1.6126860
  H        0.3782920     2.2853470     0.5530020
  H        0.8158740     1.7811390    -1.0908580
  H       -0.8864940     2.0141160    -0.6640870
  H        2.1439640    -0.9639070    -1.1568140
  H        2.7223560     0.5959580    -0.5532190
  H        3.2771150    -0.9015380     0.1976500
units angstrom
no_reorient  #important for SAPT in psi4, default
symmetry c1  #important for SAPT in psi4, default
}

set PROPERTIES_ORIGIN ["COM"]
properties('MP2/aug-cc-pvtz', properties = ['dipole'])
--------------------------------------------------------------------------

    Molecular point group: c1
  Charge       = 0
  Multiplicity = 1
  Basis Set: AUG-CC-PVTZ
    Blend: AUG-CC-PVTZ
  Basis Set: (AUG-CC-PVTZ AUX)
    Blend: AUG-CC-PVTZ-JKFIT

    Orbital Energies [Eh]
    ---------------------

    Doubly Occupied:

       1A    -20.546437     2A    -11.273915     3A    -11.273441
       4A    -11.236793     5A    -11.227689     6A    -11.220880
       7A    -11.218636     8A     -1.370491     9A     -1.097634
      10A     -0.995368    11A     -0.928729    12A     -0.917490
      13A     -0.847463    14A     -0.732728    15A     -0.669045
      16A     -0.656021    17A     -0.625541    18A     -0.599177
      19A     -0.576900    20A     -0.557335    21A     -0.540718
      22A     -0.530000    23A     -0.527834    24A     -0.505112
      25A     -0.471007    26A     -0.439837    27A     -0.435509
      28A     -0.410788

  @DF-RHF Final Energy:  -309.12522083658905

   => Energetics <=

    Nuclear Repulsion Energy =            330.5263968596634641
    One-Electron Energy =               -1074.4381998950145771
    Two-Electron Energy =                 434.7865821987620620
    Total Energy =                       -309.1252208365890510
  Basis Set: (AUG-CC-PVTZ AUX)
    Blend: AUG-CC-PVTZ-RI
    Molecular point group: c1

    Geometry (in Angstrom), charge = 0, multiplicity = 1:

       Center              X                  Y                   Z               Mass
    ------------   -----------------  -----------------  -----------------  -----------------
         O           -1.964942478285    -0.479205814528    -0.257024758916    15.994914619570
         C            0.025848521715     0.214749185472     0.138523241084    12.000000000000
         C           -0.687243478285    -0.636900814528    -0.929931758916    12.000000000000
         C           -1.269847478285    -0.028030814528     0.935789241084    12.000000000000
         C            1.291833121715    -0.344723714528     0.723209541084    12.000000000000
         C            0.146952521715     1.671402185472    -0.289989758916    12.000000000000
         C            2.479677521715    -0.392014814528    -0.250016758916    12.000000000000
         H           -0.715742478285    -0.253421814528    -1.956393758916     1.007825032230
         H           -0.368125478285    -1.689478814528    -0.939671758916     1.007825032230
         H           -1.184949478285    -0.834163814528     1.678764241084     1.007825032230
         H           -1.758616478285     0.841002185472     1.391451241084     1.007825032230
         H            1.104696521715    -1.369301814528     1.089339241084     1.007825032230
         H            1.585003521715     0.238251185472     1.615091241084     1.007825032230
         H            0.446657521715     2.300798185472     0.555407241084     1.007825032230
         H            0.884239521715     1.796590185472    -1.088452758916     1.007825032230
         H           -0.818128478285     2.029567185472    -0.661681758916     1.007825032230
         H            2.212329521715    -0.948455814528    -1.154408758916     1.007825032230
         H            2.790721521715     0.611409185472    -0.550813758916     1.007825032230
         H            3.345480521715    -0.886086814528     0.200055241084     1.007825032230

  Basis Set: AUG-CC-PVTZ
    Blend: AUG-CC-PVTZ
  Basis Set: (AUG-CC-PVTZ AUX)
    Blend: AUG-CC-PVTZ-JKFIT
	 Reference Energy          =    -309.1252208365890510 [Eh]
	 Singles Energy            =      -0.0000000000000000 [Eh]
	 Same-Spin Energy          =      -0.3197364128969589 [Eh]
	 Opposite-Spin Energy      =      -1.1103538692460750 [Eh]
	 Correlation Energy        =      -1.4300902821430339 [Eh]
	 Total Energy              =    -310.5553111187321065 [Eh]

	 ================> DF-SCS-MP2 Energies <==================
	-----------------------------------------------------------
	 SCS Same-Spin Scale       =       0.3333333333333333 [-]
	 SCS Opposite-Spin Scale   =       1.2000000000000000 [-]
	 SCS Same-Spin Energy      =      -0.1065788042989863 [Eh]
	 SCS Opposite-Spin Energy  =      -1.3324246430952900 [Eh]
	 SCS Correlation Energy    =      -1.4390034473942763 [Eh]
	 SCS Total Energy          =    -310.5642242839833216 [Eh]
	-----------------------------------------------------------

  Dipole Moment: [D]
     X:     2.0596      Y:     0.4081      Z:     0.4968     Total:     2.1576

*** Psi4 exiting successfully. Buy a developer a beer!
