                               Psi4 1.3.2 release

  ==> Input File <==

--------------------------------------------------------------------------
#psi4
#
memory 32 gb

molecule  {
0 1
  O       -2.0333080    -0.4946570    -0.2594300
  C       -0.0425170     0.1992980     0.1361180
  C       -0.6676525    -0.6632077    -0.9786598
  C       -1.3382130    -0.0434820     0.9333840
  C        1.2403190    -0.3676220     0.7285870
  C        0.0785870     1.6559510    -0.2923950
  C        2.4113120    -0.4074660    -0.2524220
  H       -0.7841080    -0.2688730    -1.9587990
  H       -0.4364910    -1.7049300    -0.9420770
  H       -1.2533150    -0.8496150     1.6763590
  H       -1.8269820     0.8255510     1.3890460
  H        1.0363310    -1.3847530     1.0869340
  H        1.5166380     0.2228000     1.6126860
  H        0.3782920     2.2853470     0.5530020
  H        0.8158740     1.7811390    -1.0908580
  H       -0.8864940     2.0141160    -0.6640870
  H        2.1439640    -0.9639070    -1.1568140
  H        2.7223560     0.5959580    -0.5532190
  H        3.2771150    -0.9015380     0.1976500
units angstrom
no_reorient  #important for SAPT in psi4, default
symmetry c1  #important for SAPT in psi4, default
}

set PROPERTIES_ORIGIN ["COM"]
properties('MP2/aug-cc-pvtz', properties = ['dipole'])
--------------------------------------------------------------------------

    Molecular point group: c1
  Charge       = 0
  Multiplicity = 1
  Basis Set: AUG-CC-PVTZ
    Blend: AUG-CC-PVTZ
  Basis Set: (AUG-CC-PVTZ AUX)
    Blend: AUG-CC-PVTZ-JKFIT

    Orbital Energies [Eh]
    ---------------------

    Doubly Occupied:

       1A    -20.538521     2A    -11.274791     3A    -11.268434
       4A    -11.240830     5A    -11.227128     6A    -11.221628
       7A    -11.218957     8A     -1.339183     9A     -1.095799
      10A     -0.996782    11A     -0.931166    12A     -0.915911
      13A     -0.846505    14A     -0.736475    15A     -0.667347
      16A     -0.648817    17A     -0.621518    18A     -0.598100
      19A     -0.579133    20A     -0.549908    21A     -0.541493
      22A     -0.529802    23A     -0.521704    24A     -0.505981
      25A     -0.470880    26A     -0.449108    27A     -0.425948
      28A     -0.409202

  @DF-RHF Final Energy:  -309.11626402887566

   => Energetics <=

    Nuclear Repulsion Energy =            329.2727449262302457
    One-Electron Energy =               -1072.0359156948823056
    Two-Electron Energy =                 433.6469067397764547
    Total Energy =                       -309.1162640288756620
  Basis Set: (AUG-CC-PVTZ AUX)
    Blend: AUG-CC-PVTZ-RI
    Molecular point group: c1

    Geometry (in Angstrom), charge = 0, multiplicity = 1:

       Center              X                  Y                   Z               Mass
    ------------   -----------------  -----------------  -----------------  -----------------
         O           -1.977508265980    -0.477011427473    -0.252404050798    15.994914619570
         C            0.013282734020     0.216943572527     0.143143949202    12.000000000000
         C           -0.611852765980    -0.645562127473    -0.971633850798    12.000000000000
         C           -1.282413265980    -0.025836427473     0.940409949202    12.000000000000
         C            1.296118734020    -0.349976427473     0.735612949202    12.000000000000
         C            0.134386734020     1.673596572527    -0.285369050798    12.000000000000
         C            2.467111734020    -0.389820427473    -0.245396050798    12.000000000000
         H           -0.728308265980    -0.251227427473    -1.951773050798     1.007825032230
         H           -0.380691265980    -1.687284427473    -0.935051050798     1.007825032230
         H           -1.197515265980    -0.831969427473     1.683384949202     1.007825032230
         H           -1.771182265980     0.843196572527     1.396071949202     1.007825032230
         H            1.092130734020    -1.367107427473     1.093959949202     1.007825032230
         H            1.572437734020     0.240445572527     1.619711949202     1.007825032230
         H            0.434091734020     2.302992572527     0.560027949202     1.007825032230
         H            0.871673734020     1.798784572527    -1.083832050798     1.007825032230
         H           -0.830694265980     2.031761572527    -0.657061050798     1.007825032230
         H            2.199763734020    -0.946261427473    -1.149788050798     1.007825032230
         H            2.778155734020     0.613603572527    -0.546193050798     1.007825032230
         H            3.332914734020    -0.883892427473     0.204675949202     1.007825032230

  Basis Set: AUG-CC-PVTZ
    Blend: AUG-CC-PVTZ
  Basis Set: (AUG-CC-PVTZ AUX)
    Blend: AUG-CC-PVTZ-JKFIT
	 Reference Energy          =    -309.1162640288756620 [Eh]
	 Singles Energy            =      -0.0000000000000000 [Eh]
	 Same-Spin Energy          =      -0.3201475452713528 [Eh]
	 Opposite-Spin Energy      =      -1.1127007312247612 [Eh]
	 Correlation Energy        =      -1.4328482764961139 [Eh]
	 Total Energy              =    -310.5491123053717502 [Eh]

	 ================> DF-SCS-MP2 Energies <==================
	-----------------------------------------------------------
	 SCS Same-Spin Scale       =       0.3333333333333333 [-]
	 SCS Opposite-Spin Scale   =       1.2000000000000000 [-]
	 SCS Same-Spin Energy      =      -0.1067158484237843 [Eh]
	 SCS Opposite-Spin Energy  =      -1.3352408774697133 [Eh]
	 SCS Correlation Energy    =      -1.4419567258934975 [Eh]
	 SCS Total Energy          =    -310.5582207547691382 [Eh]
	-----------------------------------------------------------

  Dipole Moment: [D]
     X:     2.2456      Y:     0.3607      Z:     0.3421     Total:     2.3000

*** Psi4 exiting successfully. Buy a developer a beer!
