                               Psi4 1.3.2 release

  ==> Input File <==

--------------------------------------------------------------------------
#psi4
#
memory 32 gb

molecule  {
0 1
  O       -2.0333080    -0.4946570    -0.2594300
  C       -0.0404832     0.1619529     0.0983630
  C       -0.7556090    -0.6523520    -0.9323370
  C       -1.3382130    -0.0434820     0.9333840
  C        1.2403190    -0.3676220     0.7285870
  C        0.0785870     1.6559510    -0.2923950
  C        2.4113120    -0.4074660    -0.2524220
  H       -0.7841080    -0.2688730    -1.9587990
  H       -0.4364910    -1.7049300    -0.9420770
  H       -1.2533150    -0.8496150     1.6763590
  H       -1.8269820     0.8255510     1.3890460
  H        1.0363310    -1.3847530     1.0869340
  H        1.5166380     0.2228000     1.6126860
  H        0.3782920     2.2853470     0.5530020
  H        0.8158740     1.7811390    -1.0908580
  H       -0.8864940     2.0141160    -0.6640870
  H        2.1439640    -0.9639070    -1.1568140
  H        2.7223560     0.5959580    -0.5532190
  H        3.2771150    -0.9015380     0.1976500
units angstrom
no_reorient  #important for SAPT in psi4, default
symmetry c1  #important for SAPT in psi4, default
}

set PROPERTIES_ORIGIN ["COM"]
properties('MP2/aug-cc-pvtz', properties = ['dipole'])
--------------------------------------------------------------------------

    Molecular point group: c1
  Charge       = 0
  Multiplicity = 1
  Basis Set: AUG-CC-PVTZ
    Blend: AUG-CC-PVTZ
  Basis Set: (AUG-CC-PVTZ AUX)
    Blend: AUG-CC-PVTZ-JKFIT

    Orbital Energies [Eh]
    ---------------------

    Doubly Occupied:

       1A    -20.546254     2A    -11.273035     3A    -11.272939
       4A    -11.237320     5A    -11.227433     6A    -11.220070
       7A    -11.219140     8A     -1.371834     9A     -1.094929
      10A     -0.995613    11A     -0.930977    12A     -0.916822
      13A     -0.846723    14A     -0.732924    15A     -0.670053
      16A     -0.654984    17A     -0.626093    18A     -0.598936
      19A     -0.576738    20A     -0.556482    21A     -0.539798
      22A     -0.529862    23A     -0.526975    24A     -0.507370
      25A     -0.465685    26A     -0.451918    27A     -0.431327
      28A     -0.407897

  @DF-RHF Final Energy:  -309.12332953448379

   => Energetics <=

    Nuclear Repulsion Energy =            330.4344418529644258
    One-Electron Energy =               -1074.2552805953087045
    Two-Electron Energy =                 434.6975092078604348
    Total Energy =                       -309.1233295344837870
  Basis Set: (AUG-CC-PVTZ AUX)
    Blend: AUG-CC-PVTZ-RI
    Molecular point group: c1

    Geometry (in Angstrom), charge = 0, multiplicity = 1:

       Center              X                  Y                   Z               Mass
    ------------   -----------------  -----------------  -----------------  -----------------
         O           -1.967206691324    -0.473835520155    -0.253431274469    15.994914619570
         C            0.025618108676     0.182774379845     0.104361725531    12.000000000000
         C           -0.689507691324    -0.631530520155    -0.926338274469    12.000000000000
         C           -1.272111691324    -0.022660520155     0.939382725531    12.000000000000
         C            1.306420308676    -0.346800520155     0.734585725531    12.000000000000
         C            0.144688308676     1.676772479845    -0.286396274469    12.000000000000
         C            2.477413308676    -0.386644520155    -0.246423274469    12.000000000000
         H           -0.718006691324    -0.248051520155    -1.952800274469     1.007825032230
         H           -0.370389691324    -1.684108520155    -0.936078274469     1.007825032230
         H           -1.187213691324    -0.828793520155     1.682357725531     1.007825032230
         H           -1.760880691324     0.846372479845     1.395044725531     1.007825032230
         H            1.102432308676    -1.363931520155     1.092932725531     1.007825032230
         H            1.582739308676     0.243621479845     1.618684725531     1.007825032230
         H            0.444393308676     2.306168479845     0.559000725531     1.007825032230
         H            0.881975308676     1.801960479845    -1.084859274469     1.007825032230
         H           -0.820392691324     2.034937479845    -0.658088274469     1.007825032230
         H            2.210065308676    -0.943085520155    -1.150815274469     1.007825032230
         H            2.788457308676     0.616779479845    -0.547220274469     1.007825032230
         H            3.343216308676    -0.880716520155     0.203648725531     1.007825032230

  Basis Set: AUG-CC-PVTZ
    Blend: AUG-CC-PVTZ
  Basis Set: (AUG-CC-PVTZ AUX)
    Blend: AUG-CC-PVTZ-JKFIT
	 Reference Energy          =    -309.1233295344837870 [Eh]
	 Singles Energy            =      -0.0000000000000000 [Eh]
	 Same-Spin Energy          =      -0.3196568711677822 [Eh]
	 Opposite-Spin Energy      =      -1.1102982396055310 [Eh]
	 Correlation Energy        =      -1.4299551107733133 [Eh]
	 Total Energy              =    -310.5532846452571221 [Eh]

	 ================> DF-SCS-MP2 Energies <==================
	-----------------------------------------------------------
	 SCS Same-Spin Scale       =       0.3333333333333333 [-]
	 SCS Opposite-Spin Scale   =       1.2000000000000000 [-]
	 SCS Same-Spin Energy      =      -0.1065522903892607 [Eh]
	 SCS Opposite-Spin Energy  =      -1.3323578875266371 [Eh]
	 SCS Correlation Energy    =      -1.4389101779158979 [Eh]
	 SCS Total Energy          =    -310.5622397123996734 [Eh]
	-----------------------------------------------------------

  Dipole Moment: [D]
     X:     2.0592      Y:     0.4024      Z:     0.5209     Total:     2.1619

*** Psi4 exiting successfully. Buy a developer a beer!
