                               Psi4 1.3.2 release

  ==> Input File <==

--------------------------------------------------------------------------
#psi4
#
memory 32 gb

molecule  {
0 1
  O       -2.0333080    -0.4946570    -0.2594300
  C       -0.0425170     0.1992980     0.1361180
  C       -0.7556090    -0.6523520    -0.9323370
  C       -1.3382130    -0.0434820     0.9333840
  C        1.2403190    -0.3676220     0.7285870
  C        0.0785870     1.6559510    -0.2923950
  C        2.4113120    -0.4074660    -0.2524220
  H       -0.7841080    -0.2688730    -1.9587990
  H       -0.4364910    -1.7049300    -0.9420770
  H       -1.2533150    -0.8496150     1.6763590
  H       -1.8269820     0.8255510     1.3890460
  H        1.0363310    -1.3847530     1.0869340
  H        1.5166380     0.2228000     1.6126860
  H        0.3782920     2.2853470     0.5530020
  H        0.8158740     1.7811390    -1.0908580
  H       -0.8864940     2.0141160    -0.6640870
  H        2.1439640    -0.9639070    -1.1568140
  H        2.7223560     0.5959580    -0.5532190
  H        3.2771150    -0.9015380     0.1976500
units angstrom
no_reorient  #important for SAPT in psi4, default
symmetry c1  #important for SAPT in psi4, default
}

set PROPERTIES_ORIGIN ["COM"]
properties('MP2/aug-cc-pvtz', properties = ['dipole'])
--------------------------------------------------------------------------

    Molecular point group: c1
  Charge       = 0
  Multiplicity = 1
  Basis Set: AUG-CC-PVTZ
    Blend: AUG-CC-PVTZ
  Basis Set: (AUG-CC-PVTZ AUX)
    Blend: AUG-CC-PVTZ-JKFIT

    Orbital Energies [Eh]
    ---------------------

    Doubly Occupied:

       1A    -20.546319     2A    -11.273746     3A    -11.273279
       4A    -11.237479     5A    -11.227151     6A    -11.220483
       7A    -11.218493     8A     -1.370292     9A     -1.095436
      10A     -0.996919    11A     -0.928438    12A     -0.916797
      13A     -0.846894    14A     -0.732410    15A     -0.668755
      16A     -0.654501    17A     -0.625829    18A     -0.599684
      19A     -0.576782    20A     -0.557308    21A     -0.540681
      22A     -0.530880    23A     -0.528007    24A     -0.505906
      25A     -0.470841    26A     -0.437949    27A     -0.436390
      28A     -0.410645

  @DF-RHF Final Energy:  -309.12577854967179

   => Energetics <=

    Nuclear Repulsion Energy =            330.2566951484205333
    One-Electron Energy =               -1073.9083637740932318
    Two-Electron Energy =                 434.5258900760009624
    Total Energy =                       -309.1257785496717929
  Basis Set: (AUG-CC-PVTZ AUX)
    Blend: AUG-CC-PVTZ-RI
    Molecular point group: c1

    Geometry (in Angstrom), charge = 0, multiplicity = 1:

       Center              X                  Y                   Z               Mass
    ------------   -----------------  -----------------  -----------------  -----------------
         O           -1.966962851890    -0.478312955520    -0.257957854187    15.994914619570
         C            0.023828148110     0.215642044480     0.137590145813    12.000000000000
         C           -0.689263851890    -0.636007955520    -0.930864854187    12.000000000000
         C           -1.271867851890    -0.027137955520     0.934856145813    12.000000000000
         C            1.306664148110    -0.351277955520     0.730059145813    12.000000000000
         C            0.144932148110     1.672295044480    -0.290922854187    12.000000000000
         C            2.477657148110    -0.391121955520    -0.250949854187    12.000000000000
         H           -0.717762851890    -0.252528955520    -1.957326854187     1.007825032230
         H           -0.370145851890    -1.688585955520    -0.940604854187     1.007825032230
         H           -1.186969851890    -0.833270955520     1.677831145813     1.007825032230
         H           -1.760636851890     0.841895044480     1.390518145813     1.007825032230
         H            1.102676148110    -1.368408955520     1.088406145813     1.007825032230
         H            1.582983148110     0.239144044480     1.614158145813     1.007825032230
         H            0.444637148110     2.301691044480     0.554474145813     1.007825032230
         H            0.882219148110     1.797483044480    -1.089385854187     1.007825032230
         H           -0.820148851890     2.030460044480    -0.662614854187     1.007825032230
         H            2.210309148110    -0.947562955520    -1.155341854187     1.007825032230
         H            2.788701148110     0.612302044480    -0.551746854187     1.007825032230
         H            3.343460148110    -0.885193955520     0.199122145813     1.007825032230

  Basis Set: AUG-CC-PVTZ
    Blend: AUG-CC-PVTZ
  Basis Set: (AUG-CC-PVTZ AUX)
    Blend: AUG-CC-PVTZ-JKFIT
	 Reference Energy          =    -309.1257785496717929 [Eh]
	 Singles Energy            =      -0.0000000000000000 [Eh]
	 Same-Spin Energy          =      -0.3196204409428954 [Eh]
	 Opposite-Spin Energy      =      -1.1102051368172581 [Eh]
	 Correlation Energy        =      -1.4298255777601536 [Eh]
	 Total Energy              =    -310.5556041274319341 [Eh]

	 ================> DF-SCS-MP2 Energies <==================
	-----------------------------------------------------------
	 SCS Same-Spin Scale       =       0.3333333333333333 [-]
	 SCS Opposite-Spin Scale   =       1.2000000000000000 [-]
	 SCS Same-Spin Energy      =      -0.1065401469809651 [Eh]
	 SCS Opposite-Spin Energy  =      -1.3322461641807097 [Eh]
	 SCS Correlation Energy    =      -1.4387863111616750 [Eh]
	 SCS Total Energy          =    -310.5645648608334568 [Eh]
	-----------------------------------------------------------

  Dipole Moment: [D]
     X:     2.0662      Y:     0.4065      Z:     0.5005     Total:     2.1645

*** Psi4 exiting successfully. Buy a developer a beer!
