                               Psi4 1.4a3.dev225

  ==> Input File <==

--------------------------------------------------------------------------
#psi4
#
memory 32 gb

molecule  {
0 1
  O       -2.0333080    -0.4946570    -0.2594300
  C       -0.0425170     0.1992980     0.1361180
  C       -0.7556090    -0.6523520    -0.9323370
  C       -1.3382130    -0.0434820     0.9333840
  C        1.2824475    -0.3862397     0.7480438
  C        0.0785870     1.6559510    -0.2923950
  C        2.4113120    -0.4074660    -0.2524220
  H       -0.7841080    -0.2688730    -1.9587990
  H       -0.4364910    -1.7049300    -0.9420770
  H       -1.2533150    -0.8496150     1.6763590
  H       -1.8269820     0.8255510     1.3890460
  H        1.0363310    -1.3847530     1.0869340
  H        1.5166380     0.2228000     1.6126860
  H        0.3782920     2.2853470     0.5530020
  H        0.8158740     1.7811390    -1.0908580
  H       -0.8864940     2.0141160    -0.6640870
  H        2.1439640    -0.9639070    -1.1568140
  H        2.7223560     0.5959580    -0.5532190
  H        3.2771150    -0.9015380     0.1976500
units angstrom
no_reorient  #important for SAPT in psi4, default
symmetry c1  #important for SAPT in psi4, default
}

set PROPERTIES_ORIGIN ["COM"]
properties('MP2/aug-cc-pvtz', properties = ['dipole'])
--------------------------------------------------------------------------

    Molecular point group: c1
  Charge       = 0
  Multiplicity = 1
  Basis Set: AUG-CC-PVTZ
    Blend: AUG-CC-PVTZ
  Basis Set: (AUG-CC-PVTZ AUX)
    Blend: AUG-CC-PVTZ-JKFIT

    Orbital Energies [Eh]
    ---------------------

    Doubly Occupied:

       1A    -20.546053     2A    -11.273377     3A    -11.272911
       4A    -11.238925     5A    -11.226228     6A    -11.219663
       7A    -11.218181     8A     -1.369835     9A     -1.090698
      10A     -1.000692    11A     -0.927772    12A     -0.915201
      13A     -0.845842    14A     -0.731588    15A     -0.668117
      16A     -0.650873    17A     -0.627044    18A     -0.600726
      19A     -0.576523    20A     -0.557254    21A     -0.540602
      22A     -0.535029    23A     -0.528149    24A     -0.507515
      25A     -0.471334    26A     -0.438937    27A     -0.429384
      28A     -0.410281

  @DF-RHF Final Energy:  -309.12388722103560

   => Energetics <=

    Nuclear Repulsion Energy =            329.5983472501422966
    One-Electron Energy =               -1072.6070021249327056
    Two-Electron Energy =                 433.8847676537548068
    Total Energy =                       -309.1238872210356021
  Basis Set: (AUG-CC-PVTZ AUX)
    Blend: AUG-CC-PVTZ-RI
    Molecular point group: c1

    Geometry (in Angstrom), charge = 0, multiplicity = 1:

       Center              X                  Y                   Z               Mass
    ------------   -----------------  -----------------  -----------------  -----------------
         O           -1.972013785903    -0.476080813997    -0.260290598360    15.994914619570
         C            0.018777214097     0.217874186003     0.135257401640    12.000000000000
         C           -0.694314785903    -0.633775813997    -0.933197598360    12.000000000000
         C           -1.276918785903    -0.024905813997     0.932523401640    12.000000000000
         C            1.343741714097    -0.367663513997     0.747183201640    12.000000000000
         C            0.139881214097     1.674527186003    -0.293255598360    12.000000000000
         C            2.472606214097    -0.388889813997    -0.253282598360    12.000000000000
         H           -0.722813785903    -0.250296813997    -1.959659598360     1.007825032230
         H           -0.375196785903    -1.686353813997    -0.942937598360     1.007825032230
         H           -1.192020785903    -0.831038813997     1.675498401640     1.007825032230
         H           -1.765687785903     0.844127186003     1.388185401640     1.007825032230
         H            1.097625214097    -1.366176813997     1.086073401640     1.007825032230
         H            1.577932214097     0.241376186003     1.611825401640     1.007825032230
         H            0.439586214097     2.303923186003     0.552141401640     1.007825032230
         H            0.877168214097     1.799715186003    -1.091718598360     1.007825032230
         H           -0.825199785903     2.032692186003    -0.664947598360     1.007825032230
         H            2.205258214097    -0.945330813997    -1.157674598360     1.007825032230
         H            2.783650214097     0.614534186003    -0.554079598360     1.007825032230
         H            3.338409214097    -0.882961813997     0.196789401640     1.007825032230

  Basis Set: AUG-CC-PVTZ
    Blend: AUG-CC-PVTZ
  Basis Set: (AUG-CC-PVTZ AUX)
    Blend: AUG-CC-PVTZ-JKFIT
	 Reference Energy          =    -309.1238872210356021 [Eh]
	 Singles Energy            =      -0.0000000000000000 [Eh]
	 Same-Spin Energy          =      -0.3194896309809106 [Eh]
	 Opposite-Spin Energy      =      -1.1101082433587131 [Eh]
	 Correlation Energy        =      -1.4295978743396236 [Eh]
	 Total Energy              =    -310.5534850953752084 [Eh]

	 ================> DF-SCS-MP2 Energies <==================
	-----------------------------------------------------------
	 SCS Same-Spin Scale       =       0.3333333333333333 [-]
	 SCS Opposite-Spin Scale   =       1.2000000000000000 [-]
	 SCS Same-Spin Energy      =      -0.1064965436603035 [Eh]
	 SCS Opposite-Spin Energy  =      -1.3321298920304556 [Eh]
	 SCS Correlation Energy    =      -1.4386264356907592 [Eh]
	 SCS Total Energy          =    -310.5625136567263667 [Eh]
	-----------------------------------------------------------

  Dipole Moment: [D]
     X:     2.0800      Y:     0.4039      Z:     0.5062     Total:     2.1785

*** Psi4 exiting successfully. Buy a developer a beer!
