                               Psi4 1.3.2 release

  ==> Input File <==

--------------------------------------------------------------------------
#psi4
#
memory 32 gb

molecule  {
0 1
  O       -2.0333080    -0.4946570    -0.2594300
  C       -0.0425170     0.1992980     0.1361180
  C       -0.7556090    -0.6523520    -0.9323370
  C       -1.3382130    -0.0434820     0.9333840
  C        1.2403190    -0.3676220     0.7285870
  C        0.0785870     1.6559510    -0.2923950
  C        2.4113120    -0.4074660    -0.2524220
  H       -0.7815080    -0.3038579    -1.8651545
  H       -0.4364910    -1.7049300    -0.9420770
  H       -1.2533150    -0.8496150     1.6763590
  H       -1.8269820     0.8255510     1.3890460
  H        1.0363310    -1.3847530     1.0869340
  H        1.5166380     0.2228000     1.6126860
  H        0.3782920     2.2853470     0.5530020
  H        0.8158740     1.7811390    -1.0908580
  H       -0.8864940     2.0141160    -0.6640870
  H        2.1439640    -0.9639070    -1.1568140
  H        2.7223560     0.5959580    -0.5532190
  H        3.2771150    -0.9015380     0.1976500
units angstrom
no_reorient  #important for SAPT in psi4, default
symmetry c1  #important for SAPT in psi4, default
}

set PROPERTIES_ORIGIN ["COM"]
properties('MP2/aug-cc-pvtz', properties = ['dipole'])
--------------------------------------------------------------------------

    Molecular point group: c1
  Charge       = 0
  Multiplicity = 1
  Basis Set: AUG-CC-PVTZ
    Blend: AUG-CC-PVTZ
  Basis Set: (AUG-CC-PVTZ AUX)
    Blend: AUG-CC-PVTZ-JKFIT

    Orbital Energies [Eh]
    ---------------------

    Doubly Occupied:

       1A    -20.544695     2A    -11.272400     3A    -11.261372
       4A    -11.236442     5A    -11.226625     6A    -11.220373
       7A    -11.218444     8A     -1.369278     9A     -1.095067
      10A     -0.996862    11A     -0.937499    12A     -0.917256
      13A     -0.847437    14A     -0.738220    15A     -0.675989
      16A     -0.654651    17A     -0.625365    18A     -0.599478
      19A     -0.577492    20A     -0.556969    21A     -0.543535
      22A     -0.533546    23A     -0.528573    24A     -0.505627
      25A     -0.470468    26A     -0.438966    27A     -0.435765
      28A     -0.410948

  @DF-RHF Final Energy:  -309.12029214404151

   => Energetics <=

    Nuclear Repulsion Energy =            330.7862698999549593
    One-Electron Energy =               -1074.9344447070250226
    Two-Electron Energy =                 435.0278826630285494
    Total Energy =                       -309.1202921440415139
  Basis Set: (AUG-CC-PVTZ AUX)
    Blend: AUG-CC-PVTZ-RI
    Molecular point group: c1

    Geometry (in Angstrom), charge = 0, multiplicity = 1:

       Center              X                  Y                   Z               Mass
    ------------   -----------------  -----------------  -----------------  -----------------
         O           -1.966989032089    -0.477960681813    -0.258900789431    15.994914619570
         C            0.023801967911     0.215994318187     0.136647210569    12.000000000000
         C           -0.689290032089    -0.635655681813    -0.931807789431    12.000000000000
         C           -1.271894032089    -0.026785681813     0.933913210569    12.000000000000
         C            1.306637967911    -0.350925681813     0.729116210569    12.000000000000
         C            0.144905967911     1.672647318187    -0.291865789431    12.000000000000
         C            2.477630967911    -0.390769681813    -0.251892789431    12.000000000000
         H           -0.715189032089    -0.287161581813    -1.864625289431     1.007825032230
         H           -0.370172032089    -1.688233681813    -0.941547789431     1.007825032230
         H           -1.186996032089    -0.832918681813     1.676888210569     1.007825032230
         H           -1.760663032089     0.842247318187     1.389575210569     1.007825032230
         H            1.102649967911    -1.368056681813     1.087463210569     1.007825032230
         H            1.582956967911     0.239496318187     1.613215210569     1.007825032230
         H            0.444610967911     2.302043318187     0.553531210569     1.007825032230
         H            0.882192967911     1.797835318187    -1.090328789431     1.007825032230
         H           -0.820175032089     2.030812318187    -0.663557789431     1.007825032230
         H            2.210282967911    -0.947210681813    -1.156284789431     1.007825032230
         H            2.788674967911     0.612654318187    -0.552689789431     1.007825032230
         H            3.343433967911    -0.884841681813     0.198179210569     1.007825032230

  Basis Set: AUG-CC-PVTZ
    Blend: AUG-CC-PVTZ
  Basis Set: (AUG-CC-PVTZ AUX)
    Blend: AUG-CC-PVTZ-JKFIT
	 Reference Energy          =    -309.1202921440415139 [Eh]
	 Singles Energy            =      -0.0000000000000000 [Eh]
	 Same-Spin Energy          =      -0.3194989307566818 [Eh]
	 Opposite-Spin Energy      =      -1.1095892510211280 [Eh]
	 Correlation Energy        =      -1.4290881817778098 [Eh]
	 Total Energy              =    -310.5493803258192997 [Eh]

	 ================> DF-SCS-MP2 Energies <==================
	-----------------------------------------------------------
	 SCS Same-Spin Scale       =       0.3333333333333333 [-]
	 SCS Opposite-Spin Scale   =       1.2000000000000000 [-]
	 SCS Same-Spin Energy      =      -0.1064996435855606 [Eh]
	 SCS Opposite-Spin Energy  =      -1.3315071012253537 [Eh]
	 SCS Correlation Energy    =      -1.4380067448109142 [Eh]
	 SCS Total Energy          =    -310.5582988888524483 [Eh]
	-----------------------------------------------------------

  Dipole Moment: [D]
     X:     2.0727      Y:     0.4095      Z:     0.4329     Total:     2.1566

*** Psi4 exiting successfully. Buy a developer a beer!
