                               Psi4 1.3.2 release

  ==> Input File <==

--------------------------------------------------------------------------
#psi4
#
memory 32 gb

molecule  {
0 1
  O       -2.0234402    -0.5053463    -0.2386659
  C       -0.0425170     0.1992980     0.1361180
  C       -0.7556090    -0.6523520    -0.9323370
  C       -1.3382130    -0.0434820     0.9333840
  C        1.2403190    -0.3676220     0.7285870
  C        0.0785870     1.6559510    -0.2923950
  C        2.4113120    -0.4074660    -0.2524220
  H       -0.7841080    -0.2688730    -1.9587990
  H       -0.4364910    -1.7049300    -0.9420770
  H       -1.2533150    -0.8496150     1.6763590
  H       -1.8269820     0.8255510     1.3890460
  H        1.0363310    -1.3847530     1.0869340
  H        1.5166380     0.2228000     1.6126860
  H        0.3782920     2.2853470     0.5530020
  H        0.8158740     1.7811390    -1.0908580
  H       -0.8864940     2.0141160    -0.6640870
  H        2.1439640    -0.9639070    -1.1568140
  H        2.7223560     0.5959580    -0.5532190
  H        3.2771150    -0.9015380     0.1976500
units angstrom
no_reorient  #important for SAPT in psi4, default
symmetry c1  #important for SAPT in psi4, default
}

set PROPERTIES_ORIGIN ["COM"]
properties('MP2/aug-cc-pvtz', properties = ['dipole'])
--------------------------------------------------------------------------

    Molecular point group: c1
  Charge       = 0
  Multiplicity = 1
  Basis Set: AUG-CC-PVTZ
    Blend: AUG-CC-PVTZ
  Basis Set: (AUG-CC-PVTZ AUX)
    Blend: AUG-CC-PVTZ-JKFIT

    Orbital Energies [Eh]
    ---------------------

    Doubly Occupied:

       1A    -20.545858     2A    -11.274220     3A    -11.271138
       4A    -11.237026     5A    -11.226792     6A    -11.220282
       7A    -11.218486     8A     -1.375850     9A     -1.095003
      10A     -0.996585    11A     -0.930029    12A     -0.916226
      13A     -0.846180    14A     -0.732379    15A     -0.670491
      16A     -0.655191    17A     -0.626764    18A     -0.600920
      19A     -0.576309    20A     -0.558016    21A     -0.541498
      22A     -0.531874    23A     -0.528617    24A     -0.505637
      25A     -0.470580    26A     -0.438386    27A     -0.434930
      28A     -0.409639

  @DF-RHF Final Energy:  -309.12649678968603

   => Energetics <=

    Nuclear Repulsion Energy =            330.6132246920945477
    One-Electron Energy =               -1074.6096270923212614
    Two-Electron Energy =                 434.8699056105407408
    Total Energy =                       -309.1264967896860298
  Basis Set: (AUG-CC-PVTZ AUX)
    Blend: AUG-CC-PVTZ-RI
    Molecular point group: c1

    Geometry (in Angstrom), charge = 0, multiplicity = 1:

       Center              X                  Y                   Z               Mass
    ------------   -----------------  -----------------  -----------------  -----------------
         O           -1.958671997511    -0.487294028274    -0.240512007147    15.994914619570
         C            0.022251202489     0.217350271726     0.134271892853    12.000000000000
         C           -0.690840797511    -0.634299728274    -0.934183107147    12.000000000000
         C           -1.273444797511    -0.025429728274     0.931537892853    12.000000000000
         C            1.305087202489    -0.349569728274     0.726740892853    12.000000000000
         C            0.143355202489     1.674003271726    -0.294241107147    12.000000000000
         C            2.476080202489    -0.389413728274    -0.254268107147    12.000000000000
         H           -0.719339797511    -0.250820728274    -1.960645107147     1.007825032230
         H           -0.371722797511    -1.686877728274    -0.943923107147     1.007825032230
         H           -1.188546797511    -0.831562728274     1.674512892853     1.007825032230
         H           -1.762213797511     0.843603271726     1.387199892853     1.007825032230
         H            1.101099202489    -1.366700728274     1.085087892853     1.007825032230
         H            1.581406202489     0.240852271726     1.610839892853     1.007825032230
         H            0.443060202489     2.303399271726     0.551155892853     1.007825032230
         H            0.880642202489     1.799191271726    -1.092704107147     1.007825032230
         H           -0.821725797511     2.032168271726    -0.665933107147     1.007825032230
         H            2.208732202489    -0.945854728274    -1.158660107147     1.007825032230
         H            2.787124202489     0.614010271726    -0.555065107147     1.007825032230
         H            3.341883202489    -0.883485728274     0.195803892853     1.007825032230

  Basis Set: AUG-CC-PVTZ
    Blend: AUG-CC-PVTZ
  Basis Set: (AUG-CC-PVTZ AUX)
    Blend: AUG-CC-PVTZ-JKFIT
	 Reference Energy          =    -309.1264967896860298 [Eh]
	 Singles Energy            =      -0.0000000000000000 [Eh]
	 Same-Spin Energy          =      -0.3194478159919728 [Eh]
	 Opposite-Spin Energy      =      -1.1096151782381958 [Eh]
	 Correlation Energy        =      -1.4290629942301685 [Eh]
	 Total Energy              =    -310.5555597839161805 [Eh]

	 ================> DF-SCS-MP2 Energies <==================
	-----------------------------------------------------------
	 SCS Same-Spin Scale       =       0.3333333333333333 [-]
	 SCS Opposite-Spin Scale   =       1.2000000000000000 [-]
	 SCS Same-Spin Energy      =      -0.1064826053306576 [Eh]
	 SCS Opposite-Spin Energy  =      -1.3315382138858349 [Eh]
	 SCS Correlation Energy    =      -1.4380208192164925 [Eh]
	 SCS Total Energy          =    -310.5645176089025199 [Eh]
	-----------------------------------------------------------

  Dipole Moment: [D]
     X:     2.0415      Y:     0.4161      Z:     0.4365     Total:     2.1287

*** Psi4 exiting successfully. Buy a developer a beer!
