                               Psi4 1.3.2 release

  ==> Input File <==

--------------------------------------------------------------------------
#psi4
#
memory 32 gb

molecule  {
0 1
  O       -2.0333080    -0.4946570    -0.2594300
  C       -0.0425170     0.1992980     0.1361180
  C       -0.7498607    -0.6953612    -0.9005371
  C       -1.3382130    -0.0434820     0.9333840
  C        1.2403190    -0.3676220     0.7285870
  C        0.0785870     1.6559510    -0.2923950
  C        2.4113120    -0.4074660    -0.2524220
  H       -0.7841080    -0.2688730    -1.9587990
  H       -0.4364910    -1.7049300    -0.9420770
  H       -1.2533150    -0.8496150     1.6763590
  H       -1.8269820     0.8255510     1.3890460
  H        1.0363310    -1.3847530     1.0869340
  H        1.5166380     0.2228000     1.6126860
  H        0.3782920     2.2853470     0.5530020
  H        0.8158740     1.7811390    -1.0908580
  H       -0.8864940     2.0141160    -0.6640870
  H        2.1439640    -0.9639070    -1.1568140
  H        2.7223560     0.5959580    -0.5532190
  H        3.2771150    -0.9015380     0.1976500
units angstrom
no_reorient  #important for SAPT in psi4, default
symmetry c1  #important for SAPT in psi4, default
}

set PROPERTIES_ORIGIN ["COM"]
properties('MP2/aug-cc-pvtz', properties = ['dipole'])
--------------------------------------------------------------------------

    Molecular point group: c1
  Charge       = 0
  Multiplicity = 1
  Basis Set: AUG-CC-PVTZ
    Blend: AUG-CC-PVTZ
  Basis Set: (AUG-CC-PVTZ AUX)
    Blend: AUG-CC-PVTZ-JKFIT

    Orbital Energies [Eh]
    ---------------------

    Doubly Occupied:

       1A    -20.547055     2A    -11.274033     3A    -11.273804
       4A    -11.237383     5A    -11.226716     6A    -11.220505
       7A    -11.219004     8A     -1.372576     9A     -1.095621
      10A     -0.996545    11A     -0.927504    12A     -0.919190
      13A     -0.846652    14A     -0.735310    15A     -0.665705
      16A     -0.654687    17A     -0.626304    18A     -0.599537
      19A     -0.582528    20A     -0.557519    21A     -0.540242
      22A     -0.530644    23A     -0.524278    24A     -0.506976
      25A     -0.471368    26A     -0.439023    27A     -0.432927
      28A     -0.411755

  @DF-RHF Final Energy:  -309.12230876483278

   => Energetics <=

    Nuclear Repulsion Energy =            330.3548864788678543
    One-Electron Energy =               -1074.0836097802146014
    Two-Electron Energy =                 434.6064145365139098
    Total Energy =                       -309.1223087648327805
  Basis Set: (AUG-CC-PVTZ AUX)
    Blend: AUG-CC-PVTZ-RI
    Molecular point group: c1

    Geometry (in Angstrom), charge = 0, multiplicity = 1:

       Center              X                  Y                   Z               Mass
    ------------   -----------------  -----------------  -----------------  -----------------
         O           -1.967652035791    -0.473156431288    -0.261770456024    15.994914619570
         C            0.023138964209     0.220798568712     0.133777543976    12.000000000000
         C           -0.684204735791    -0.673860631288    -0.902877556024    12.000000000000
         C           -1.272557035791    -0.021981431288     0.931043543976    12.000000000000
         C            1.305974964209    -0.346121431288     0.726246543976    12.000000000000
         C            0.144242964209     1.677451568712    -0.294735456024    12.000000000000
         C            2.476967964209    -0.385965431288    -0.254762456024    12.000000000000
         H           -0.718452035791    -0.247372431288    -1.961139456024     1.007825032230
         H           -0.370835035791    -1.683429431288    -0.944417456024     1.007825032230
         H           -1.187659035791    -0.828114431288     1.674018543976     1.007825032230
         H           -1.761326035791     0.847051568712     1.386705543976     1.007825032230
         H            1.101986964209    -1.363252431288     1.084593543976     1.007825032230
         H            1.582293964209     0.244300568712     1.610345543976     1.007825032230
         H            0.443947964209     2.306847568712     0.550661543976     1.007825032230
         H            0.881529964209     1.802639568712    -1.093198456024     1.007825032230
         H           -0.820838035791     2.035616568712    -0.666427456024     1.007825032230
         H            2.209619964209    -0.942406431288    -1.159154456024     1.007825032230
         H            2.788011964209     0.617458568712    -0.555559456024     1.007825032230
         H            3.342770964209    -0.880037431288     0.195309543976     1.007825032230

  Basis Set: AUG-CC-PVTZ
    Blend: AUG-CC-PVTZ
  Basis Set: (AUG-CC-PVTZ AUX)
    Blend: AUG-CC-PVTZ-JKFIT
	 Reference Energy          =    -309.1223087648327805 [Eh]
	 Singles Energy            =      -0.0000000000000000 [Eh]
	 Same-Spin Energy          =      -0.3197363336465248 [Eh]
	 Opposite-Spin Energy      =      -1.1103552913220651 [Eh]
	 Correlation Energy        =      -1.4300916249685900 [Eh]
	 Total Energy              =    -310.5524003898013916 [Eh]

	 ================> DF-SCS-MP2 Energies <==================
	-----------------------------------------------------------
	 SCS Same-Spin Scale       =       0.3333333333333333 [-]
	 SCS Opposite-Spin Scale   =       1.2000000000000000 [-]
	 SCS Same-Spin Energy      =      -0.1065787778821749 [Eh]
	 SCS Opposite-Spin Energy  =      -1.3324263495864781 [Eh]
	 SCS Correlation Energy    =      -1.4390051274686531 [Eh]
	 SCS Total Energy          =    -310.5613138923014276 [Eh]
	-----------------------------------------------------------

  Dipole Moment: [D]
     X:     2.0643      Y:     0.3548      Z:     0.5593     Total:     2.1679

*** Psi4 exiting successfully. Buy a developer a beer!
