                               Psi4 1.3.2 release

  ==> Input File <==

--------------------------------------------------------------------------
#psi4
#
memory 32 gb

molecule  {
0 1
  O       -1.9594829    -0.4111619    -0.1559986
  C       -0.0425170     0.1992980     0.1361180
  C       -0.7556090    -0.6523520    -0.9323370
  C       -1.3382130    -0.0434820     0.9333840
  C        1.2403190    -0.3676220     0.7285870
  C        0.0785870     1.6559510    -0.2923950
  C        2.4113120    -0.4074660    -0.2524220
  H       -0.7841080    -0.2688730    -1.9587990
  H       -0.4364910    -1.7049300    -0.9420770
  H       -1.2533150    -0.8496150     1.6763590
  H       -1.8269820     0.8255510     1.3890460
  H        1.0363310    -1.3847530     1.0869340
  H        1.5166380     0.2228000     1.6126860
  H        0.3782920     2.2853470     0.5530020
  H        0.8158740     1.7811390    -1.0908580
  H       -0.8864940     2.0141160    -0.6640870
  H        2.1439640    -0.9639070    -1.1568140
  H        2.7223560     0.5959580    -0.5532190
  H        3.2771150    -0.9015380     0.1976500
units angstrom
no_reorient  #important for SAPT in psi4, default
symmetry c1  #important for SAPT in psi4, default
}

set PROPERTIES_ORIGIN ["COM"]
properties('MP2/aug-cc-pvtz', properties = ['dipole'])
--------------------------------------------------------------------------

    Molecular point group: c1
  Charge       = 0
  Multiplicity = 1
  Basis Set: AUG-CC-PVTZ
    Blend: AUG-CC-PVTZ
  Basis Set: (AUG-CC-PVTZ AUX)
    Blend: AUG-CC-PVTZ-JKFIT

    Orbital Energies [Eh]
    ---------------------

    Doubly Occupied:

       1A    -20.544342     2A    -11.278332     3A    -11.257256
       4A    -11.233124     5A    -11.222889     6A    -11.218484
       7A    -11.216745     8A     -1.425287     9A     -1.090981
      10A     -0.993190    11A     -0.946101    12A     -0.910360
      13A     -0.839806    14A     -0.738089    15A     -0.683854
      16A     -0.660659    17A     -0.638401    18A     -0.608619
      19A     -0.585226    20A     -0.558816    21A     -0.542521
      22A     -0.533341    23A     -0.528672    24A     -0.503360
      25A     -0.467901    26A     -0.443183    27A     -0.423702
      28A     -0.398454

  @DF-RHF Final Energy:  -309.11401500227845

   => Energetics <=

    Nuclear Repulsion Energy =            333.8895400527783295
    One-Electron Energy =               -1081.0237170227969727
    Two-Electron Energy =                 438.0201619677401936
    Total Energy =                       -309.1140150022784496
  Basis Set: (AUG-CC-PVTZ AUX)
    Blend: AUG-CC-PVTZ-RI
    Molecular point group: c1

    Geometry (in Angstrom), charge = 0, multiplicity = 1:

       Center              X                  Y                   Z               Mass
    ------------   -----------------  -----------------  -----------------  -----------------
         O           -1.904935535401    -0.408160974785    -0.171055538000    15.994914619570
         C            0.012030364599     0.202298925215     0.121061062000    12.000000000000
         C           -0.701061635401    -0.649351074785    -0.947393938000    12.000000000000
         C           -1.283665635401    -0.040481074785     0.918327062000    12.000000000000
         C            1.294866364599    -0.364621074785     0.713530062000    12.000000000000
         C            0.133134364599     1.658951925215    -0.307451938000    12.000000000000
         C            2.465859364599    -0.404465074785    -0.267478938000    12.000000000000
         H           -0.729560635401    -0.265872074785    -1.973855938000     1.007825032230
         H           -0.381943635401    -1.701929074785    -0.957133938000     1.007825032230
         H           -1.198767635401    -0.846614074785     1.661302062000     1.007825032230
         H           -1.772434635401     0.828551925215     1.373989062000     1.007825032230
         H            1.090878364599    -1.381752074785     1.071877062000     1.007825032230
         H            1.571185364599     0.225800925215     1.597629062000     1.007825032230
         H            0.432839364599     2.288347925215     0.537945062000     1.007825032230
         H            0.870421364599     1.784139925215    -1.105914938000     1.007825032230
         H           -0.831946635401     2.017116925215    -0.679143938000     1.007825032230
         H            2.198511364599    -0.960906074785    -1.171870938000     1.007825032230
         H            2.776903364599     0.598958925215    -0.568275938000     1.007825032230
         H            3.331662364599    -0.898537074785     0.182593062000     1.007825032230

  Basis Set: AUG-CC-PVTZ
    Blend: AUG-CC-PVTZ
  Basis Set: (AUG-CC-PVTZ AUX)
    Blend: AUG-CC-PVTZ-JKFIT
	 Reference Energy          =    -309.1140150022784496 [Eh]
	 Singles Energy            =      -0.0000000000000000 [Eh]
	 Same-Spin Energy          =      -0.3190892915694067 [Eh]
	 Opposite-Spin Energy      =      -1.1069471872185632 [Eh]
	 Correlation Energy        =      -1.4260364787879700 [Eh]
	 Total Energy              =    -310.5400514810664276 [Eh]

	 ================> DF-SCS-MP2 Energies <==================
	-----------------------------------------------------------
	 SCS Same-Spin Scale       =       0.3333333333333333 [-]
	 SCS Opposite-Spin Scale   =       1.2000000000000000 [-]
	 SCS Same-Spin Energy      =      -0.1063630971898022 [Eh]
	 SCS Opposite-Spin Energy  =      -1.3283366246622759 [Eh]
	 SCS Correlation Energy    =      -1.4346997218520781 [Eh]
	 SCS Total Energy          =    -310.5487147241305479 [Eh]
	-----------------------------------------------------------

  Dipole Moment: [D]
     X:     1.8163      Y:     0.2099      Z:     0.0451     Total:     1.8290

*** Psi4 exiting successfully. Buy a developer a beer!
