                               Psi4 1.3.2 release

  ==> Input File <==

--------------------------------------------------------------------------
#psi4
#
memory 32 gb

molecule  {
0 1
  O       -2.0333080    -0.4946570    -0.2594300
  C       -0.0425170     0.1992980     0.1361180
  C       -0.7604885    -0.6083052    -0.9628351
  C       -1.3382130    -0.0434820     0.9333840
  C        1.2403190    -0.3676220     0.7285870
  C        0.0785870     1.6559510    -0.2923950
  C        2.4113120    -0.4074660    -0.2524220
  H       -0.7841080    -0.2688730    -1.9587990
  H       -0.4364910    -1.7049300    -0.9420770
  H       -1.2533150    -0.8496150     1.6763590
  H       -1.8269820     0.8255510     1.3890460
  H        1.0363310    -1.3847530     1.0869340
  H        1.5166380     0.2228000     1.6126860
  H        0.3782920     2.2853470     0.5530020
  H        0.8158740     1.7811390    -1.0908580
  H       -0.8864940     2.0141160    -0.6640870
  H        2.1439640    -0.9639070    -1.1568140
  H        2.7223560     0.5959580    -0.5532190
  H        3.2771150    -0.9015380     0.1976500
units angstrom
no_reorient  #important for SAPT in psi4, default
symmetry c1  #important for SAPT in psi4, default
}

set PROPERTIES_ORIGIN ["COM"]
properties('MP2/aug-cc-pvtz', properties = ['dipole'])
--------------------------------------------------------------------------

    Molecular point group: c1
  Charge       = 0
  Multiplicity = 1
  Basis Set: AUG-CC-PVTZ
    Blend: AUG-CC-PVTZ
  Basis Set: (AUG-CC-PVTZ AUX)
    Blend: AUG-CC-PVTZ-JKFIT

    Orbital Energies [Eh]
    ---------------------

    Doubly Occupied:

       1A    -20.546013     2A    -11.274239     3A    -11.272979
       4A    -11.238152     5A    -11.227717     6A    -11.220488
       7A    -11.218183     8A     -1.367824     9A     -1.095532
      10A     -0.997493    11A     -0.930305    12A     -0.914790
      13A     -0.847380    14A     -0.733112    15A     -0.670589
      16A     -0.654615    17A     -0.625387    18A     -0.599903
      19A     -0.571153    20A     -0.556811    21A     -0.541582
      22A     -0.534042    23A     -0.527582    24A     -0.504946
      25A     -0.470539    26A     -0.442707    27A     -0.435016
      28A     -0.407135

  @DF-RHF Final Energy:  -309.12247591949023

   => Energetics <=

    Nuclear Repulsion Energy =            330.1555263110594183
    One-Electron Energy =               -1073.7035722629148040
    Two-Electron Energy =                 434.4255700323651013
    Total Energy =                       -309.1224759194902276
  Basis Set: (AUG-CC-PVTZ AUX)
    Blend: AUG-CC-PVTZ-RI
    Molecular point group: c1

    Geometry (in Angstrom), charge = 0, multiplicity = 1:

       Center              X                  Y                   Z               Mass
    ------------   -----------------  -----------------  -----------------  -----------------
         O           -1.966377831476    -0.483593881266    -0.254301329729    15.994914619570
         C            0.024413168524     0.210361118734     0.141246670271    12.000000000000
         C           -0.693558331476    -0.597242081266    -0.957706429729    12.000000000000
         C           -1.271282831476    -0.032418881266     0.938512670271    12.000000000000
         C            1.307249168524    -0.356558881266     0.733715670271    12.000000000000
         C            0.145517168524     1.667014118734    -0.287266329729    12.000000000000
         C            2.478242168524    -0.396402881266    -0.247293329729    12.000000000000
         H           -0.717177831476    -0.257809881266    -1.953670329729     1.007825032230
         H           -0.369560831476    -1.693866881266    -0.936948329729     1.007825032230
         H           -1.186384831476    -0.838551881266     1.681487670271     1.007825032230
         H           -1.760051831476     0.836614118734     1.394174670271     1.007825032230
         H            1.103261168524    -1.373689881266     1.092062670271     1.007825032230
         H            1.583568168524     0.233863118734     1.617814670271     1.007825032230
         H            0.445222168524     2.296410118734     0.558130670271     1.007825032230
         H            0.882804168524     1.792202118734    -1.085729329729     1.007825032230
         H           -0.819563831476     2.025179118734    -0.658958329729     1.007825032230
         H            2.210894168524    -0.952843881266    -1.151685329729     1.007825032230
         H            2.789286168524     0.607021118734    -0.548090329729     1.007825032230
         H            3.344045168524    -0.890474881266     0.202778670271     1.007825032230

  Basis Set: AUG-CC-PVTZ
    Blend: AUG-CC-PVTZ
  Basis Set: (AUG-CC-PVTZ AUX)
    Blend: AUG-CC-PVTZ-JKFIT
	 Reference Energy          =    -309.1224759194902276 [Eh]
	 Singles Energy            =      -0.0000000000000000 [Eh]
	 Same-Spin Energy          =      -0.3196270536111879 [Eh]
	 Opposite-Spin Energy      =      -1.1104190334487276 [Eh]
	 Correlation Energy        =      -1.4300460870599156 [Eh]
	 Total Energy              =    -310.5525220065501344 [Eh]

	 ================> DF-SCS-MP2 Energies <==================
	-----------------------------------------------------------
	 SCS Same-Spin Scale       =       0.3333333333333333 [-]
	 SCS Opposite-Spin Scale   =       1.2000000000000000 [-]
	 SCS Same-Spin Energy      =      -0.1065423512037293 [Eh]
	 SCS Opposite-Spin Energy  =      -1.3325028401384731 [Eh]
	 SCS Correlation Energy    =      -1.4390451913422024 [Eh]
	 SCS Total Energy          =    -310.5615211108324161 [Eh]
	-----------------------------------------------------------

  Dipole Moment: [D]
     X:     2.0649      Y:     0.4679      Z:     0.4571     Total:     2.1660

*** Psi4 exiting successfully. Buy a developer a beer!
