                               Psi4 1.3.2 release

  ==> Input File <==

--------------------------------------------------------------------------
#psi4
#
memory 32 gb

molecule  {
0 1
  O       -2.0333080    -0.4946570    -0.2594300
  C       -0.0425170     0.1992980     0.1361180
  C       -0.7677855    -0.6602222    -0.9531355
  C       -1.3382130    -0.0434820     0.9333840
  C        1.2403190    -0.3676220     0.7285870
  C        0.0785870     1.6559510    -0.2923950
  C        2.4113120    -0.4074660    -0.2524220
  H       -0.7841080    -0.2688730    -1.9587990
  H       -0.4364910    -1.7049300    -0.9420770
  H       -1.2533150    -0.8496150     1.6763590
  H       -1.8269820     0.8255510     1.3890460
  H        1.0363310    -1.3847530     1.0869340
  H        1.5166380     0.2228000     1.6126860
  H        0.3782920     2.2853470     0.5530020
  H        0.8158740     1.7811390    -1.0908580
  H       -0.8864940     2.0141160    -0.6640870
  H        2.1439640    -0.9639070    -1.1568140
  H        2.7223560     0.5959580    -0.5532190
  H        3.2771150    -0.9015380     0.1976500
units angstrom
no_reorient  #important for SAPT in psi4, default
symmetry c1  #important for SAPT in psi4, default
}

set PROPERTIES_ORIGIN ["COM"]
properties('MP2/aug-cc-pvtz', properties = ['dipole'])
--------------------------------------------------------------------------

    Molecular point group: c1
  Charge       = 0
  Multiplicity = 1
  Basis Set: AUG-CC-PVTZ
    Blend: AUG-CC-PVTZ
  Basis Set: (AUG-CC-PVTZ AUX)
    Blend: AUG-CC-PVTZ-JKFIT

    Orbital Energies [Eh]
    ---------------------

    Doubly Occupied:

       1A    -20.546307     2A    -11.272880     3A    -11.272834
       4A    -11.238409     5A    -11.226899     6A    -11.220294
       7A    -11.218155     8A     -1.368704     9A     -1.093439
      10A     -0.995969    11A     -0.929817    12A     -0.914968
      13A     -0.846501    14A     -0.732289    15A     -0.669682
      16A     -0.653380    17A     -0.624913    18A     -0.599215
      19A     -0.578324    20A     -0.556959    21A     -0.541574
      22A     -0.532642    23A     -0.528135    24A     -0.505220
      25A     -0.470315    26A     -0.436765    27A     -0.433811
      28A     -0.410384

  @DF-RHF Final Energy:  -309.12553579034926

   => Energetics <=

    Nuclear Repulsion Energy =            329.8428166080366282
    One-Electron Energy =               -1073.0991346561295359
    Two-Electron Energy =                 434.1307822577436468
    Total Energy =                       -309.1255357903492609
  Basis Set: (AUG-CC-PVTZ AUX)
    Blend: AUG-CC-PVTZ-RI
    Molecular point group: c1

    Geometry (in Angstrom), charge = 0, multiplicity = 1:

       Center              X                  Y                   Z               Mass
    ------------   -----------------  -----------------  -----------------  -----------------
         O           -1.965502968486    -0.477369369566    -0.255464248883    15.994914619570
         C            0.025288031514     0.216585630434     0.140083751117    12.000000000000
         C           -0.699980468486    -0.642934569566    -0.949169748883    12.000000000000
         C           -1.270407968486    -0.026194369566     0.937349751117    12.000000000000
         C            1.308124031514    -0.350334369566     0.732552751117    12.000000000000
         C            0.146392031514     1.673238630434    -0.288429248883    12.000000000000
         C            2.479117031514    -0.390178369566    -0.248456248883    12.000000000000
         H           -0.716302968486    -0.251585369566    -1.954833248883     1.007825032230
         H           -0.368685968486    -1.687642369566    -0.938111248883     1.007825032230
         H           -1.185509968486    -0.832327369566     1.680324751117     1.007825032230
         H           -1.759176968486     0.842838630434     1.393011751117     1.007825032230
         H            1.104136031514    -1.367465369566     1.090899751117     1.007825032230
         H            1.584443031514     0.240087630434     1.616651751117     1.007825032230
         H            0.446097031514     2.302634630434     0.556967751117     1.007825032230
         H            0.883679031514     1.798426630434    -1.086892248883     1.007825032230
         H           -0.818688968486     2.031403630434    -0.660121248883     1.007825032230
         H            2.211769031514    -0.946619369566    -1.152848248883     1.007825032230
         H            2.790161031514     0.613245630434    -0.549253248883     1.007825032230
         H            3.344920031514    -0.884250369566     0.201615751117     1.007825032230

  Basis Set: AUG-CC-PVTZ
    Blend: AUG-CC-PVTZ
  Basis Set: (AUG-CC-PVTZ AUX)
    Blend: AUG-CC-PVTZ-JKFIT
	 Reference Energy          =    -309.1255357903492609 [Eh]
	 Singles Energy            =      -0.0000000000000000 [Eh]
	 Same-Spin Energy          =      -0.3194369797438235 [Eh]
	 Opposite-Spin Energy      =      -1.1100881267981531 [Eh]
	 Correlation Energy        =      -1.4295251065419765 [Eh]
	 Total Energy              =    -310.5550608968912343 [Eh]

	 ================> DF-SCS-MP2 Energies <==================
	-----------------------------------------------------------
	 SCS Same-Spin Scale       =       0.3333333333333333 [-]
	 SCS Opposite-Spin Scale   =       1.2000000000000000 [-]
	 SCS Same-Spin Energy      =      -0.1064789932479411 [Eh]
	 SCS Opposite-Spin Energy  =      -1.3321057521577837 [Eh]
	 SCS Correlation Energy    =      -1.4385847454057248 [Eh]
	 SCS Total Energy          =    -310.5641205357549666 [Eh]
	-----------------------------------------------------------

  Dipole Moment: [D]
     X:     2.0617      Y:     0.4016      Z:     0.4734     Total:     2.1532

*** Psi4 exiting successfully. Buy a developer a beer!
