                               Psi4 1.3.2 release

  ==> Input File <==

--------------------------------------------------------------------------
#psi4
#
memory 32 gb

molecule  {
0 1
  O       -2.0333080    -0.4946570    -0.2594300
  C       -0.0429879     0.2359524     0.1745948
  C       -0.7556090    -0.6523520    -0.9323370
  C       -1.3382130    -0.0434820     0.9333840
  C        1.2403190    -0.3676220     0.7285870
  C        0.0785870     1.6559510    -0.2923950
  C        2.4113120    -0.4074660    -0.2524220
  H       -0.7841080    -0.2688730    -1.9587990
  H       -0.4364910    -1.7049300    -0.9420770
  H       -1.2533150    -0.8496150     1.6763590
  H       -1.8269820     0.8255510     1.3890460
  H        1.0363310    -1.3847530     1.0869340
  H        1.5166380     0.2228000     1.6126860
  H        0.3782920     2.2853470     0.5530020
  H        0.8158740     1.7811390    -1.0908580
  H       -0.8864940     2.0141160    -0.6640870
  H        2.1439640    -0.9639070    -1.1568140
  H        2.7223560     0.5959580    -0.5532190
  H        3.2771150    -0.9015380     0.1976500
units angstrom
no_reorient  #important for SAPT in psi4, default
symmetry c1  #important for SAPT in psi4, default
}

set PROPERTIES_ORIGIN ["COM"]
properties('MP2/aug-cc-pvtz', properties = ['dipole'])
--------------------------------------------------------------------------

    Molecular point group: c1
  Charge       = 0
  Multiplicity = 1
  Basis Set: AUG-CC-PVTZ
    Blend: AUG-CC-PVTZ
  Basis Set: (AUG-CC-PVTZ AUX)
    Blend: AUG-CC-PVTZ-JKFIT

    Orbital Energies [Eh]
    ---------------------

    Doubly Occupied:

       1A    -20.546416     2A    -11.274169     3A    -11.273981
       4A    -11.238321     5A    -11.227270     6A    -11.220965
       7A    -11.218070     8A     -1.368723     9A     -1.096547
      10A     -0.998705    11A     -0.928648    12A     -0.914164
      13A     -0.847210    14A     -0.731785    15A     -0.667663
      16A     -0.654418    17A     -0.625496    18A     -0.600579
      19A     -0.577176    20A     -0.558163    21A     -0.541684
      22A     -0.532481    23A     -0.528750    24A     -0.504468
      25A     -0.475786    26A     -0.441856    27A     -0.425203
      28A     -0.409296

  @DF-RHF Final Energy:  -309.12303740322830

   => Energetics <=

    Nuclear Repulsion Energy =            330.0515648607385515
    One-Electron Energy =               -1073.4932192357121039
    Two-Electron Energy =                 434.3186169717452003
    Total Energy =                       -309.1230374032282953
  Basis Set: (AUG-CC-PVTZ AUX)
    Blend: AUG-CC-PVTZ-RI
    Molecular point group: c1

    Geometry (in Angstrom), charge = 0, multiplicity = 1:

       Center              X                  Y                   Z               Mass
    ------------   -----------------  -----------------  -----------------  -----------------
         O           -1.966906394033    -0.482707580434    -0.262570973045    15.994914619570
         C            0.023413705967     0.247901819566     0.171453826955    12.000000000000
         C           -0.689207394033    -0.640402580434    -0.935477973045    12.000000000000
         C           -1.271811394033    -0.031532580434     0.930243026955    12.000000000000
         C            1.306720605967    -0.355672580434     0.725446026955    12.000000000000
         C            0.144988605967     1.667900419566    -0.295535973045    12.000000000000
         C            2.477713605967    -0.395516580434    -0.255562973045    12.000000000000
         H           -0.717706394033    -0.256923580434    -1.961939973045     1.007825032230
         H           -0.370089394033    -1.692980580434    -0.945217973045     1.007825032230
         H           -1.186913394033    -0.837665580434     1.673218026955     1.007825032230
         H           -1.760580394033     0.837500419566     1.385905026955     1.007825032230
         H            1.102732605967    -1.372803580434     1.083793026955     1.007825032230
         H            1.583039605967     0.234749419566     1.609545026955     1.007825032230
         H            0.444693605967     2.297296419566     0.549861026955     1.007825032230
         H            0.882275605967     1.793088419566    -1.093998973045     1.007825032230
         H           -0.820092394033     2.026065419566    -0.667227973045     1.007825032230
         H            2.210365605967    -0.951957580434    -1.159954973045     1.007825032230
         H            2.788757605967     0.607907419566    -0.556359973045     1.007825032230
         H            3.343516605967    -0.889588580434     0.194509026955     1.007825032230

  Basis Set: AUG-CC-PVTZ
    Blend: AUG-CC-PVTZ
  Basis Set: (AUG-CC-PVTZ AUX)
    Blend: AUG-CC-PVTZ-JKFIT
	 Reference Energy          =    -309.1230374032282953 [Eh]
	 Singles Energy            =      -0.0000000000000000 [Eh]
	 Same-Spin Energy          =      -0.3198225346102286 [Eh]
	 Opposite-Spin Energy      =      -1.1105742074871783 [Eh]
	 Correlation Energy        =      -1.4303967420974069 [Eh]
	 Total Energy              =    -310.5534341453256957 [Eh]

	 ================> DF-SCS-MP2 Energies <==================
	-----------------------------------------------------------
	 SCS Same-Spin Scale       =       0.3333333333333333 [-]
	 SCS Opposite-Spin Scale   =       1.2000000000000000 [-]
	 SCS Same-Spin Energy      =      -0.1066075115367429 [Eh]
	 SCS Opposite-Spin Energy  =      -1.3326890489846139 [Eh]
	 SCS Correlation Energy    =      -1.4392965605213568 [Eh]
	 SCS Total Energy          =    -310.5623339637496656 [Eh]
	-----------------------------------------------------------

  Dipole Moment: [D]
     X:     2.0759      Y:     0.4107      Z:     0.4833     Total:     2.1707

*** Psi4 exiting successfully. Buy a developer a beer!
