                               Psi4 1.3.2 release

  ==> Input File <==

--------------------------------------------------------------------------
#psi4
#
memory 32 gb

molecule  {
0 1
  O       -2.0333080    -0.4946570    -0.2594300
  C       -0.0425170     0.1992980     0.1361180
  C       -0.7644932    -0.5632745    -0.9919944
  C       -1.3382130    -0.0434820     0.9333840
  C        1.2403190    -0.3676220     0.7285870
  C        0.0785870     1.6559510    -0.2923950
  C        2.4113120    -0.4074660    -0.2524220
  H       -0.7841080    -0.2688730    -1.9587990
  H       -0.4364910    -1.7049300    -0.9420770
  H       -1.2533150    -0.8496150     1.6763590
  H       -1.8269820     0.8255510     1.3890460
  H        1.0363310    -1.3847530     1.0869340
  H        1.5166380     0.2228000     1.6126860
  H        0.3782920     2.2853470     0.5530020
  H        0.8158740     1.7811390    -1.0908580
  H       -0.8864940     2.0141160    -0.6640870
  H        2.1439640    -0.9639070    -1.1568140
  H        2.7223560     0.5959580    -0.5532190
  H        3.2771150    -0.9015380     0.1976500
units angstrom
no_reorient  #important for SAPT in psi4, default
symmetry c1  #important for SAPT in psi4, default
}

set PROPERTIES_ORIGIN ["COM"]
properties('MP2/aug-cc-pvtz', properties = ['dipole'])
--------------------------------------------------------------------------

    Molecular point group: c1
  Charge       = 0
  Multiplicity = 1
  Basis Set: AUG-CC-PVTZ
    Blend: AUG-CC-PVTZ
  Basis Set: (AUG-CC-PVTZ AUX)
    Blend: AUG-CC-PVTZ-JKFIT

    Orbital Energies [Eh]
    ---------------------

    Doubly Occupied:

       1A    -20.546121     2A    -11.275509     3A    -11.272900
       4A    -11.239393     5A    -11.228409     6A    -11.220519
       7A    -11.218086     8A     -1.365206     9A     -1.095911
      10A     -0.998282    11A     -0.932992    12A     -0.913284
      13A     -0.848084    14A     -0.737506    15A     -0.670713
      16A     -0.655010    17A     -0.624951    18A     -0.600203
      19A     -0.567050    20A     -0.555727    21A     -0.542964
      22A     -0.536339    23A     -0.526032    24A     -0.504098
      25A     -0.470586    26A     -0.447477    27A     -0.433687
      28A     -0.402045

  @DF-RHF Final Energy:  -309.11238208800324

   => Energetics <=

    Nuclear Repulsion Energy =            330.0523363508214061
    One-Electron Energy =               -1073.4712676487110912
    Two-Electron Energy =                 434.3065492098864411
    Total Energy =                       -309.1123820880032440
  Basis Set: (AUG-CC-PVTZ AUX)
    Blend: AUG-CC-PVTZ-RI
    Molecular point group: c1

    Geometry (in Angstrom), charge = 0, multiplicity = 1:

       Center              X                  Y                   Z               Mass
    ------------   -----------------  -----------------  -----------------  -----------------
         O           -1.965897693910    -0.488992770242    -0.250805318712    15.994914619570
         C            0.024893306090     0.204962229758     0.144742681288    12.000000000000
         C           -0.697082893910    -0.557610270242    -0.983369718712    12.000000000000
         C           -1.270802693910    -0.037817770242     0.942008681288    12.000000000000
         C            1.307729306090    -0.361957770242     0.737211681288    12.000000000000
         C            0.145997306090     1.661615229758    -0.283770318712    12.000000000000
         C            2.478722306090    -0.401801770242    -0.243797318712    12.000000000000
         H           -0.716697693910    -0.263208770242    -1.950174318712     1.007825032230
         H           -0.369080693910    -1.699265770242    -0.933452318712     1.007825032230
         H           -1.185904693910    -0.843950770242     1.684983681288     1.007825032230
         H           -1.759571693910     0.831215229758     1.397670681288     1.007825032230
         H            1.103741306090    -1.379088770242     1.095558681288     1.007825032230
         H            1.584048306090     0.228464229758     1.621310681288     1.007825032230
         H            0.445702306090     2.291011229758     0.561626681288     1.007825032230
         H            0.883284306090     1.786803229758    -1.082233318712     1.007825032230
         H           -0.819083693910     2.019780229758    -0.655462318712     1.007825032230
         H            2.211374306090    -0.958242770242    -1.148189318712     1.007825032230
         H            2.789766306090     0.601622229758    -0.544594318712     1.007825032230
         H            3.344525306090    -0.895873770242     0.206274681288     1.007825032230

  Basis Set: AUG-CC-PVTZ
    Blend: AUG-CC-PVTZ
  Basis Set: (AUG-CC-PVTZ AUX)
    Blend: AUG-CC-PVTZ-JKFIT
	 Reference Energy          =    -309.1123820880032440 [Eh]
	 Singles Energy            =      -0.0000000000000000 [Eh]
	 Same-Spin Energy          =      -0.3197569518981377 [Eh]
	 Opposite-Spin Energy      =      -1.1110018281900862 [Eh]
	 Correlation Energy        =      -1.4307587800882240 [Eh]
	 Total Energy              =    -310.5431408680914842 [Eh]

	 ================> DF-SCS-MP2 Energies <==================
	-----------------------------------------------------------
	 SCS Same-Spin Scale       =       0.3333333333333333 [-]
	 SCS Opposite-Spin Scale   =       1.2000000000000000 [-]
	 SCS Same-Spin Energy      =      -0.1065856506327126 [Eh]
	 SCS Opposite-Spin Energy  =      -1.3332021938281033 [Eh]
	 SCS Correlation Energy    =      -1.4397878444608159 [Eh]
	 SCS Total Energy          =    -310.5521699324640394 [Eh]
	-----------------------------------------------------------

  Dipole Moment: [D]
     X:     2.0605      Y:     0.5385      Z:     0.4291     Total:     2.1725

*** Psi4 exiting successfully. Buy a developer a beer!
