                               Psi4 1.3.2 release

  ==> Input File <==

--------------------------------------------------------------------------
#psi4
#
memory 32 gb

molecule  {
0 1
  O       -2.0102182    -0.4665877    -0.2240759
  C       -0.0425170     0.1992980     0.1361180
  C       -0.7556090    -0.6523520    -0.9323370
  C       -1.3382130    -0.0434820     0.9333840
  C        1.2403190    -0.3676220     0.7285870
  C        0.0785870     1.6559510    -0.2923950
  C        2.4113120    -0.4074660    -0.2524220
  H       -0.7841080    -0.2688730    -1.9587990
  H       -0.4364910    -1.7049300    -0.9420770
  H       -1.2533150    -0.8496150     1.6763590
  H       -1.8269820     0.8255510     1.3890460
  H        1.0363310    -1.3847530     1.0869340
  H        1.5166380     0.2228000     1.6126860
  H        0.3782920     2.2853470     0.5530020
  H        0.8158740     1.7811390    -1.0908580
  H       -0.8864940     2.0141160    -0.6640870
  H        2.1439640    -0.9639070    -1.1568140
  H        2.7223560     0.5959580    -0.5532190
  H        3.2771150    -0.9015380     0.1976500
units angstrom
no_reorient  #important for SAPT in psi4, default
symmetry c1  #important for SAPT in psi4, default
}

set PROPERTIES_ORIGIN ["COM"]
properties('MP2/aug-cc-pvtz', properties = ['dipole'])
--------------------------------------------------------------------------

    Molecular point group: c1
  Charge       = 0
  Multiplicity = 1
  Basis Set: AUG-CC-PVTZ
    Blend: AUG-CC-PVTZ
  Basis Set: (AUG-CC-PVTZ AUX)
    Blend: AUG-CC-PVTZ-JKFIT

    Orbital Energies [Eh]
    ---------------------

    Doubly Occupied:

       1A    -20.545878     2A    -11.275141     3A    -11.267751
       4A    -11.235970     5A    -11.225773     6A    -11.219831
       7A    -11.217853     8A     -1.386541     9A     -1.093733
      10A     -0.995461    11A     -0.933371    12A     -0.915132
      13A     -0.844683    14A     -0.733473    15A     -0.672702
      16A     -0.656379    17A     -0.628378    18A     -0.602189
      19A     -0.580253    20A     -0.557780    21A     -0.541158
      22A     -0.531349    23A     -0.529049    24A     -0.505212
      25A     -0.469986    26A     -0.439743    27A     -0.432714
      28A     -0.407902

  @DF-RHF Final Energy:  -309.12622986204570

   => Energetics <=

    Nuclear Repulsion Energy =            331.4002532787859536
    One-Electron Energy =               -1076.1621957021582148
    Two-Electron Energy =                 435.6357125613265566
    Total Energy =                       -309.1262298620457045
  Basis Set: (AUG-CC-PVTZ AUX)
    Blend: AUG-CC-PVTZ-RI
    Molecular point group: c1

    Geometry (in Angstrom), charge = 0, multiplicity = 1:

       Center              X                  Y                   Z               Mass
    ------------   -----------------  -----------------  -----------------  -----------------
         O           -1.947562968486    -0.454729332136    -0.228253594390    15.994914619570
         C            0.020138231514     0.211156367864     0.131940305610    12.000000000000
         C           -0.692953768486    -0.640493632136    -0.936514694390    12.000000000000
         C           -1.275557768486    -0.031623632136     0.929206305610    12.000000000000
         C            1.302974231514    -0.355763632136     0.724409305610    12.000000000000
         C            0.141242231514     1.667809367864    -0.296572694390    12.000000000000
         C            2.473967231514    -0.395607632136    -0.256599694390    12.000000000000
         H           -0.721452768486    -0.257014632136    -1.962976694390     1.007825032230
         H           -0.373835768486    -1.693071632136    -0.946254694390     1.007825032230
         H           -1.190659768486    -0.837756632136     1.672181305610     1.007825032230
         H           -1.764326768486     0.837409367864     1.384868305610     1.007825032230
         H            1.098986231514    -1.372894632136     1.082756305610     1.007825032230
         H            1.579293231514     0.234658367864     1.608508305610     1.007825032230
         H            0.440947231514     2.297205367864     0.548824305610     1.007825032230
         H            0.878529231514     1.792997367864    -1.095035694390     1.007825032230
         H           -0.823838768486     2.025974367864    -0.668264694390     1.007825032230
         H            2.206619231514    -0.952048632136    -1.160991694390     1.007825032230
         H            2.785011231514     0.607816367864    -0.557396694390     1.007825032230
         H            3.339770231514    -0.889679632136     0.193472305610     1.007825032230

  Basis Set: AUG-CC-PVTZ
    Blend: AUG-CC-PVTZ
  Basis Set: (AUG-CC-PVTZ AUX)
    Blend: AUG-CC-PVTZ-JKFIT
	 Reference Energy          =    -309.1262298620457045 [Eh]
	 Singles Energy            =      -0.0000000000000000 [Eh]
	 Same-Spin Energy          =      -0.3193265312053074 [Eh]
	 Opposite-Spin Energy      =      -1.1088997166222605 [Eh]
	 Correlation Energy        =      -1.4282262478275678 [Eh]
	 Total Energy              =    -310.5544561098732856 [Eh]

	 ================> DF-SCS-MP2 Energies <==================
	-----------------------------------------------------------
	 SCS Same-Spin Scale       =       0.3333333333333333 [-]
	 SCS Opposite-Spin Scale   =       1.2000000000000000 [-]
	 SCS Same-Spin Energy      =      -0.1064421770684358 [Eh]
	 SCS Opposite-Spin Energy  =      -1.3306796599467126 [Eh]
	 SCS Correlation Energy    =      -1.4371218370151484 [Eh]
	 SCS Total Energy          =    -310.5633516990608314 [Eh]
	-----------------------------------------------------------

  Dipole Moment: [D]
     X:     1.9875      Y:     0.3398      Z:     0.3571     Total:     2.0478

*** Psi4 exiting successfully. Buy a developer a beer!
