                               Psi4 1.3.2 release

  ==> Input File <==

--------------------------------------------------------------------------
#psi4
#
memory 32 gb

molecule  {
0 1
  O       -2.0333080    -0.4946570    -0.2594300
  C       -0.0425170     0.1992980     0.1361180
  C       -0.7803475    -0.6680419    -0.9737226
  C       -1.3382130    -0.0434820     0.9333840
  C        1.2403190    -0.3676220     0.7285870
  C        0.0785870     1.6559510    -0.2923950
  C        2.4113120    -0.4074660    -0.2524220
  H       -0.7841080    -0.2688730    -1.9587990
  H       -0.4364910    -1.7049300    -0.9420770
  H       -1.2533150    -0.8496150     1.6763590
  H       -1.8269820     0.8255510     1.3890460
  H        1.0363310    -1.3847530     1.0869340
  H        1.5166380     0.2228000     1.6126860
  H        0.3782920     2.2853470     0.5530020
  H        0.8158740     1.7811390    -1.0908580
  H       -0.8864940     2.0141160    -0.6640870
  H        2.1439640    -0.9639070    -1.1568140
  H        2.7223560     0.5959580    -0.5532190
  H        3.2771150    -0.9015380     0.1976500
units angstrom
no_reorient  #important for SAPT in psi4, default
symmetry c1  #important for SAPT in psi4, default
}

set PROPERTIES_ORIGIN ["COM"]
properties('MP2/aug-cc-pvtz', properties = ['dipole'])
--------------------------------------------------------------------------

    Molecular point group: c1
  Charge       = 0
  Multiplicity = 1
  Basis Set: AUG-CC-PVTZ
    Blend: AUG-CC-PVTZ
  Basis Set: (AUG-CC-PVTZ AUX)
    Blend: AUG-CC-PVTZ-JKFIT

    Orbital Energies [Eh]
    ---------------------

    Doubly Occupied:

       1A    -20.546329     2A    -11.272498     3A    -11.272188
       4A    -11.239301     5A    -11.226679     6A    -11.220108
       7A    -11.217849     8A     -1.367222     9A     -1.091644
      10A     -0.995098    11A     -0.931228    12A     -0.913285
      13A     -0.846182    14A     -0.732154    15A     -0.670738
      16A     -0.652302    17A     -0.624110    18A     -0.598801
      19A     -0.579865    20A     -0.556661    21A     -0.543066
      22A     -0.534058    23A     -0.527919    24A     -0.504600
      25A     -0.469845    26A     -0.436872    27A     -0.430625
      28A     -0.408872

  @DF-RHF Final Energy:  -309.12401008765841

   => Energetics <=

    Nuclear Repulsion Energy =            329.4351478126011443
    One-Electron Energy =               -1072.2981148527328514
    Two-Electron Energy =                 433.7389569524733020
    Total Energy =                       -309.1240100876584052
  Basis Set: (AUG-CC-PVTZ AUX)
    Blend: AUG-CC-PVTZ-RI
    Molecular point group: c1

    Geometry (in Angstrom), charge = 0, multiplicity = 1:

       Center              X                  Y                   Z               Mass
    ------------   -----------------  -----------------  -----------------  -----------------
         O           -1.963996866130    -0.476431838235    -0.252995989068    15.994914619570
         C            0.026794133870     0.217523161765     0.142552010932    12.000000000000
         C           -0.711036366130    -0.649816738235    -0.967288589068    12.000000000000
         C           -1.268901866130    -0.025256838235     0.939818010932    12.000000000000
         C            1.309630133870    -0.349396838235     0.735021010932    12.000000000000
         C            0.147898133870     1.674176161765    -0.285960989068    12.000000000000
         C            2.480623133870    -0.389240838235    -0.245987989068    12.000000000000
         H           -0.714796866130    -0.250647838235    -1.952364989068     1.007825032230
         H           -0.367179866130    -1.686704838235    -0.935642989068     1.007825032230
         H           -1.184003866130    -0.831389838235     1.682793010932     1.007825032230
         H           -1.757670866130     0.843776161765     1.395480010932     1.007825032230
         H            1.105642133870    -1.366527838235     1.093368010932     1.007825032230
         H            1.585949133870     0.241025161765     1.619120010932     1.007825032230
         H            0.447603133870     2.303572161765     0.559436010932     1.007825032230
         H            0.885185133870     1.799364161765    -1.084423989068     1.007825032230
         H           -0.817182866130     2.032341161765    -0.657652989068     1.007825032230
         H            2.213275133870    -0.945681838235    -1.150379989068     1.007825032230
         H            2.791667133870     0.614183161765    -0.546784989068     1.007825032230
         H            3.346426133870    -0.883312838235     0.204084010932     1.007825032230

  Basis Set: AUG-CC-PVTZ
    Blend: AUG-CC-PVTZ
  Basis Set: (AUG-CC-PVTZ AUX)
    Blend: AUG-CC-PVTZ-JKFIT
	 Reference Energy          =    -309.1240100876584052 [Eh]
	 Singles Energy            =      -0.0000000000000000 [Eh]
	 Same-Spin Energy          =      -0.3193104547937102 [Eh]
	 Opposite-Spin Energy      =      -1.1100683684193788 [Eh]
	 Correlation Energy        =      -1.4293788232130891 [Eh]
	 Total Energy              =    -310.5533889108714902 [Eh]

	 ================> DF-SCS-MP2 Energies <==================
	-----------------------------------------------------------
	 SCS Same-Spin Scale       =       0.3333333333333333 [-]
	 SCS Opposite-Spin Scale   =       1.2000000000000000 [-]
	 SCS Same-Spin Energy      =      -0.1064368182645701 [Eh]
	 SCS Opposite-Spin Energy  =      -1.3320820421032546 [Eh]
	 SCS Correlation Energy    =      -1.4385188603678247 [Eh]
	 SCS Total Energy          =    -310.5625289480262268 [Eh]
	-----------------------------------------------------------

  Dipole Moment: [D]
     X:     2.0568      Y:     0.3979      Z:     0.4504     Total:     2.1428

*** Psi4 exiting successfully. Buy a developer a beer!
