                               Psi4 1.3.2 release

  ==> Input File <==

--------------------------------------------------------------------------
#psi4
#
memory 32 gb

molecule  {
0 1
  O       -2.0931344    -0.5798798    -0.3702339
  C       -0.0425170     0.1992980     0.1361180
  C       -0.7556090    -0.6523520    -0.9323370
  C       -1.3382130    -0.0434820     0.9333840
  C        1.2403190    -0.3676220     0.7285870
  C        0.0785870     1.6559510    -0.2923950
  C        2.4113120    -0.4074660    -0.2524220
  H       -0.7841080    -0.2688730    -1.9587990
  H       -0.4364910    -1.7049300    -0.9420770
  H       -1.2533150    -0.8496150     1.6763590
  H       -1.8269820     0.8255510     1.3890460
  H        1.0363310    -1.3847530     1.0869340
  H        1.5166380     0.2228000     1.6126860
  H        0.3782920     2.2853470     0.5530020
  H        0.8158740     1.7811390    -1.0908580
  H       -0.8864940     2.0141160    -0.6640870
  H        2.1439640    -0.9639070    -1.1568140
  H        2.7223560     0.5959580    -0.5532190
  H        3.2771150    -0.9015380     0.1976500
units angstrom
no_reorient  #important for SAPT in psi4, default
symmetry c1  #important for SAPT in psi4, default
}

set PROPERTIES_ORIGIN ["COM"]
properties('MP2/aug-cc-pvtz', properties = ['dipole'])
--------------------------------------------------------------------------

    Molecular point group: c1
  Charge       = 0
  Multiplicity = 1
  Basis Set: AUG-CC-PVTZ
    Blend: AUG-CC-PVTZ
  Basis Set: (AUG-CC-PVTZ AUX)
    Blend: AUG-CC-PVTZ-JKFIT

    Orbital Energies [Eh]
    ---------------------

    Doubly Occupied:

       1A    -20.545781     2A    -11.290303     3A    -11.270232
       4A    -11.242230     5A    -11.231119     6A    -11.222390
       7A    -11.220676     8A     -1.331630     9A     -1.101336
      10A     -1.001795    11A     -0.928325    12A     -0.910209
      13A     -0.852669    14A     -0.732203    15A     -0.661402
      16A     -0.650638    17A     -0.622240    18A     -0.597202
      19A     -0.569668    20A     -0.555400    21A     -0.540496
      22A     -0.528648    23A     -0.522959    24A     -0.505830
      25A     -0.472829    26A     -0.446556    27A     -0.428153
      28A     -0.412844

  @DF-RHF Final Energy:  -309.10806008220021

   => Energetics <=

    Nuclear Repulsion Energy =            327.1866855411577149
    One-Electron Energy =               -1067.7979661237509390
    Two-Electron Energy =                 431.5032205003930699
    Total Energy =                       -309.1080600822002111
  Basis Set: (AUG-CC-PVTZ AUX)
    Blend: AUG-CC-PVTZ-RI
    Molecular point group: c1

    Geometry (in Angstrom), charge = 0, multiplicity = 1:

       Center              X                  Y                   Z               Mass
    ------------   -----------------  -----------------  -----------------  -----------------
         O           -2.017228561618    -0.549916537333    -0.351054491693    15.994914619570
         C            0.033388838382     0.229261262667     0.155297408307    12.000000000000
         C           -0.679703161618    -0.622388737333    -0.913157591693    12.000000000000
         C           -1.262307161618    -0.013518737333     0.952563408307    12.000000000000
         C            1.316224838382    -0.337658737333     0.747766408307    12.000000000000
         C            0.154492838382     1.685914262667    -0.273215591693    12.000000000000
         C            2.487217838382    -0.377502737333    -0.233242591693    12.000000000000
         H           -0.708202161618    -0.238909737333    -1.939619591693     1.007825032230
         H           -0.360585161618    -1.674966737333    -0.922897591693     1.007825032230
         H           -1.177409161618    -0.819651737333     1.695538408307     1.007825032230
         H           -1.751076161618     0.855514262667     1.408225408307     1.007825032230
         H            1.112236838382    -1.354789737333     1.106113408307     1.007825032230
         H            1.592543838382     0.252763262667     1.631865408307     1.007825032230
         H            0.454197838382     2.315310262667     0.572181408307     1.007825032230
         H            0.891779838382     1.811102262667    -1.071678591693     1.007825032230
         H           -0.810588161618     2.044079262667    -0.644907591693     1.007825032230
         H            2.219869838382    -0.933943737333    -1.137634591693     1.007825032230
         H            2.798261838382     0.625921262667    -0.534039591693     1.007825032230
         H            3.353020838382    -0.871574737333     0.216829408307     1.007825032230

  Basis Set: AUG-CC-PVTZ
    Blend: AUG-CC-PVTZ
  Basis Set: (AUG-CC-PVTZ AUX)
    Blend: AUG-CC-PVTZ-JKFIT
	 Reference Energy          =    -309.1080600822002111 [Eh]
	 Singles Energy            =      -0.0000000000000000 [Eh]
	 Same-Spin Energy          =      -0.3209741895417633 [Eh]
	 Opposite-Spin Energy      =      -1.1150593299563321 [Eh]
	 Correlation Energy        =      -1.4360335194980953 [Eh]
	 Total Energy              =    -310.5440936016983073 [Eh]

	 ================> DF-SCS-MP2 Energies <==================
	-----------------------------------------------------------
	 SCS Same-Spin Scale       =       0.3333333333333333 [-]
	 SCS Opposite-Spin Scale   =       1.2000000000000000 [-]
	 SCS Same-Spin Energy      =      -0.1069913965139211 [Eh]
	 SCS Opposite-Spin Energy  =      -1.3380711959475984 [Eh]
	 SCS Correlation Energy    =      -1.4450625924615195 [Eh]
	 SCS Total Energy          =    -310.5531226746617222 [Eh]
	-----------------------------------------------------------

  Dipole Moment: [D]
     X:     2.2810      Y:     0.6068      Z:     0.8859     Total:     2.5211

*** Psi4 exiting successfully. Buy a developer a beer!
