                               Psi4 1.3.2 release

  ==> Input File <==

--------------------------------------------------------------------------
#psi4
#
memory 32 gb

molecule  {
0 1
  O       -2.0333080    -0.4946570    -0.2594300
  C       -0.0425170     0.1992980     0.1361180
  C       -0.7528431    -0.6739896    -0.9165974
  C       -1.3382130    -0.0434820     0.9333840
  C        1.2403190    -0.3676220     0.7285870
  C        0.0785870     1.6559510    -0.2923950
  C        2.4113120    -0.4074660    -0.2524220
  H       -0.7841080    -0.2688730    -1.9587990
  H       -0.4364910    -1.7049300    -0.9420770
  H       -1.2533150    -0.8496150     1.6763590
  H       -1.8269820     0.8255510     1.3890460
  H        1.0363310    -1.3847530     1.0869340
  H        1.5166380     0.2228000     1.6126860
  H        0.3782920     2.2853470     0.5530020
  H        0.8158740     1.7811390    -1.0908580
  H       -0.8864940     2.0141160    -0.6640870
  H        2.1439640    -0.9639070    -1.1568140
  H        2.7223560     0.5959580    -0.5532190
  H        3.2771150    -0.9015380     0.1976500
units angstrom
no_reorient  #important for SAPT in psi4, default
symmetry c1  #important for SAPT in psi4, default
}

set PROPERTIES_ORIGIN ["COM"]
properties('MP2/aug-cc-pvtz', properties = ['dipole'])
--------------------------------------------------------------------------

    Molecular point group: c1
  Charge       = 0
  Multiplicity = 1
  Basis Set: AUG-CC-PVTZ
    Blend: AUG-CC-PVTZ
  Basis Set: (AUG-CC-PVTZ AUX)
    Blend: AUG-CC-PVTZ-JKFIT

    Orbital Energies [Eh]
    ---------------------

    Doubly Occupied:

       1A    -20.546632     2A    -11.273791     3A    -11.273513
       4A    -11.237358     5A    -11.226917     6A    -11.220490
       7A    -11.218724     8A     -1.371459     9A     -1.095493
      10A     -0.996708    11A     -0.927838    12A     -0.917962
      13A     -0.846742    14A     -0.733453    15A     -0.667320
      16A     -0.654557    17A     -0.626060    18A     -0.599602
      19A     -0.579714    20A     -0.557430    21A     -0.540418
      22A     -0.530390    23A     -0.526617    24A     -0.506428
      25A     -0.471083    26A     -0.437969    27A     -0.434968
      28A     -0.411577

  @DF-RHF Final Energy:  -309.12488483050726

   => Energetics <=

    Nuclear Repulsion Energy =            330.3062365937564095
    One-Electron Energy =               -1073.9998132824387085
    Two-Electron Energy =                 434.5686918581749865
    Total Energy =                       -309.1248848305072556
  Basis Set: (AUG-CC-PVTZ AUX)
    Blend: AUG-CC-PVTZ-RI
    Molecular point group: c1

    Geometry (in Angstrom), charge = 0, multiplicity = 1:

       Center              X                  Y                   Z               Mass
    ------------   -----------------  -----------------  -----------------  -----------------
         O           -1.967294465368    -0.475718747566    -0.259844930180    15.994914619570
         C            0.023496534632     0.218236252434     0.135703069820    12.000000000000
         C           -0.686829565368    -0.655051347566    -0.917012330180    12.000000000000
         C           -1.272199465368    -0.024543747566     0.932969069820    12.000000000000
         C            1.306332534632    -0.348683747566     0.728172069820    12.000000000000
         C            0.144600534632     1.674889252434    -0.292809930180    12.000000000000
         C            2.477325534632    -0.388527747566    -0.252836930180    12.000000000000
         H           -0.718094465368    -0.249934747566    -1.959213930180     1.007825032230
         H           -0.370477465368    -1.685991747566    -0.942491930180     1.007825032230
         H           -1.187301465368    -0.830676747566     1.675944069820     1.007825032230
         H           -1.760968465368     0.844489252434     1.388631069820     1.007825032230
         H            1.102344534632    -1.365814747566     1.086519069820     1.007825032230
         H            1.582651534632     0.241738252434     1.612271069820     1.007825032230
         H            0.444305534632     2.304285252434     0.552587069820     1.007825032230
         H            0.881887534632     1.800077252434    -1.091272930180     1.007825032230
         H           -0.820480465368     2.033054252434    -0.664501930180     1.007825032230
         H            2.209977534632    -0.944968747566    -1.157228930180     1.007825032230
         H            2.788369534632     0.614896252434    -0.553633930180     1.007825032230
         H            3.343128534632    -0.882599747566     0.197235069820     1.007825032230

  Basis Set: AUG-CC-PVTZ
    Blend: AUG-CC-PVTZ
  Basis Set: (AUG-CC-PVTZ AUX)
    Blend: AUG-CC-PVTZ-JKFIT
	 Reference Energy          =    -309.1248848305072556 [Eh]
	 Singles Energy            =      -0.0000000000000000 [Eh]
	 Same-Spin Energy          =      -0.3196630760201931 [Eh]
	 Opposite-Spin Energy      =      -1.1102348059765801 [Eh]
	 Correlation Energy        =      -1.4298978819967731 [Eh]
	 Total Energy              =    -310.5547827125040499 [Eh]

	 ================> DF-SCS-MP2 Energies <==================
	-----------------------------------------------------------
	 SCS Same-Spin Scale       =       0.3333333333333333 [-]
	 SCS Opposite-Spin Scale   =       1.2000000000000000 [-]
	 SCS Same-Spin Energy      =      -0.1065543586733977 [Eh]
	 SCS Opposite-Spin Energy  =      -1.3322817671718961 [Eh]
	 SCS Correlation Energy    =      -1.4388361258452937 [Eh]
	 SCS Total Energy          =    -310.5637209563525403 [Eh]
	-----------------------------------------------------------

  Dipole Moment: [D]
     X:     2.0657      Y:     0.3794      Z:     0.5280     Total:     2.1656

*** Psi4 exiting successfully. Buy a developer a beer!
