                               Psi4 1.3.2 release

  ==> Input File <==

--------------------------------------------------------------------------
#psi4
#
memory 32 gb

molecule  {
0 1
  O       -2.0333080    -0.4946570    -0.2594300
  C       -0.0425170     0.1992980     0.1361180
  C       -0.7556090    -0.6523520    -0.9323370
  C       -1.3382130    -0.0434820     0.9333840
  C        1.2403190    -0.3676220     0.7285870
  C        0.0785870     1.6559510    -0.2923950
  C        2.4113120    -0.4074660    -0.2524220
  H       -0.7867080    -0.2338881    -2.0524435
  H       -0.4364910    -1.7049300    -0.9420770
  H       -1.2533150    -0.8496150     1.6763590
  H       -1.8269820     0.8255510     1.3890460
  H        1.0363310    -1.3847530     1.0869340
  H        1.5166380     0.2228000     1.6126860
  H        0.3782920     2.2853470     0.5530020
  H        0.8158740     1.7811390    -1.0908580
  H       -0.8864940     2.0141160    -0.6640870
  H        2.1439640    -0.9639070    -1.1568140
  H        2.7223560     0.5959580    -0.5532190
  H        3.2771150    -0.9015380     0.1976500
units angstrom
no_reorient  #important for SAPT in psi4, default
symmetry c1  #important for SAPT in psi4, default
}

set PROPERTIES_ORIGIN ["COM"]
properties('MP2/aug-cc-pvtz', properties = ['dipole'])
--------------------------------------------------------------------------

    Molecular point group: c1
  Charge       = 0
  Multiplicity = 1
  Basis Set: AUG-CC-PVTZ
    Blend: AUG-CC-PVTZ
  Basis Set: (AUG-CC-PVTZ AUX)
    Blend: AUG-CC-PVTZ-JKFIT

    Orbital Energies [Eh]
    ---------------------

    Doubly Occupied:

       1A    -20.548434     2A    -11.285546     3A    -11.274454
       4A    -11.238858     5A    -11.227853     6A    -11.220662
       7A    -11.218620     8A     -1.371800     9A     -1.096083
      10A     -0.997212    11A     -0.924029    12A     -0.915485
      13A     -0.846699    14A     -0.729056    15A     -0.663106
      16A     -0.653357    17A     -0.626478    18A     -0.600059
      19A     -0.576415    20A     -0.557828    21A     -0.539368
      22A     -0.530365    23A     -0.522958    24A     -0.506275
      25A     -0.471342    26A     -0.438079    27A     -0.435992
      28A     -0.409989

  @DF-RHF Final Energy:  -309.11893182701772

   => Energetics <=

    Nuclear Repulsion Energy =            329.7833579948796228
    One-Electron Energy =               -1072.9517692622873710
    Two-Electron Energy =                 434.0494794403899732
    Total Energy =                       -309.1189318270177182
  Basis Set: (AUG-CC-PVTZ AUX)
    Blend: AUG-CC-PVTZ-RI
    Molecular point group: c1

    Geometry (in Angstrom), charge = 0, multiplicity = 1:

       Center              X                  Y                   Z               Mass
    ------------   -----------------  -----------------  -----------------  -----------------
         O           -1.966936671691    -0.478665229228    -0.257014918943    15.994914619570
         C            0.023854328309     0.215289770772     0.138533081057    12.000000000000
         C           -0.689237671691    -0.636360229228    -0.929921918943    12.000000000000
         C           -1.271841671691    -0.027490229228     0.935799081057    12.000000000000
         C            1.306690328309    -0.351630229228     0.731002081057    12.000000000000
         C            0.144958328309     1.671942770772    -0.289979918943    12.000000000000
         C            2.477683328309    -0.391474229228    -0.250006918943    12.000000000000
         H           -0.720336671691    -0.217896329228    -2.050028418943     1.007825032230
         H           -0.370119671691    -1.688938229228    -0.939661918943     1.007825032230
         H           -1.186943671691    -0.833623229228     1.678774081057     1.007825032230
         H           -1.760610671691     0.841542770772     1.391461081057     1.007825032230
         H            1.102702328309    -1.368761229228     1.089349081057     1.007825032230
         H            1.583009328309     0.238791770772     1.615101081057     1.007825032230
         H            0.444663328309     2.301338770772     0.555417081057     1.007825032230
         H            0.882245328309     1.797130770772    -1.088442918943     1.007825032230
         H           -0.820122671691     2.030107770772    -0.661671918943     1.007825032230
         H            2.210335328309    -0.947915229228    -1.154398918943     1.007825032230
         H            2.788727328309     0.611949770772    -0.550803918943     1.007825032230
         H            3.343486328309    -0.885546229228     0.200065081057     1.007825032230

  Basis Set: AUG-CC-PVTZ
    Blend: AUG-CC-PVTZ
  Basis Set: (AUG-CC-PVTZ AUX)
    Blend: AUG-CC-PVTZ-JKFIT
	 Reference Energy          =    -309.1189318270177182 [Eh]
	 Singles Energy            =      -0.0000000000000000 [Eh]
	 Same-Spin Energy          =      -0.3197945154908048 [Eh]
	 Opposite-Spin Energy      =      -1.1111024137469652 [Eh]
	 Correlation Energy        =      -1.4308969292377700 [Eh]
	 Total Energy              =    -310.5498287562554651 [Eh]

	 ================> DF-SCS-MP2 Energies <==================
	-----------------------------------------------------------
	 SCS Same-Spin Scale       =       0.3333333333333333 [-]
	 SCS Opposite-Spin Scale   =       1.2000000000000000 [-]
	 SCS Same-Spin Energy      =      -0.1065981718302683 [Eh]
	 SCS Opposite-Spin Energy  =      -1.3333228964963582 [Eh]
	 SCS Correlation Energy    =      -1.4399210683266264 [Eh]
	 SCS Total Energy          =    -310.5588528953443301 [Eh]
	-----------------------------------------------------------

  Dipole Moment: [D]
     X:     2.0600      Y:     0.3999      Z:     0.5928     Total:     2.1806

*** Psi4 exiting successfully. Buy a developer a beer!
