                               Psi4 1.3.2 release

  ==> Input File <==

--------------------------------------------------------------------------
#psi4
#
memory 32 gb

molecule  {
0 1
  O       -2.0333080    -0.4946570    -0.2594300
  C       -0.0429479     0.2177144     0.1552691
  C       -0.7556090    -0.6523520    -0.9323370
  C       -1.3382130    -0.0434820     0.9333840
  C        1.2403190    -0.3676220     0.7285870
  C        0.0785870     1.6559510    -0.2923950
  C        2.4113120    -0.4074660    -0.2524220
  H       -0.7841080    -0.2688730    -1.9587990
  H       -0.4364910    -1.7049300    -0.9420770
  H       -1.2533150    -0.8496150     1.6763590
  H       -1.8269820     0.8255510     1.3890460
  H        1.0363310    -1.3847530     1.0869340
  H        1.5166380     0.2228000     1.6126860
  H        0.3782920     2.2853470     0.5530020
  H        0.8158740     1.7811390    -1.0908580
  H       -0.8864940     2.0141160    -0.6640870
  H        2.1439640    -0.9639070    -1.1568140
  H        2.7223560     0.5959580    -0.5532190
  H        3.2771150    -0.9015380     0.1976500
units angstrom
no_reorient  #important for SAPT in psi4, default
symmetry c1  #important for SAPT in psi4, default
}

set PROPERTIES_ORIGIN ["COM"]
properties('MP2/aug-cc-pvtz', properties = ['dipole'])
--------------------------------------------------------------------------

    Molecular point group: c1
  Charge       = 0
  Multiplicity = 1
  Basis Set: AUG-CC-PVTZ
    Blend: AUG-CC-PVTZ
  Basis Set: (AUG-CC-PVTZ AUX)
    Blend: AUG-CC-PVTZ-JKFIT

    Orbital Energies [Eh]
    ---------------------

    Doubly Occupied:

       1A    -20.546363     2A    -11.273997     3A    -11.273585
       4A    -11.237812     5A    -11.227161     6A    -11.220715
       7A    -11.218250     8A     -1.369509     9A     -1.095922
      10A     -0.997770    11A     -0.928233    12A     -0.915758
      13A     -0.847035    14A     -0.732109    15A     -0.668184
      16A     -0.654413    17A     -0.625670    18A     -0.600118
      19A     -0.576931    20A     -0.557737    21A     -0.541167
      22A     -0.531619    23A     -0.528410    24A     -0.505178
      25A     -0.473364    26A     -0.439292    27A     -0.430884
      28A     -0.410765

  @DF-RHF Final Energy:  -309.12502600231210

   => Energetics <=

    Nuclear Repulsion Energy =            330.1577033790315454
    One-Electron Energy =               -1073.7095545237755232
    Two-Electron Energy =                 434.4268251424318805
    Total Energy =                       -309.1250260023120973
  Basis Set: (AUG-CC-PVTZ AUX)
    Blend: AUG-CC-PVTZ-RI
    Molecular point group: c1

    Geometry (in Angstrom), charge = 0, multiplicity = 1:

       Center              X                  Y                   Z               Mass
    ------------   -----------------  -----------------  -----------------  -----------------
         O           -1.966911189774    -0.480520962479    -0.260253946912    15.994914619570
         C            0.023448910226     0.231850437521     0.154445153088    12.000000000000
         C           -0.689212189774    -0.638215962479    -0.933160946912    12.000000000000
         C           -1.271816189774    -0.029345962479     0.932560053088    12.000000000000
         C            1.306715810226    -0.353485962479     0.727763053088    12.000000000000
         C            0.144983810226     1.670087037521    -0.293218946912    12.000000000000
         C            2.477708810226    -0.393329962479    -0.253245946912    12.000000000000
         H           -0.717711189774    -0.254736962479    -1.959622946912     1.007825032230
         H           -0.370094189774    -1.690793962479    -0.942900946912     1.007825032230
         H           -1.186918189774    -0.835478962479     1.675535053088     1.007825032230
         H           -1.760585189774     0.839687037521     1.388222053088     1.007825032230
         H            1.102727810226    -1.370616962479     1.086110053088     1.007825032230
         H            1.583034810226     0.236936037521     1.611862053088     1.007825032230
         H            0.444688810226     2.299483037521     0.552178053088     1.007825032230
         H            0.882270810226     1.795275037521    -1.091681946912     1.007825032230
         H           -0.820097189774     2.028252037521    -0.664910946912     1.007825032230
         H            2.210360810226    -0.949770962479    -1.157637946912     1.007825032230
         H            2.788752810226     0.610094037521    -0.554042946912     1.007825032230
         H            3.343511810226    -0.887401962479     0.196826053088     1.007825032230

  Basis Set: AUG-CC-PVTZ
    Blend: AUG-CC-PVTZ
  Basis Set: (AUG-CC-PVTZ AUX)
    Blend: AUG-CC-PVTZ-JKFIT
	 Reference Energy          =    -309.1250260023120973 [Eh]
	 Singles Energy            =      -0.0000000000000000 [Eh]
	 Same-Spin Energy          =      -0.3196924780887501 [Eh]
	 Opposite-Spin Energy      =      -1.1103334901085757 [Eh]
	 Correlation Energy        =      -1.4300259681973260 [Eh]
	 Total Energy              =    -310.5550519705093961 [Eh]

	 ================> DF-SCS-MP2 Energies <==================
	-----------------------------------------------------------
	 SCS Same-Spin Scale       =       0.3333333333333333 [-]
	 SCS Opposite-Spin Scale   =       1.2000000000000000 [-]
	 SCS Same-Spin Energy      =      -0.1065641593629167 [Eh]
	 SCS Opposite-Spin Energy  =      -1.3324001881302909 [Eh]
	 SCS Correlation Energy    =      -1.4389643474932077 [Eh]
	 SCS Total Energy          =    -310.5639903498052945 [Eh]
	-----------------------------------------------------------

  Dipole Moment: [D]
     X:     2.0708      Y:     0.4086      Z:     0.4915     Total:     2.1672

*** Psi4 exiting successfully. Buy a developer a beer!
