                               Psi4 1.3.2 release

  ==> Input File <==

--------------------------------------------------------------------------
#psi4
#
memory 32 gb

molecule  {
0 1
  O       -2.0842447    -0.4316428    -0.3880935
  C       -0.0425170     0.1992980     0.1361180
  C       -0.7556090    -0.6523520    -0.9323370
  C       -1.3382130    -0.0434820     0.9333840
  C        1.2403190    -0.3676220     0.7285870
  C        0.0785870     1.6559510    -0.2923950
  C        2.4113120    -0.4074660    -0.2524220
  H       -0.7841080    -0.2688730    -1.9587990
  H       -0.4364910    -1.7049300    -0.9420770
  H       -1.2533150    -0.8496150     1.6763590
  H       -1.8269820     0.8255510     1.3890460
  H        1.0363310    -1.3847530     1.0869340
  H        1.5166380     0.2228000     1.6126860
  H        0.3782920     2.2853470     0.5530020
  H        0.8158740     1.7811390    -1.0908580
  H       -0.8864940     2.0141160    -0.6640870
  H        2.1439640    -0.9639070    -1.1568140
  H        2.7223560     0.5959580    -0.5532190
  H        3.2771150    -0.9015380     0.1976500
units angstrom
no_reorient  #important for SAPT in psi4, default
symmetry c1  #important for SAPT in psi4, default
}

set PROPERTIES_ORIGIN ["COM"]
properties('MP2/aug-cc-pvtz', properties = ['dipole'])
--------------------------------------------------------------------------

    Molecular point group: c1
  Charge       = 0
  Multiplicity = 1
  Basis Set: AUG-CC-PVTZ
    Blend: AUG-CC-PVTZ
  Basis Set: (AUG-CC-PVTZ AUX)
    Blend: AUG-CC-PVTZ-JKFIT

    Orbital Energies [Eh]
    ---------------------

    Doubly Occupied:

       1A    -20.548081     2A    -11.286595     3A    -11.271298
       4A    -11.240328     5A    -11.229447     6A    -11.221724
       7A    -11.218531     8A     -1.341168     9A     -1.098567
      10A     -0.999397    11A     -0.927192    12A     -0.913058
      13A     -0.850952    14A     -0.733465    15A     -0.660552
      16A     -0.651213    17A     -0.622242    18A     -0.594752
      19A     -0.579607    20A     -0.554359    21A     -0.538592
      22A     -0.529984    23A     -0.515473    24A     -0.506228
      25A     -0.471899    26A     -0.444807    27A     -0.432256
      28A     -0.413973

  @DF-RHF Final Energy:  -309.11115379666245

   => Energetics <=

    Nuclear Repulsion Energy =            328.2491621132588193
    One-Electron Energy =               -1069.9291482433909550
    Two-Electron Energy =                 432.5688323334697429
    Total Energy =                       -309.1111537966624496
  Basis Set: (AUG-CC-PVTZ AUX)
    Blend: AUG-CC-PVTZ-RI
    Molecular point group: c1

    Geometry (in Angstrom), charge = 0, multiplicity = 1:

       Center              X                  Y                   Z               Mass
    ------------   -----------------  -----------------  -----------------  -----------------
         O           -2.009759499803    -0.425368879228    -0.366059998784    15.994914619570
         C            0.031968200197     0.205571920772     0.158151501216    12.000000000000
         C           -0.681123799803    -0.646078079228    -0.910303498784    12.000000000000
         C           -1.263727799803    -0.037208079228     0.955417501216    12.000000000000
         C            1.314804200197    -0.361348079228     0.750620501216    12.000000000000
         C            0.153072200197     1.662224920772    -0.270361498784    12.000000000000
         C            2.485797200197    -0.401192079228    -0.230388498784    12.000000000000
         H           -0.709622799803    -0.262599079228    -1.936765498784     1.007825032230
         H           -0.362005799803    -1.698656079228    -0.920043498784     1.007825032230
         H           -1.178829799803    -0.843341079228     1.698392501216     1.007825032230
         H           -1.752496799803     0.831824920772     1.411079501216     1.007825032230
         H            1.110816200197    -1.378479079228     1.108967501216     1.007825032230
         H            1.591123200197     0.229073920772     1.634719501216     1.007825032230
         H            0.452777200197     2.291620920772     0.575035501216     1.007825032230
         H            0.890359200197     1.787412920772    -1.068824498784     1.007825032230
         H           -0.812008799803     2.020389920772    -0.642053498784     1.007825032230
         H            2.218449200197    -0.957633079228    -1.134780498784     1.007825032230
         H            2.796841200197     0.602231920772    -0.531185498784     1.007825032230
         H            3.351600200197    -0.895264079228     0.219683501216     1.007825032230

  Basis Set: AUG-CC-PVTZ
    Blend: AUG-CC-PVTZ
  Basis Set: (AUG-CC-PVTZ AUX)
    Blend: AUG-CC-PVTZ-JKFIT
	 Reference Energy          =    -309.1111537966624496 [Eh]
	 Singles Energy            =      -0.0000000000000000 [Eh]
	 Same-Spin Energy          =      -0.3209943890392529 [Eh]
	 Opposite-Spin Energy      =      -1.1144624157421847 [Eh]
	 Correlation Energy        =      -1.4354568047814378 [Eh]
	 Total Energy              =    -310.5466106014438878 [Eh]

	 ================> DF-SCS-MP2 Energies <==================
	-----------------------------------------------------------
	 SCS Same-Spin Scale       =       0.3333333333333333 [-]
	 SCS Opposite-Spin Scale   =       1.2000000000000000 [-]
	 SCS Same-Spin Energy      =      -0.1069981296797510 [Eh]
	 SCS Opposite-Spin Energy  =      -1.3373548988906216 [Eh]
	 SCS Correlation Energy    =      -1.4443530285703727 [Eh]
	 SCS Total Energy          =    -310.5555068252328397 [Eh]
	-----------------------------------------------------------

  Dipole Moment: [D]
     X:     2.2011      Y:     0.3440      Z:     0.8660     Total:     2.3903

*** Psi4 exiting successfully. Buy a developer a beer!
