                               Psi4 1.3.2 release

  ==> Input File <==

--------------------------------------------------------------------------
#psi4
#
memory 32 gb

molecule  {
0 1
  O       -2.0333080    -0.4946570    -0.2594300
  C       -0.0425170     0.1992980     0.1361180
  C       -0.7556090    -0.6523520    -0.9323370
  C       -1.3382130    -0.0434820     0.9333840
  C        1.2403190    -0.3676220     0.7285870
  C        0.0785870     1.6559510    -0.2923950
  C        2.4113120    -0.4074660    -0.2524220
  H       -0.7841080    -0.2688730    -1.9587990
  H       -0.4364910    -1.7049300    -0.9420770
  H       -1.3050109    -0.7784394     1.7505775
  H       -1.8269820     0.8255510     1.3890460
  H        1.0363310    -1.3847530     1.0869340
  H        1.5166380     0.2228000     1.6126860
  H        0.3782920     2.2853470     0.5530020
  H        0.8158740     1.7811390    -1.0908580
  H       -0.8864940     2.0141160    -0.6640870
  H        2.1439640    -0.9639070    -1.1568140
  H        2.7223560     0.5959580    -0.5532190
  H        3.2771150    -0.9015380     0.1976500
units angstrom
no_reorient  #important for SAPT in psi4, default
symmetry c1  #important for SAPT in psi4, default
}

set PROPERTIES_ORIGIN ["COM"]
properties('MP2/aug-cc-pvtz', properties = ['dipole'])
--------------------------------------------------------------------------

    Molecular point group: c1
  Charge       = 0
  Multiplicity = 1
  Basis Set: AUG-CC-PVTZ
    Blend: AUG-CC-PVTZ
  Basis Set: (AUG-CC-PVTZ AUX)
    Blend: AUG-CC-PVTZ-JKFIT

    Orbital Energies [Eh]
    ---------------------

    Doubly Occupied:

       1A    -20.547759     2A    -11.274108     3A    -11.273036
       4A    -11.238550     5A    -11.227049     6A    -11.220363
       7A    -11.218656     8A     -1.370591     9A     -1.095440
      10A     -0.996933    11A     -0.929244    12A     -0.916504
      13A     -0.847223    14A     -0.735458    15A     -0.665797
      16A     -0.655698    17A     -0.625720    18A     -0.599550
      19A     -0.575717    20A     -0.557048    21A     -0.540768
      22A     -0.531499    23A     -0.525374    24A     -0.505905
      25A     -0.470825    26A     -0.439977    27A     -0.436770
      28A     -0.409970

  @DF-RHF Final Energy:  -309.12434567200614

   => Energetics <=

    Nuclear Repulsion Energy =            330.1006172914765671
    One-Electron Energy =               -1073.5868625156808776
    Two-Electron Energy =                 434.3618995521982242
    Total Energy =                       -309.1243456720061431
  Basis Set: (AUG-CC-PVTZ AUX)
    Blend: AUG-CC-PVTZ-RI
    Molecular point group: c1

    Geometry (in Angstrom), charge = 0, multiplicity = 1:

       Center              X                  Y                   Z               Mass
    ------------   -----------------  -----------------  -----------------  -----------------
         O           -1.966442309989    -0.479029644507    -0.258705183068    15.994914619570
         C            0.024348690011     0.214925355493     0.136842816932    12.000000000000
         C           -0.688743309989    -0.636724644507    -0.931612183068    12.000000000000
         C           -1.271347309989    -0.027854644507     0.934108816932    12.000000000000
         C            1.307184690011    -0.351994644507     0.729311816932    12.000000000000
         C            0.145452690011     1.671578355493    -0.291670183068    12.000000000000
         C            2.478177690011    -0.391838644507    -0.251697183068    12.000000000000
         H           -0.717242309989    -0.253245644507    -1.958074183068     1.007825032230
         H           -0.369625309989    -1.689302644507    -0.941352183068     1.007825032230
         H           -1.238145209989    -0.762812044507     1.751302316932     1.007825032230
         H           -1.760116309989     0.841178355493     1.389770816932     1.007825032230
         H            1.103196690011    -1.369125644507     1.087658816932     1.007825032230
         H            1.583503690011     0.238427355493     1.613410816932     1.007825032230
         H            0.445157690011     2.300974355493     0.553726816932     1.007825032230
         H            0.882739690011     1.796766355493    -1.090133183068     1.007825032230
         H           -0.819628309989     2.029743355493    -0.663362183068     1.007825032230
         H            2.210829690011    -0.948279644507    -1.156089183068     1.007825032230
         H            2.789221690011     0.611585355493    -0.552494183068     1.007825032230
         H            3.343980690011    -0.885910644507     0.198374816932     1.007825032230

  Basis Set: AUG-CC-PVTZ
    Blend: AUG-CC-PVTZ
  Basis Set: (AUG-CC-PVTZ AUX)
    Blend: AUG-CC-PVTZ-JKFIT
	 Reference Energy          =    -309.1243456720061431 [Eh]
	 Singles Energy            =      -0.0000000000000000 [Eh]
	 Same-Spin Energy          =      -0.3195642072750946 [Eh]
	 Opposite-Spin Energy      =      -1.1101445408337054 [Eh]
	 Correlation Energy        =      -1.4297087481088000 [Eh]
	 Total Energy              =    -310.5540544201149373 [Eh]

	 ================> DF-SCS-MP2 Energies <==================
	-----------------------------------------------------------
	 SCS Same-Spin Scale       =       0.3333333333333333 [-]
	 SCS Opposite-Spin Scale   =       1.2000000000000000 [-]
	 SCS Same-Spin Energy      =      -0.1065214024250315 [Eh]
	 SCS Opposite-Spin Energy  =      -1.3321734490004464 [Eh]
	 SCS Correlation Energy    =      -1.4386948514254780 [Eh]
	 SCS Total Energy          =    -310.5630405234315958 [Eh]
	-----------------------------------------------------------

  Dipole Moment: [D]
     X:     2.0541      Y:     0.4035      Z:     0.5122     Total:     2.1551

*** Psi4 exiting successfully. Buy a developer a beer!
