                               Psi4 1.3.2 release

  ==> Input File <==

--------------------------------------------------------------------------
#psi4
#
memory 32 gb

molecule  {
0 1
  O       -2.0333080    -0.4946570    -0.2594300
  C       -0.0425170     0.1992980     0.1361180
  C       -0.7556090    -0.6523520    -0.9323370
  C       -1.3382130    -0.0434820     0.9333840
  C        1.2403190    -0.3676220     0.7285870
  C        0.0785870     1.6559510    -0.2923950
  C        2.4113120    -0.4074660    -0.2524220
  H       -0.7841080    -0.2688730    -1.9587990
  H       -0.4364910    -1.7049300    -0.9420770
  H       -1.2704714    -0.8268345     1.7020450
  H       -1.8269820     0.8255510     1.3890460
  H        1.0363310    -1.3847530     1.0869340
  H        1.5166380     0.2228000     1.6126860
  H        0.3782920     2.2853470     0.5530020
  H        0.8158740     1.7811390    -1.0908580
  H       -0.8864940     2.0141160    -0.6640870
  H        2.1439640    -0.9639070    -1.1568140
  H        2.7223560     0.5959580    -0.5532190
  H        3.2771150    -0.9015380     0.1976500
units angstrom
no_reorient  #important for SAPT in psi4, default
symmetry c1  #important for SAPT in psi4, default
}

set PROPERTIES_ORIGIN ["COM"]
properties('MP2/aug-cc-pvtz', properties = ['dipole'])
--------------------------------------------------------------------------

    Molecular point group: c1
  Charge       = 0
  Multiplicity = 1
  Basis Set: AUG-CC-PVTZ
    Blend: AUG-CC-PVTZ
  Basis Set: (AUG-CC-PVTZ AUX)
    Blend: AUG-CC-PVTZ-JKFIT

    Orbital Energies [Eh]
    ---------------------

    Doubly Occupied:

       1A    -20.546806     2A    -11.273861     3A    -11.273202
       4A    -11.237822     5A    -11.227117     6A    -11.220442
       7A    -11.218553     8A     -1.370383     9A     -1.095431
      10A     -0.996922    11A     -0.928678    12A     -0.916691
      13A     -0.846992    14A     -0.733398    15A     -0.667694
      16A     -0.654892    17A     -0.625790    18A     -0.599631
      19A     -0.576482    20A     -0.557233    21A     -0.540712
      22A     -0.531046    23A     -0.527246    24A     -0.505909
      25A     -0.470832    26A     -0.438463    27A     -0.436640
      28A     -0.410571

  @DF-RHF Final Energy:  -309.12562002729499

   => Energetics <=

    Nuclear Repulsion Energy =            330.2022001728976193
    One-Electron Energy =               -1073.7967605747026028
    Two-Electron Energy =                 434.4689403745099980
    Total Energy =                       -309.1256200272949854
  Basis Set: (AUG-CC-PVTZ AUX)
    Blend: AUG-CC-PVTZ-RI
    Molecular point group: c1

    Geometry (in Angstrom), charge = 0, multiplicity = 1:

       Center              X                  Y                   Z               Mass
    ------------   -----------------  -----------------  -----------------  -----------------
         O           -1.966790098827    -0.478542339375    -0.258216494413    15.994914619570
         C            0.024000901173     0.215412660625     0.137331505587    12.000000000000
         C           -0.689091098827    -0.636237339375    -0.931123494413    12.000000000000
         C           -1.271695098827    -0.027367339375     0.934597505587    12.000000000000
         C            1.306836901173    -0.351507339375     0.729800505587    12.000000000000
         C            0.145104901173     1.672065660625    -0.291181494413    12.000000000000
         C            2.477829901173    -0.391351339375    -0.251208494413    12.000000000000
         H           -0.717590098827    -0.252758339375    -1.957585494413     1.007825032230
         H           -0.369973098827    -1.688815339375    -0.940863494413     1.007825032230
         H           -1.203953498827    -0.810719839375     1.703258505587     1.007825032230
         H           -1.760464098827     0.841665660625     1.390259505587     1.007825032230
         H            1.102848901173    -1.368638339375     1.088147505587     1.007825032230
         H            1.583155901173     0.238914660625     1.613899505587     1.007825032230
         H            0.444809901173     2.301461660625     0.554215505587     1.007825032230
         H            0.882391901173     1.797253660625    -1.089644494413     1.007825032230
         H           -0.819976098827     2.030230660625    -0.662873494413     1.007825032230
         H            2.210481901173    -0.947792339375    -1.155600494413     1.007825032230
         H            2.788873901173     0.612072660625    -0.552005494413     1.007825032230
         H            3.343632901173    -0.885423339375     0.198863505587     1.007825032230

  Basis Set: AUG-CC-PVTZ
    Blend: AUG-CC-PVTZ
  Basis Set: (AUG-CC-PVTZ AUX)
    Blend: AUG-CC-PVTZ-JKFIT
	 Reference Energy          =    -309.1256200272949854 [Eh]
	 Singles Energy            =      -0.0000000000000000 [Eh]
	 Same-Spin Energy          =      -0.3195871494546798 [Eh]
	 Opposite-Spin Energy      =      -1.1101643683949223 [Eh]
	 Correlation Energy        =      -1.4297515178496021 [Eh]
	 Total Energy              =    -310.5553715451445669 [Eh]

	 ================> DF-SCS-MP2 Energies <==================
	-----------------------------------------------------------
	 SCS Same-Spin Scale       =       0.3333333333333333 [-]
	 SCS Opposite-Spin Scale   =       1.2000000000000000 [-]
	 SCS Same-Spin Energy      =      -0.1065290498182266 [Eh]
	 SCS Opposite-Spin Energy  =      -1.3321972420739068 [Eh]
	 SCS Correlation Energy    =      -1.4387262918921333 [Eh]
	 SCS Total Energy          =    -310.5643463191871092 [Eh]
	-----------------------------------------------------------

  Dipole Moment: [D]
     X:     2.0625      Y:     0.4046      Z:     0.5046     Total:     2.1615

*** Psi4 exiting successfully. Buy a developer a beer!
