                               Psi4 1.3.2 release

  ==> Input File <==

--------------------------------------------------------------------------
#psi4
#
memory 32 gb

molecule  {
0 1
  O       -2.0333080    -0.4946570    -0.2594300
  C       -0.0368889     0.1239626     0.0613759
  C       -0.7556090    -0.6523520    -0.9323370
  C       -1.3382130    -0.0434820     0.9333840
  C        1.2403190    -0.3676220     0.7285870
  C        0.0785870     1.6559510    -0.2923950
  C        2.4113120    -0.4074660    -0.2524220
  H       -0.7841080    -0.2688730    -1.9587990
  H       -0.4364910    -1.7049300    -0.9420770
  H       -1.2533150    -0.8496150     1.6763590
  H       -1.8269820     0.8255510     1.3890460
  H        1.0363310    -1.3847530     1.0869340
  H        1.5166380     0.2228000     1.6126860
  H        0.3782920     2.2853470     0.5530020
  H        0.8158740     1.7811390    -1.0908580
  H       -0.8864940     2.0141160    -0.6640870
  H        2.1439640    -0.9639070    -1.1568140
  H        2.7223560     0.5959580    -0.5532190
  H        3.2771150    -0.9015380     0.1976500
units angstrom
no_reorient  #important for SAPT in psi4, default
symmetry c1  #important for SAPT in psi4, default
}

set PROPERTIES_ORIGIN ["COM"]
properties('MP2/aug-cc-pvtz', properties = ['dipole'])
--------------------------------------------------------------------------

    Molecular point group: c1
  Charge       = 0
  Multiplicity = 1
  Basis Set: AUG-CC-PVTZ
    Blend: AUG-CC-PVTZ
  Basis Set: (AUG-CC-PVTZ AUX)
    Blend: AUG-CC-PVTZ-JKFIT

    Orbital Energies [Eh]
    ---------------------

    Doubly Occupied:

       1A    -20.546227     2A    -11.272957     3A    -11.272101
       4A    -11.237801     5A    -11.228128     6A    -11.219947
       7A    -11.219731     8A     -1.373330     9A     -1.095124
      10A     -0.995141    11A     -0.934992    12A     -0.915172
      13A     -0.846704    14A     -0.733283    15A     -0.671578
      16A     -0.655910    17A     -0.626288    18A     -0.598438
      19A     -0.576985    20A     -0.555746    21A     -0.539030
      22A     -0.529343    23A     -0.525828    24A     -0.508774
      25A     -0.466808    26A     -0.458999    27A     -0.426506
      28A     -0.402649

  @DF-RHF Final Energy:  -309.11525097711910

   => Energetics <=

    Nuclear Repulsion Energy =            330.5869572042474829
    One-Electron Energy =               -1074.5373821006103299
    Two-Electron Energy =                 434.8351739192437435
    Total Energy =                       -309.1152509771191035
  Basis Set: (AUG-CC-PVTZ AUX)
    Blend: AUG-CC-PVTZ-RI
    Molecular point group: c1

    Geometry (in Angstrom), charge = 0, multiplicity = 1:

       Center              X                  Y                   Z               Mass
    ------------   -----------------  -----------------  -----------------  -----------------
         O           -1.967637624591    -0.469280729492    -0.248996760982    15.994914619570
         C            0.028781475409     0.149338870508     0.071809139018    12.000000000000
         C           -0.689938624591    -0.626975729492    -0.921903760982    12.000000000000
         C           -1.272542624591    -0.018105729492     0.943817239018    12.000000000000
         C            1.305989375409    -0.342245729492     0.739020239018    12.000000000000
         C            0.144257375409     1.681327270508    -0.281961760982    12.000000000000
         C            2.476982375409    -0.382089729492    -0.241988760982    12.000000000000
         H           -0.718437624591    -0.243496729492    -1.948365760982     1.007825032230
         H           -0.370820624591    -1.679553729492    -0.931643760982     1.007825032230
         H           -1.187644624591    -0.824238729492     1.686792239018     1.007825032230
         H           -1.761311624591     0.850927270508     1.399479239018     1.007825032230
         H            1.102001375409    -1.359376729492     1.097367239018     1.007825032230
         H            1.582308375409     0.248176270508     1.623119239018     1.007825032230
         H            0.443962375409     2.310723270508     0.563435239018     1.007825032230
         H            0.881544375409     1.806515270508    -1.080424760982     1.007825032230
         H           -0.820823624591     2.039492270508    -0.653653760982     1.007825032230
         H            2.209634375409    -0.938530729492    -1.146380760982     1.007825032230
         H            2.788026375409     0.621334270508    -0.542785760982     1.007825032230
         H            3.342785375409    -0.876161729492     0.208083239018     1.007825032230

  Basis Set: AUG-CC-PVTZ
    Blend: AUG-CC-PVTZ
  Basis Set: (AUG-CC-PVTZ AUX)
    Blend: AUG-CC-PVTZ-JKFIT
	 Reference Energy          =    -309.1152509771191035 [Eh]
	 Singles Energy            =      -0.0000000000000000 [Eh]
	 Same-Spin Energy          =      -0.3199438793172760 [Eh]
	 Opposite-Spin Energy      =      -1.1108773792983970 [Eh]
	 Correlation Energy        =      -1.4308212586156730 [Eh]
	 Total Energy              =    -310.5460722357347549 [Eh]

	 ================> DF-SCS-MP2 Energies <==================
	-----------------------------------------------------------
	 SCS Same-Spin Scale       =       0.3333333333333333 [-]
	 SCS Opposite-Spin Scale   =       1.2000000000000000 [-]
	 SCS Same-Spin Energy      =      -0.1066479597724253 [Eh]
	 SCS Opposite-Spin Energy  =      -1.3330528551580765 [Eh]
	 SCS Correlation Energy    =      -1.4397008149305017 [Eh]
	 SCS Total Energy          =    -310.5549517920496214 [Eh]
	-----------------------------------------------------------

  Dipole Moment: [D]
     X:     2.0552      Y:     0.3976      Z:     0.5446     Total:     2.1630

*** Psi4 exiting successfully. Buy a developer a beer!
