                               Psi4 1.3.2 release

  ==> Input File <==

--------------------------------------------------------------------------
#psi4
#
memory 32 gb

molecule  {
0 1
  O       -1.9683726    -0.5593989    -0.1381390
  C       -0.0425170     0.1992980     0.1361180
  C       -0.7556090    -0.6523520    -0.9323370
  C       -1.3382130    -0.0434820     0.9333840
  C        1.2403190    -0.3676220     0.7285870
  C        0.0785870     1.6559510    -0.2923950
  C        2.4113120    -0.4074660    -0.2524220
  H       -0.7841080    -0.2688730    -1.9587990
  H       -0.4364910    -1.7049300    -0.9420770
  H       -1.2533150    -0.8496150     1.6763590
  H       -1.8269820     0.8255510     1.3890460
  H        1.0363310    -1.3847530     1.0869340
  H        1.5166380     0.2228000     1.6126860
  H        0.3782920     2.2853470     0.5530020
  H        0.8158740     1.7811390    -1.0908580
  H       -0.8864940     2.0141160    -0.6640870
  H        2.1439640    -0.9639070    -1.1568140
  H        2.7223560     0.5959580    -0.5532190
  H        3.2771150    -0.9015380     0.1976500
units angstrom
no_reorient  #important for SAPT in psi4, default
symmetry c1  #important for SAPT in psi4, default
}

set PROPERTIES_ORIGIN ["COM"]
properties('MP2/aug-cc-pvtz', properties = ['dipole'])
--------------------------------------------------------------------------

    Molecular point group: c1
  Charge       = 0
  Multiplicity = 1
  Basis Set: AUG-CC-PVTZ
    Blend: AUG-CC-PVTZ
  Basis Set: (AUG-CC-PVTZ AUX)
    Blend: AUG-CC-PVTZ-JKFIT

    Orbital Energies [Eh]
    ---------------------

    Doubly Occupied:

       1A    -20.543123     2A    -11.276907     3A    -11.261001
       4A    -11.234874     5A    -11.225136     6A    -11.219325
       7A    -11.218421     8A     -1.406716     9A     -1.093303
      10A     -0.995358    11A     -0.940306    12A     -0.911781
      13A     -0.842526    14A     -0.733161    15A     -0.680746
      16A     -0.659192    17A     -0.634410    18A     -0.607401
      19A     -0.574584    20A     -0.562551    21A     -0.546419
      22A     -0.536357    23A     -0.527433    24A     -0.504179
      25A     -0.469147    26A     -0.441608    27A     -0.424898
      28A     -0.402651

  @DF-RHF Final Energy:  -309.12060695297208

   => Energetics <=

    Nuclear Repulsion Energy =            332.4813831125773049
    One-Electron Energy =               -1078.2569556226856093
    Two-Electron Energy =                 436.6549655571362223
    Total Energy =                       -309.1206069529720821
  Basis Set: (AUG-CC-PVTZ AUX)
    Blend: AUG-CC-PVTZ-RI
    Molecular point group: c1

    Geometry (in Angstrom), charge = 0, multiplicity = 1:

       Center              X                  Y                   Z               Mass
    ------------   -----------------  -----------------  -----------------  -----------------
         O           -1.912404597216    -0.532708632891    -0.156050030908    15.994914619570
         C            0.013451002784     0.225988267109     0.118206969092    12.000000000000
         C           -0.699640997216    -0.625661732891    -0.950248030908    12.000000000000
         C           -1.282244997216    -0.016791732891     0.915472969092    12.000000000000
         C            1.296287002784    -0.340931732891     0.710675969092    12.000000000000
         C            0.134555002784     1.682641267109    -0.310306030908    12.000000000000
         C            2.467280002784    -0.380775732891    -0.270333030908    12.000000000000
         H           -0.728139997216    -0.242182732891    -1.976710030908     1.007825032230
         H           -0.380522997216    -1.678239732891    -0.959988030908     1.007825032230
         H           -1.197346997216    -0.822924732891     1.658447969092     1.007825032230
         H           -1.771013997216     0.852241267109     1.371134969092     1.007825032230
         H            1.092299002784    -1.358062732891     1.069022969092     1.007825032230
         H            1.572606002784     0.249490267109     1.594774969092     1.007825032230
         H            0.434260002784     2.312037267109     0.535090969092     1.007825032230
         H            0.871842002784     1.807829267109    -1.108769030908     1.007825032230
         H           -0.830525997216     2.040806267109    -0.681998030908     1.007825032230
         H            2.199932002784    -0.937216732891    -1.174725030908     1.007825032230
         H            2.778324002784     0.622648267109    -0.571130030908     1.007825032230
         H            3.333083002784    -0.874847732891     0.179738969092     1.007825032230

  Basis Set: AUG-CC-PVTZ
    Blend: AUG-CC-PVTZ
  Basis Set: (AUG-CC-PVTZ AUX)
    Blend: AUG-CC-PVTZ-JKFIT
	 Reference Energy          =    -309.1206069529720821 [Eh]
	 Singles Energy            =      -0.0000000000000000 [Eh]
	 Same-Spin Energy          =      -0.3188803016168348 [Eh]
	 Opposite-Spin Energy      =      -1.1072748749099617 [Eh]
	 Correlation Energy        =      -1.4261551765267964 [Eh]
	 Total Energy              =    -310.5467621294988589 [Eh]

	 ================> DF-SCS-MP2 Energies <==================
	-----------------------------------------------------------
	 SCS Same-Spin Scale       =       0.3333333333333333 [-]
	 SCS Opposite-Spin Scale   =       1.2000000000000000 [-]
	 SCS Same-Spin Energy      =      -0.1062934338722783 [Eh]
	 SCS Opposite-Spin Energy  =      -1.3287298498919540 [Eh]
	 SCS Correlation Energy    =      -1.4350232837642323 [Eh]
	 SCS Total Energy          =    -310.5556302367363060 [Eh]
	-----------------------------------------------------------

  Dipole Moment: [D]
     X:     1.9094      Y:     0.4565      Z:     0.1063     Total:     1.9661

*** Psi4 exiting successfully. Buy a developer a beer!
