                               Psi4 1.4a3.dev225

  ==> Input File <==

--------------------------------------------------------------------------
#psi4
#
memory 32 gb

molecule  {
0 1
  O       -2.0333080    -0.4946570    -0.2594300
  C       -0.0425170     0.1992980     0.1361180
  C       -0.7556090    -0.6523520    -0.9323370
  C       -1.3382130    -0.0434820     0.9333840
  C        1.2403190    -0.3676220     0.7285870
  C        0.0785870     1.6559510    -0.2923950
  C        2.4113120    -0.4074660    -0.2524220
  H       -0.7835880    -0.2758700    -1.9400701
  H       -0.4364910    -1.7049300    -0.9420770
  H       -1.2533150    -0.8496150     1.6763590
  H       -1.8269820     0.8255510     1.3890460
  H        1.0363310    -1.3847530     1.0869340
  H        1.5166380     0.2228000     1.6126860
  H        0.3782920     2.2853470     0.5530020
  H        0.8158740     1.7811390    -1.0908580
  H       -0.8864940     2.0141160    -0.6640870
  H        2.1439640    -0.9639070    -1.1568140
  H        2.7223560     0.5959580    -0.5532190
  H        3.2771150    -0.9015380     0.1976500
units angstrom
no_reorient  #important for SAPT in psi4, default
symmetry c1  #important for SAPT in psi4, default
}

set PROPERTIES_ORIGIN ["COM"]
properties('MP2/aug-cc-pvtz', properties = ['dipole'])
--------------------------------------------------------------------------

    Molecular point group: c1
  Charge       = 0
  Multiplicity = 1
  Basis Set: AUG-CC-PVTZ
    Blend: AUG-CC-PVTZ
  Basis Set: (AUG-CC-PVTZ AUX)
    Blend: AUG-CC-PVTZ-JKFIT

    Orbital Energies [Eh]
    ---------------------

    Doubly Occupied:

       1A    -20.545954     2A    -11.273080     3A    -11.271305
       4A    -11.237244     5A    -11.227032     6A    -11.220456
       7A    -11.218477     8A     -1.370048     9A     -1.095339
      10A     -0.996887    11A     -0.929861    12A     -0.916942
      13A     -0.846976    14A     -0.733361    15A     -0.670158
      16A     -0.654572    17A     -0.625721    18A     -0.599631
      19A     -0.576898    20A     -0.557226    21A     -0.541121
      22A     -0.531393    23A     -0.528350    24A     -0.505842
      25A     -0.470756    26A     -0.438122    27A     -0.436285
      28A     -0.410722

  @DF-RHF Final Energy:  -309.12589748959039

   => Energetics <=

    Nuclear Repulsion Energy =            330.3576787984163161
    One-Electron Energy =               -1074.1076328499368628
    Two-Electron Energy =                 434.6240565619301037
    Total Energy =                       -309.1258974895903862
  Basis Set: (AUG-CC-PVTZ AUX)
    Blend: AUG-CC-PVTZ-RI
    Molecular point group: c1

    Geometry (in Angstrom), charge = 0, multiplicity = 1:

       Center              X                  Y                   Z               Mass
    ------------   -----------------  -----------------  -----------------  -----------------
         O           -1.966968087930    -0.478242500577    -0.258146441236    15.994914619570
         C            0.023822912070     0.215712499423     0.137401558764    12.000000000000
         C           -0.689269087930    -0.635937500577    -0.931053441236    12.000000000000
         C           -1.271873087930    -0.027067500577     0.934667558764    12.000000000000
         C            1.306658912070    -0.351207500577     0.729870558764    12.000000000000
         C            0.144926912070     1.672365499423    -0.291111441236    12.000000000000
         C            2.477651912070    -0.391051500577    -0.251138441236    12.000000000000
         H           -0.717248087930    -0.259455500577    -1.938786541236     1.007825032230
         H           -0.370151087930    -1.688515500577    -0.940793441236     1.007825032230
         H           -1.186975087930    -0.833200500577     1.677642558764     1.007825032230
         H           -1.760642087930     0.841965499423     1.390329558764     1.007825032230
         H            1.102670912070    -1.368338500577     1.088217558764     1.007825032230
         H            1.582977912070     0.239214499423     1.613969558764     1.007825032230
         H            0.444631912070     2.301761499423     0.554285558764     1.007825032230
         H            0.882213912070     1.797553499423    -1.089574441236     1.007825032230
         H           -0.820154087930     2.030530499423    -0.662803441236     1.007825032230
         H            2.210303912070    -0.947492500577    -1.155530441236     1.007825032230
         H            2.788695912070     0.612372499423    -0.551935441236     1.007825032230
         H            3.343454912070    -0.885123500577     0.198933558764     1.007825032230

  Basis Set: AUG-CC-PVTZ
    Blend: AUG-CC-PVTZ
  Basis Set: (AUG-CC-PVTZ AUX)
    Blend: AUG-CC-PVTZ-JKFIT
	 Reference Energy          =    -309.1258974895903862 [Eh]
	 Singles Energy            =      -0.0000000000000000 [Eh]
	 Same-Spin Energy          =      -0.3195908657964642 [Eh]
	 Opposite-Spin Energy      =      -1.1100557534940629 [Eh]
	 Correlation Energy        =      -1.4296466192905271 [Eh]
	 Total Energy              =    -310.5555441088808948 [Eh]

	 ================> DF-SCS-MP2 Energies <==================
	-----------------------------------------------------------
	 SCS Same-Spin Scale       =       0.3333333333333333 [-]
	 SCS Opposite-Spin Scale   =       1.2000000000000000 [-]
	 SCS Same-Spin Energy      =      -0.1065302885988214 [Eh]
	 SCS Opposite-Spin Energy  =      -1.3320669041928754 [Eh]
	 SCS Correlation Energy    =      -1.4385971927916967 [Eh]
	 SCS Total Energy          =    -310.5644946823820760 [Eh]
	-----------------------------------------------------------

  Dipole Moment: [D]
     X:     2.0675      Y:     0.4074      Z:     0.4850     Total:     2.1624

*** Psi4 exiting successfully. Buy a developer a beer!
