                               Psi4 1.3.2 release

  ==> Input File <==

--------------------------------------------------------------------------
#psi4
#
memory 32 gb

molecule  {
0 1
  O       -2.0747914    -0.5513376    -0.3325535
  C       -0.0425170     0.1992980     0.1361180
  C       -0.7556090    -0.6523520    -0.9323370
  C       -1.3382130    -0.0434820     0.9333840
  C        1.2403190    -0.3676220     0.7285870
  C        0.0785870     1.6559510    -0.2923950
  C        2.4113120    -0.4074660    -0.2524220
  H       -0.7841080    -0.2688730    -1.9587990
  H       -0.4364910    -1.7049300    -0.9420770
  H       -1.2533150    -0.8496150     1.6763590
  H       -1.8269820     0.8255510     1.3890460
  H        1.0363310    -1.3847530     1.0869340
  H        1.5166380     0.2228000     1.6126860
  H        0.3782920     2.2853470     0.5530020
  H        0.8158740     1.7811390    -1.0908580
  H       -0.8864940     2.0141160    -0.6640870
  H        2.1439640    -0.9639070    -1.1568140
  H        2.7223560     0.5959580    -0.5532190
  H        3.2771150    -0.9015380     0.1976500
units angstrom
no_reorient  #important for SAPT in psi4, default
symmetry c1  #important for SAPT in psi4, default
}

set PROPERTIES_ORIGIN ["COM"]
properties('MP2/aug-cc-pvtz', properties = ['dipole'])
--------------------------------------------------------------------------

    Molecular point group: c1
  Charge       = 0
  Multiplicity = 1
  Basis Set: AUG-CC-PVTZ
    Blend: AUG-CC-PVTZ
  Basis Set: (AUG-CC-PVTZ AUX)
    Blend: AUG-CC-PVTZ-JKFIT

    Orbital Energies [Eh]
    ---------------------

    Doubly Occupied:

       1A    -20.546295     2A    -11.284591     3A    -11.271306
       4A    -11.240617     5A    -11.229818     6A    -11.221761
       7A    -11.219909     8A     -1.343037     9A     -1.099271
      10A     -1.000124    11A     -0.926480    12A     -0.913781
      13A     -0.850881    14A     -0.731904    15A     -0.663237
      16A     -0.651604    17A     -0.623038    18A     -0.597431
      19A     -0.571002    20A     -0.556129    21A     -0.540302
      22A     -0.529171    23A     -0.525077    24A     -0.506325
      25A     -0.472229    26A     -0.443672    27A     -0.431942
      28A     -0.412949

  @DF-RHF Final Energy:  -309.11606594093900

   => Energetics <=

    Nuclear Repulsion Energy =            328.1533176232803157
    One-Electron Energy =               -1069.7310033857606868
    Two-Electron Energy =                 432.4616198215413192
    Total Energy =                       -309.1160659409389950
  Basis Set: (AUG-CC-PVTZ AUX)
    Blend: AUG-CC-PVTZ-RI
    Molecular point group: c1

    Geometry (in Angstrom), charge = 0, multiplicity = 1:

       Center              X                  Y                   Z               Mass
    ------------   -----------------  -----------------  -----------------  -----------------
         O           -2.001816905333    -0.525935586780    -0.319395691417    15.994914619570
         C            0.030457494667     0.224700013220     0.149275808583    12.000000000000
         C           -0.682634505333    -0.626949986780    -0.919179191417    12.000000000000
         C           -1.265238505333    -0.018079986780     0.946541808583    12.000000000000
         C            1.313293494667    -0.342219986780     0.741744808583    12.000000000000
         C            0.151561494667     1.681353013220    -0.279237191417    12.000000000000
         C            2.484286494667    -0.382063986780    -0.239264191417    12.000000000000
         H           -0.711133505333    -0.243470986780    -1.945641191417     1.007825032230
         H           -0.363516505333    -1.679527986780    -0.928919191417     1.007825032230
         H           -1.180340505333    -0.824212986780     1.689516808583     1.007825032230
         H           -1.754007505333     0.850953013220     1.402203808583     1.007825032230
         H            1.109305494667    -1.359350986780     1.100091808583     1.007825032230
         H            1.589612494667     0.248202013220     1.625843808583     1.007825032230
         H            0.451266494667     2.310749013220     0.566159808583     1.007825032230
         H            0.888848494667     1.806541013220    -1.077700191417     1.007825032230
         H           -0.813519505333     2.039518013220    -0.650929191417     1.007825032230
         H            2.216938494667    -0.938504986780    -1.143656191417     1.007825032230
         H            2.795330494667     0.621360013220    -0.540061191417     1.007825032230
         H            3.350089494667    -0.876135986780     0.210807808583     1.007825032230

  Basis Set: AUG-CC-PVTZ
    Blend: AUG-CC-PVTZ
  Basis Set: (AUG-CC-PVTZ AUX)
    Blend: AUG-CC-PVTZ-JKFIT
	 Reference Energy          =    -309.1160659409389950 [Eh]
	 Singles Energy            =      -0.0000000000000000 [Eh]
	 Same-Spin Energy          =      -0.3204617084232414 [Eh]
	 Opposite-Spin Energy      =      -1.1133174634366956 [Eh]
	 Correlation Energy        =      -1.4337791718599369 [Eh]
	 Total Energy              =    -310.5498451127989483 [Eh]

	 ================> DF-SCS-MP2 Energies <==================
	-----------------------------------------------------------
	 SCS Same-Spin Scale       =       0.3333333333333333 [-]
	 SCS Opposite-Spin Scale   =       1.2000000000000000 [-]
	 SCS Same-Spin Energy      =      -0.1068205694744138 [Eh]
	 SCS Opposite-Spin Energy  =      -1.3359809561240346 [Eh]
	 SCS Correlation Energy    =      -1.4428015255984483 [Eh]
	 SCS Total Energy          =    -310.5588674665374356 [Eh]
	-----------------------------------------------------------

  Dipole Moment: [D]
     X:     2.2127      Y:     0.5405      Z:     0.7645     Total:     2.4026

*** Psi4 exiting successfully. Buy a developer a beer!
