                               Psi4 1.3.2 release

  ==> Input File <==

--------------------------------------------------------------------------
#psi4
#
memory 32 gb

molecule  {
0 1
  O       -2.0333080    -0.4946570    -0.2594300
  C       -0.0425170     0.1992980     0.1361180
  C       -0.6908446    -0.6042071    -0.8034678
  C       -1.3382130    -0.0434820     0.9333840
  C        1.2403190    -0.3676220     0.7285870
  C        0.0785870     1.6559510    -0.2923950
  C        2.4113120    -0.4074660    -0.2524220
  H       -0.7841080    -0.2688730    -1.9587990
  H       -0.4364910    -1.7049300    -0.9420770
  H       -1.2533150    -0.8496150     1.6763590
  H       -1.8269820     0.8255510     1.3890460
  H        1.0363310    -1.3847530     1.0869340
  H        1.5166380     0.2228000     1.6126860
  H        0.3782920     2.2853470     0.5530020
  H        0.8158740     1.7811390    -1.0908580
  H       -0.8864940     2.0141160    -0.6640870
  H        2.1439640    -0.9639070    -1.1568140
  H        2.7223560     0.5959580    -0.5532190
  H        3.2771150    -0.9015380     0.1976500
units angstrom
no_reorient  #important for SAPT in psi4, default
symmetry c1  #important for SAPT in psi4, default
}

set PROPERTIES_ORIGIN ["COM"]
properties('MP2/aug-cc-pvtz', properties = ['dipole'])
--------------------------------------------------------------------------

    Molecular point group: c1
  Charge       = 0
  Multiplicity = 1
  Basis Set: AUG-CC-PVTZ
    Blend: AUG-CC-PVTZ
  Basis Set: (AUG-CC-PVTZ AUX)
    Blend: AUG-CC-PVTZ-JKFIT

    Orbital Energies [Eh]
    ---------------------

    Doubly Occupied:

       1A    -20.546922     2A    -11.282201     3A    -11.278597
       4A    -11.231208     5A    -11.229463     6A    -11.221700
       7A    -11.221233     8A     -1.382201     9A     -1.112843
      10A     -1.004440    11A     -0.930643    12A     -0.921198
      13A     -0.850753    14A     -0.731963    15A     -0.666962
      16A     -0.661849    17A     -0.633644    18A     -0.603197
      19A     -0.570318    20A     -0.558717    21A     -0.540517
      22A     -0.533048    23A     -0.513614    24A     -0.510496
      25A     -0.475810    26A     -0.459212    27A     -0.433662
      28A     -0.398374

  @DF-RHF Final Energy:  -309.09646753216208

   => Energetics <=

    Nuclear Repulsion Energy =            332.8877421394225280
    One-Electron Energy =               -1078.9588475482469221
    Two-Electron Energy =                 436.9746378766623707
    Total Energy =                       -309.0964675321620803
  Basis Set: (AUG-CC-PVTZ AUX)
    Blend: AUG-CC-PVTZ-RI
    Molecular point group: c1

    Geometry (in Angstrom), charge = 0, multiplicity = 1:

       Center              X                  Y                   Z               Mass
    ------------   -----------------  -----------------  -----------------  -----------------
         O           -1.974727683554    -0.484085216886    -0.273408435752    15.994914619570
         C            0.016063316446     0.209869783114     0.122139564248    12.000000000000
         C           -0.632264283554    -0.593635316886    -0.817446235752    12.000000000000
         C           -1.279632683554    -0.032910216886     0.919405564248    12.000000000000
         C            1.298899316446    -0.357050216886     0.714608564248    12.000000000000
         C            0.137167316446     1.666522783114    -0.306373435752    12.000000000000
         C            2.469892316446    -0.396894216886    -0.266400435752    12.000000000000
         H           -0.725527683554    -0.258301216886    -1.972777435752     1.007825032230
         H           -0.377910683554    -1.694358216886    -0.956055435752     1.007825032230
         H           -1.194734683554    -0.839043216886     1.662380564248     1.007825032230
         H           -1.768401683554     0.836122783114     1.375067564248     1.007825032230
         H            1.094911316446    -1.374181216886     1.072955564248     1.007825032230
         H            1.575218316446     0.233371783114     1.598707564248     1.007825032230
         H            0.436872316446     2.295918783114     0.539023564248     1.007825032230
         H            0.874454316446     1.791710783114    -1.104836435752     1.007825032230
         H           -0.827913683554     2.024687783114    -0.678065435752     1.007825032230
         H            2.202544316446    -0.953335216886    -1.170792435752     1.007825032230
         H            2.780936316446     0.606529783114    -0.567197435752     1.007825032230
         H            3.335695316446    -0.890966216886     0.183671564248     1.007825032230

  Basis Set: AUG-CC-PVTZ
    Blend: AUG-CC-PVTZ
  Basis Set: (AUG-CC-PVTZ AUX)
    Blend: AUG-CC-PVTZ-JKFIT
	 Reference Energy          =    -309.0964675321620803 [Eh]
	 Singles Energy            =      -0.0000000000000000 [Eh]
	 Same-Spin Energy          =      -0.3220023959335283 [Eh]
	 Opposite-Spin Energy      =      -1.1130105373332881 [Eh]
	 Correlation Energy        =      -1.4350129332668164 [Eh]
	 Total Energy              =    -310.5314804654288992 [Eh]

	 ================> DF-SCS-MP2 Energies <==================
	-----------------------------------------------------------
	 SCS Same-Spin Scale       =       0.3333333333333333 [-]
	 SCS Opposite-Spin Scale   =       1.2000000000000000 [-]
	 SCS Same-Spin Energy      =      -0.1073341319778428 [Eh]
	 SCS Opposite-Spin Energy  =      -1.3356126447999457 [Eh]
	 SCS Correlation Energy    =      -1.4429467767777884 [Eh]
	 SCS Total Energy          =    -310.5394143089398540 [Eh]
	-----------------------------------------------------------

  Dipole Moment: [D]
     X:     2.0863      Y:     0.4611      Z:     0.7569     Total:     2.2668

*** Psi4 exiting successfully. Buy a developer a beer!
