                               Psi4 1.3.2 release

  ==> Input File <==

--------------------------------------------------------------------------
#psi4
#
memory 32 gb

molecule  {
0 1
  O       -2.0333080    -0.4946570    -0.2594300
  C        0.0099404     0.2124332     0.0446349
  C       -0.7556090    -0.6523520    -0.9323370
  C       -1.3382130    -0.0434820     0.9333840
  C        1.2403190    -0.3676220     0.7285870
  C        0.0785870     1.6559510    -0.2923950
  C        2.4113120    -0.4074660    -0.2524220
  H       -0.7841080    -0.2688730    -1.9587990
  H       -0.4364910    -1.7049300    -0.9420770
  H       -1.2533150    -0.8496150     1.6763590
  H       -1.8269820     0.8255510     1.3890460
  H        1.0363310    -1.3847530     1.0869340
  H        1.5166380     0.2228000     1.6126860
  H        0.3782920     2.2853470     0.5530020
  H        0.8158740     1.7811390    -1.0908580
  H       -0.8864940     2.0141160    -0.6640870
  H        2.1439640    -0.9639070    -1.1568140
  H        2.7223560     0.5959580    -0.5532190
  H        3.2771150    -0.9015380     0.1976500
units angstrom
no_reorient  #important for SAPT in psi4, default
symmetry c1  #important for SAPT in psi4, default
}

set PROPERTIES_ORIGIN ["COM"]
properties('MP2/aug-cc-pvtz', properties = ['dipole'])
--------------------------------------------------------------------------

    Molecular point group: c1
  Charge       = 0
  Multiplicity = 1
  Basis Set: AUG-CC-PVTZ
    Blend: AUG-CC-PVTZ
  Basis Set: (AUG-CC-PVTZ AUX)
    Blend: AUG-CC-PVTZ-JKFIT

    Orbital Energies [Eh]
    ---------------------

    Doubly Occupied:

       1A    -20.546522     2A    -11.275462     3A    -11.273961
       4A    -11.239450     5A    -11.227892     6A    -11.218717
       7A    -11.218083     8A     -1.367346     9A     -1.098932
      10A     -0.998997    11A     -0.929013    12A     -0.912948
      13A     -0.843981    14A     -0.732614    15A     -0.667363
      16A     -0.656675    17A     -0.626280    18A     -0.598214
      19A     -0.576661    20A     -0.561055    21A     -0.542212
      22A     -0.531370    23A     -0.526283    24A     -0.510134
      25A     -0.477085    26A     -0.448912    27A     -0.419599
      28A     -0.398477

  @DF-RHF Final Energy:  -309.11572402372423

   => Energetics <=

    Nuclear Repulsion Energy =            330.1257490735050055
    One-Electron Energy =               -1073.6344707024356921
    Two-Electron Energy =                 434.3929976052065172
    Total Energy =                       -309.1157240237242263
  Basis Set: (AUG-CC-PVTZ AUX)
    Blend: AUG-CC-PVTZ-RI
    Molecular point group: c1

    Geometry (in Angstrom), charge = 0, multiplicity = 1:

       Center              X                  Y                   Z               Mass
    ------------   -----------------  -----------------  -----------------  -----------------
         O           -1.973252154046    -0.479887780839    -0.246989623622    15.994914619570
         C            0.069996245954     0.227202419161     0.057075276378    12.000000000000
         C           -0.695553154046    -0.637582780839    -0.919896623622    12.000000000000
         C           -1.278157154046    -0.028712780839     0.945824376378    12.000000000000
         C            1.300374845954    -0.352852780839     0.741027376378    12.000000000000
         C            0.138642845954     1.670720219161    -0.279954623622    12.000000000000
         C            2.471367845954    -0.392696780839    -0.239981623622    12.000000000000
         H           -0.724052154046    -0.254103780839    -1.946358623622     1.007825032230
         H           -0.376435154046    -1.690160780839    -0.929636623622     1.007825032230
         H           -1.193259154046    -0.834845780839     1.688799376378     1.007825032230
         H           -1.766926154046     0.840320219161     1.401486376378     1.007825032230
         H            1.096386845954    -1.369983780839     1.099374376378     1.007825032230
         H            1.576693845954     0.237569219161     1.625126376378     1.007825032230
         H            0.438347845954     2.300116219161     0.565442376378     1.007825032230
         H            0.875929845954     1.795908219161    -1.078417623622     1.007825032230
         H           -0.826438154046     2.028885219161    -0.651646623622     1.007825032230
         H            2.204019845954    -0.949137780839    -1.144373623622     1.007825032230
         H            2.782411845954     0.610727219161    -0.540778623622     1.007825032230
         H            3.337170845954    -0.886768780839     0.210090376378     1.007825032230

  Basis Set: AUG-CC-PVTZ
    Blend: AUG-CC-PVTZ
  Basis Set: (AUG-CC-PVTZ AUX)
    Blend: AUG-CC-PVTZ-JKFIT
	 Reference Energy          =    -309.1157240237242263 [Eh]
	 Singles Energy            =      -0.0000000000000000 [Eh]
	 Same-Spin Energy          =      -0.3202469421470701 [Eh]
	 Opposite-Spin Energy      =      -1.1114516107082064 [Eh]
	 Correlation Energy        =      -1.4316985528552766 [Eh]
	 Total Energy              =    -310.5474225765794927 [Eh]

	 ================> DF-SCS-MP2 Energies <==================
	-----------------------------------------------------------
	 SCS Same-Spin Scale       =       0.3333333333333333 [-]
	 SCS Opposite-Spin Scale   =       1.2000000000000000 [-]
	 SCS Same-Spin Energy      =      -0.1067489807156900 [Eh]
	 SCS Opposite-Spin Energy  =      -1.3337419328498477 [Eh]
	 SCS Correlation Energy    =      -1.4404909135655377 [Eh]
	 SCS Total Energy          =    -310.5562149372897807 [Eh]
	-----------------------------------------------------------

  Dipole Moment: [D]
     X:     2.0582      Y:     0.4300      Z:     0.5368     Total:     2.1701

*** Psi4 exiting successfully. Buy a developer a beer!
