                               Psi4 1.3.2 release

  ==> Input File <==

--------------------------------------------------------------------------
#psi4
#
memory 32 gb

molecule  {
0 1
  O       -2.0333080    -0.4946570    -0.2594300
  C       -0.0425170     0.1992980     0.1361180
  C       -0.7676183    -0.5173147    -1.0197792
  C       -1.3382130    -0.0434820     0.9333840
  C        1.2403190    -0.3676220     0.7285870
  C        0.0785870     1.6559510    -0.2923950
  C        2.4113120    -0.4074660    -0.2524220
  H       -0.7841080    -0.2688730    -1.9587990
  H       -0.4364910    -1.7049300    -0.9420770
  H       -1.2533150    -0.8496150     1.6763590
  H       -1.8269820     0.8255510     1.3890460
  H        1.0363310    -1.3847530     1.0869340
  H        1.5166380     0.2228000     1.6126860
  H        0.3782920     2.2853470     0.5530020
  H        0.8158740     1.7811390    -1.0908580
  H       -0.8864940     2.0141160    -0.6640870
  H        2.1439640    -0.9639070    -1.1568140
  H        2.7223560     0.5959580    -0.5532190
  H        3.2771150    -0.9015380     0.1976500
units angstrom
no_reorient  #important for SAPT in psi4, default
symmetry c1  #important for SAPT in psi4, default
}

set PROPERTIES_ORIGIN ["COM"]
properties('MP2/aug-cc-pvtz', properties = ['dipole'])
--------------------------------------------------------------------------

    Molecular point group: c1
  Charge       = 0
  Multiplicity = 1
  Basis Set: AUG-CC-PVTZ
    Blend: AUG-CC-PVTZ
  Basis Set: (AUG-CC-PVTZ AUX)
    Blend: AUG-CC-PVTZ-JKFIT

    Orbital Energies [Eh]
    ---------------------

    Doubly Occupied:

       1A    -20.546614     2A    -11.277556     3A    -11.273032
       4A    -11.241180     5A    -11.229216     6A    -11.220578
       7A    -11.218210     8A     -1.362469     9A     -1.096573
      10A     -0.999304    11A     -0.936484    12A     -0.912275
      13A     -0.848974    14A     -0.744729    15A     -0.669451
      16A     -0.655652    17A     -0.624515    18A     -0.600593
      19A     -0.565252    20A     -0.554783    21A     -0.543911
      22A     -0.537317    23A     -0.523630    24A     -0.503336
      25A     -0.471126    26A     -0.451573    27A     -0.432570
      28A     -0.395754

  @DF-RHF Final Energy:  -309.09560517450569

   => Energetics <=

    Nuclear Repulsion Energy =            329.9476945635012157
    One-Electron Energy =               -1073.2132907866530331
    Two-Electron Energy =                 434.1699910486460681
    Total Energy =                       -309.0956051745056925
  Basis Set: (AUG-CC-PVTZ AUX)
    Blend: AUG-CC-PVTZ-RI
    Molecular point group: c1

    Geometry (in Angstrom), charge = 0, multiplicity = 1:

       Center              X                  Y                   Z               Mass
    ------------   -----------------  -----------------  -----------------  -----------------
         O           -1.965523014682    -0.494503052285    -0.247474101333    15.994914619570
         C            0.025267985318     0.199451947715     0.148073898667    12.000000000000
         C           -0.699833314682    -0.517160752285    -1.007823301333    12.000000000000
         C           -1.270428014682    -0.043328052285     0.945339898667    12.000000000000
         C            1.308103985318    -0.367468052285     0.740542898667    12.000000000000
         C            0.146371985318     1.656104947715    -0.280439101333    12.000000000000
         C            2.479096985318    -0.407312052285    -0.240466101333    12.000000000000
         H           -0.716323014682    -0.268719052285    -1.946843101333     1.007825032230
         H           -0.368706014682    -1.704776052285    -0.930121101333     1.007825032230
         H           -1.185530014682    -0.849461052285     1.688314898667     1.007825032230
         H           -1.759197014682     0.825704947715     1.401001898667     1.007825032230
         H            1.104115985318    -1.384599052285     1.098889898667     1.007825032230
         H            1.584422985318     0.222953947715     1.624641898667     1.007825032230
         H            0.446076985318     2.285500947715     0.564957898667     1.007825032230
         H            0.883658985318     1.781292947715    -1.078902101333     1.007825032230
         H           -0.818709014682     2.014269947715    -0.652131101333     1.007825032230
         H            2.211748985318    -0.963753052285    -1.144858101333     1.007825032230
         H            2.790140985318     0.596111947715    -0.541263101333     1.007825032230
         H            3.344899985318    -0.901384052285     0.209605898667     1.007825032230

  Basis Set: AUG-CC-PVTZ
    Blend: AUG-CC-PVTZ
  Basis Set: (AUG-CC-PVTZ AUX)
    Blend: AUG-CC-PVTZ-JKFIT
	 Reference Energy          =    -309.0956051745056925 [Eh]
	 Singles Energy            =      -0.0000000000000000 [Eh]
	 Same-Spin Energy          =      -0.3200122225607298 [Eh]
	 Opposite-Spin Energy      =      -1.1119623505945242 [Eh]
	 Correlation Energy        =      -1.4319745731552540 [Eh]
	 Total Energy              =    -310.5275797476609227 [Eh]

	 ================> DF-SCS-MP2 Energies <==================
	-----------------------------------------------------------
	 SCS Same-Spin Scale       =       0.3333333333333333 [-]
	 SCS Opposite-Spin Scale   =       1.2000000000000000 [-]
	 SCS Same-Spin Energy      =      -0.1066707408535766 [Eh]
	 SCS Opposite-Spin Energy  =      -1.3343548207134290 [Eh]
	 SCS Correlation Energy    =      -1.4410255615670056 [Eh]
	 SCS Total Energy          =    -310.5366307360727092 [Eh]
	-----------------------------------------------------------

  Dipole Moment: [D]
     X:     2.0536      Y:     0.6172      Z:     0.4162     Total:     2.1843

*** Psi4 exiting successfully. Buy a developer a beer!
