                               Psi4 1.4a3.dev225

  ==> Input File <==

--------------------------------------------------------------------------
#psi4
#
memory 32 gb

molecule  {
0 1
  O       -2.0333080    -0.4946570    -0.2594300
  C       -0.0425170     0.1992980     0.1361180
  C       -0.7380177    -0.6545231    -0.9416016
  C       -1.3382130    -0.0434820     0.9333840
  C        1.2403190    -0.3676220     0.7285870
  C        0.0785870     1.6559510    -0.2923950
  C        2.4113120    -0.4074660    -0.2524220
  H       -0.7841080    -0.2688730    -1.9587990
  H       -0.4364910    -1.7049300    -0.9420770
  H       -1.2533150    -0.8496150     1.6763590
  H       -1.8269820     0.8255510     1.3890460
  H        1.0363310    -1.3847530     1.0869340
  H        1.5166380     0.2228000     1.6126860
  H        0.3782920     2.2853470     0.5530020
  H        0.8158740     1.7811390    -1.0908580
  H       -0.8864940     2.0141160    -0.6640870
  H        2.1439640    -0.9639070    -1.1568140
  H        2.7223560     0.5959580    -0.5532190
  H        3.2771150    -0.9015380     0.1976500
units angstrom
no_reorient  #important for SAPT in psi4, default
symmetry c1  #important for SAPT in psi4, default
}

set PROPERTIES_ORIGIN ["COM"]
properties('MP2/aug-cc-pvtz', properties = ['dipole'])
--------------------------------------------------------------------------

    Molecular point group: c1
  Charge       = 0
  Multiplicity = 1
  Basis Set: AUG-CC-PVTZ
    Blend: AUG-CC-PVTZ
  Basis Set: (AUG-CC-PVTZ AUX)
    Blend: AUG-CC-PVTZ-JKFIT

    Orbital Energies [Eh]
    ---------------------

    Doubly Occupied:

       1A    -20.544792     2A    -11.273631     3A    -11.272206
       4A    -11.238073     5A    -11.227129     6A    -11.220696
       7A    -11.218573     8A     -1.363419     9A     -1.095450
      10A     -0.996844    11A     -0.928459    12A     -0.916995
      13A     -0.846815    14A     -0.733254    15A     -0.668129
      16A     -0.653190    17A     -0.624579    18A     -0.599006
      19A     -0.577107    20A     -0.555344    21A     -0.540875
      22A     -0.529531    23A     -0.528577    24A     -0.505940
      25A     -0.470820    26A     -0.439963    27A     -0.434890
      28A     -0.410932

  @DF-RHF Final Energy:  -309.12501880717053

   => Energetics <=

    Nuclear Repulsion Energy =            330.0548122522691301
    One-Electron Energy =               -1073.5292217069684284
    Two-Electron Energy =                 434.3493906475287645
    Total Energy =                       -309.1250188071705338
  Basis Set: (AUG-CC-PVTZ AUX)
    Blend: AUG-CC-PVTZ-RI
    Molecular point group: c1

    Geometry (in Angstrom), charge = 0, multiplicity = 1:

       Center              X                  Y                   Z               Mass
    ------------   -----------------  -----------------  -----------------  -----------------
         O           -1.969071934708    -0.478052654707    -0.256847088713    15.994914619570
         C            0.021719065292     0.215902345293     0.138700911287    12.000000000000
         C           -0.673781634708    -0.637918754707    -0.939018688713    12.000000000000
         C           -1.273976934708    -0.026877654707     0.935966911287    12.000000000000
         C            1.304555065292    -0.351017654707     0.731169911287    12.000000000000
         C            0.142823065292     1.672555345293    -0.289812088713    12.000000000000
         C            2.475548065292    -0.390861654707    -0.249839088713    12.000000000000
         H           -0.719871934708    -0.252268654707    -1.956216088713     1.007825032230
         H           -0.372254934708    -1.688325654707    -0.939494088713     1.007825032230
         H           -1.189078934708    -0.833010654707     1.678941911287     1.007825032230
         H           -1.762745934708     0.842155345293     1.391628911287     1.007825032230
         H            1.100567065292    -1.368148654707     1.089516911287     1.007825032230
         H            1.580874065292     0.239404345293     1.615268911287     1.007825032230
         H            0.442528065292     2.301951345293     0.555584911287     1.007825032230
         H            0.880110065292     1.797743345293    -1.088275088713     1.007825032230
         H           -0.822257934708     2.030720345293    -0.661504088713     1.007825032230
         H            2.208200065292    -0.947302654707    -1.154231088713     1.007825032230
         H            2.786592065292     0.612562345293    -0.550636088713     1.007825032230
         H            3.341351065292    -0.884933654707     0.200232911287     1.007825032230

  Basis Set: AUG-CC-PVTZ
    Blend: AUG-CC-PVTZ
  Basis Set: (AUG-CC-PVTZ AUX)
    Blend: AUG-CC-PVTZ-JKFIT
	 Reference Energy          =    -309.1250188071705338 [Eh]
	 Singles Energy            =      -0.0000000000000000 [Eh]
	 Same-Spin Energy          =      -0.3196820336355076 [Eh]
	 Opposite-Spin Energy      =      -1.1106250328526173 [Eh]
	 Correlation Energy        =      -1.4303070664881248 [Eh]
	 Total Energy              =    -310.5553258736586599 [Eh]

	 ================> DF-SCS-MP2 Energies <==================
	-----------------------------------------------------------
	 SCS Same-Spin Scale       =       0.3333333333333333 [-]
	 SCS Opposite-Spin Scale   =       1.2000000000000000 [-]
	 SCS Same-Spin Energy      =      -0.1065606778785025 [Eh]
	 SCS Opposite-Spin Energy  =      -1.3327500394231406 [Eh]
	 SCS Correlation Energy    =      -1.4393107173016431 [Eh]
	 SCS Total Energy          =    -310.5643295244721571 [Eh]
	-----------------------------------------------------------

  Dipole Moment: [D]
     X:     2.1063      Y:     0.3952      Z:     0.4637     Total:     2.1926

*** Psi4 exiting successfully. Buy a developer a beer!
