                               Psi4 1.3.2 release

  ==> Input File <==

--------------------------------------------------------------------------
#psi4
#
memory 32 gb

molecule  {
0 1
  O       -2.0333080    -0.4946570    -0.2594300
  C       -0.0425170     0.1992980     0.1361180
  C       -0.7556090    -0.6523520    -0.9323370
  C       -1.3382130    -0.0434820     0.9333840
  C        1.4088331    -0.4420930     0.8064141
  C        0.0785870     1.6559510    -0.2923950
  C        2.4113120    -0.4074660    -0.2524220
  H       -0.7841080    -0.2688730    -1.9587990
  H       -0.4364910    -1.7049300    -0.9420770
  H       -1.2533150    -0.8496150     1.6763590
  H       -1.8269820     0.8255510     1.3890460
  H        1.0363310    -1.3847530     1.0869340
  H        1.5166380     0.2228000     1.6126860
  H        0.3782920     2.2853470     0.5530020
  H        0.8158740     1.7811390    -1.0908580
  H       -0.8864940     2.0141160    -0.6640870
  H        2.1439640    -0.9639070    -1.1568140
  H        2.7223560     0.5959580    -0.5532190
  H        3.2771150    -0.9015380     0.1976500
units angstrom
no_reorient  #important for SAPT in psi4, default
symmetry c1  #important for SAPT in psi4, default
}

set PROPERTIES_ORIGIN ["COM"]
properties('MP2/aug-cc-pvtz', properties = ['dipole'])
--------------------------------------------------------------------------

    Molecular point group: c1
  Charge       = 0
  Multiplicity = 1
  Basis Set: AUG-CC-PVTZ
    Blend: AUG-CC-PVTZ
  Basis Set: (AUG-CC-PVTZ AUX)
    Blend: AUG-CC-PVTZ-JKFIT

    Orbital Energies [Eh]
    ---------------------

    Doubly Occupied:

       1A    -20.545418     2A    -11.272608     3A    -11.271982
       4A    -11.241112     5A    -11.227615     6A    -11.218865
       7A    -11.217554     8A     -1.368710     9A     -1.081888
      10A     -1.010829    11A     -0.926119    12A     -0.911390
      13A     -0.844861    14A     -0.729242    15A     -0.666791
      16A     -0.644112    17A     -0.631499    18A     -0.601896
      19A     -0.576216    20A     -0.559908    21A     -0.552061
      22A     -0.540359    23A     -0.528006    24A     -0.510978
      25A     -0.473730    26A     -0.441414    27A     -0.409220
      28A     -0.392593

  @DF-RHF Final Energy:  -309.09641038560829

   => Energetics <=

    Nuclear Repulsion Energy =            327.7153709470126159
    One-Electron Energy =               -1068.8296133952112541
    Two-Electron Energy =                 432.0178320625903439
    Total Energy =                       -309.0964103856082943
  Basis Set: (AUG-CC-PVTZ AUX)
    Blend: AUG-CC-PVTZ-RI
    Molecular point group: c1

    Geometry (in Angstrom), charge = 0, multiplicity = 1:

       Center              X                  Y                   Z               Mass
    ------------   -----------------  -----------------  -----------------  -----------------
         O           -1.987166599930    -0.469384365448    -0.267288818890    15.994914619570
         C            0.003624400070     0.224570634552     0.128259181110    12.000000000000
         C           -0.709467599930    -0.627079365448    -0.940195818890    12.000000000000
         C           -1.292071599930    -0.018209365448     0.925525181110    12.000000000000
         C            1.454974500070    -0.416820365448     0.798555281110    12.000000000000
         C            0.124728400070     1.681223634552    -0.300253818890    12.000000000000
         C            2.457453400070    -0.382193365448    -0.260280818890    12.000000000000
         H           -0.737966599930    -0.243600365448    -1.966657818890     1.007825032230
         H           -0.390349599930    -1.679657365448    -0.949935818890     1.007825032230
         H           -1.207173599930    -0.824342365448     1.668500181110     1.007825032230
         H           -1.780840599930     0.850823634552     1.381187181110     1.007825032230
         H            1.082472400070    -1.359480365448     1.079075181110     1.007825032230
         H            1.562779400070     0.248072634552     1.604827181110     1.007825032230
         H            0.424433400070     2.310619634552     0.545143181110     1.007825032230
         H            0.862015400070     1.806411634552    -1.098716818890     1.007825032230
         H           -0.840352599930     2.039388634552    -0.671945818890     1.007825032230
         H            2.190105400070    -0.938634365448    -1.164672818890     1.007825032230
         H            2.768497400070     0.621230634552    -0.561077818890     1.007825032230
         H            3.323256400070    -0.876265365448     0.189791181110     1.007825032230

  Basis Set: AUG-CC-PVTZ
    Blend: AUG-CC-PVTZ
  Basis Set: (AUG-CC-PVTZ AUX)
    Blend: AUG-CC-PVTZ-JKFIT
	 Reference Energy          =    -309.0964103856082943 [Eh]
	 Singles Energy            =      -0.0000000000000000 [Eh]
	 Same-Spin Energy          =      -0.3203201995454604 [Eh]
	 Opposite-Spin Energy      =      -1.1120042215797856 [Eh]
	 Correlation Energy        =      -1.4323244211252462 [Eh]
	 Total Energy              =    -310.5287348067335529 [Eh]

	 ================> DF-SCS-MP2 Energies <==================
	-----------------------------------------------------------
	 SCS Same-Spin Scale       =       0.3333333333333333 [-]
	 SCS Opposite-Spin Scale   =       1.2000000000000000 [-]
	 SCS Same-Spin Energy      =      -0.1067733998484868 [Eh]
	 SCS Opposite-Spin Energy  =      -1.3344050658957427 [Eh]
	 SCS Correlation Energy    =      -1.4411784657442295 [Eh]
	 SCS Total Energy          =    -310.5375888513524956 [Eh]
	-----------------------------------------------------------

  Dipole Moment: [D]
     X:     2.0976      Y:     0.4078      Z:     0.4963     Total:     2.1937

*** Psi4 exiting successfully. Buy a developer a beer!
