                               Psi4 1.3.2 release

  ==> Input File <==

--------------------------------------------------------------------------
#psi4
#
memory 32 gb

molecule  {
0 1
  O       -2.0333080    -0.4946570    -0.2594300
  C       -0.0418953     0.2718715     0.2137465
  C       -0.7556090    -0.6523520    -0.9323370
  C       -1.3382130    -0.0434820     0.9333840
  C        1.2403190    -0.3676220     0.7285870
  C        0.0785870     1.6559510    -0.2923950
  C        2.4113120    -0.4074660    -0.2524220
  H       -0.7841080    -0.2688730    -1.9587990
  H       -0.4364910    -1.7049300    -0.9420770
  H       -1.2533150    -0.8496150     1.6763590
  H       -1.8269820     0.8255510     1.3890460
  H        1.0363310    -1.3847530     1.0869340
  H        1.5166380     0.2228000     1.6126860
  H        0.3782920     2.2853470     0.5530020
  H        0.8158740     1.7811390    -1.0908580
  H       -0.8864940     2.0141160    -0.6640870
  H        2.1439640    -0.9639070    -1.1568140
  H        2.7223560     0.5959580    -0.5532190
  H        3.2771150    -0.9015380     0.1976500
units angstrom
no_reorient  #important for SAPT in psi4, default
symmetry c1  #important for SAPT in psi4, default
}

set PROPERTIES_ORIGIN ["COM"]
properties('MP2/aug-cc-pvtz', properties = ['dipole'])
--------------------------------------------------------------------------

    Molecular point group: c1
  Charge       = 0
  Multiplicity = 1
  Basis Set: AUG-CC-PVTZ
    Blend: AUG-CC-PVTZ
  Basis Set: (AUG-CC-PVTZ AUX)
    Blend: AUG-CC-PVTZ-JKFIT

    Orbital Energies [Eh]
    ---------------------

    Doubly Occupied:

       1A    -20.546542     2A    -11.275049     3A    -11.274253
       4A    -11.239877     5A    -11.227770     6A    -11.221509
       7A    -11.217922     8A     -1.367147     9A     -1.098162
      10A     -1.000728    11A     -0.930489    12A     -0.910226
      13A     -0.847653    14A     -0.731102    15A     -0.666760
      16A     -0.654659    17A     -0.625107    18A     -0.601560
      19A     -0.578000    20A     -0.558947    21A     -0.542818
      22A     -0.534416    23A     -0.529327    24A     -0.503159
      25A     -0.480238    26A     -0.446553    27A     -0.420243
      28A     -0.398949

  @DF-RHF Final Energy:  -309.11562096733206

   => Energetics <=

    Nuclear Repulsion Energy =            329.8165486871413350
    One-Electron Energy =               -1073.0060033092158847
    Two-Electron Energy =                 434.0738336547424865
    Total Energy =                       -309.1156209673320632
  Basis Set: (AUG-CC-PVTZ AUX)
    Blend: AUG-CC-PVTZ-RI
    Molecular point group: c1

    Geometry (in Angstrom), charge = 0, multiplicity = 1:

       Center              X                  Y                   Z               Mass
    ------------   -----------------  -----------------  -----------------  -----------------
         O           -1.967037389689    -0.487014047645    -0.267265008038    15.994914619570
         C            0.024375310311     0.279514452355     0.205911491962    12.000000000000
         C           -0.689338389689    -0.644709047645    -0.940172008038    12.000000000000
         C           -1.271942389689    -0.035839047645     0.925548991962    12.000000000000
         C            1.306589610311    -0.359979047645     0.720751991962    12.000000000000
         C            0.144857610311     1.663593952355    -0.300230008038    12.000000000000
         C            2.477582610311    -0.399823047645    -0.260257008038    12.000000000000
         H           -0.717837389689    -0.261230047645    -1.966634008038     1.007825032230
         H           -0.370220389689    -1.697287047645    -0.949912008038     1.007825032230
         H           -1.187044389689    -0.841972047645     1.668523991962     1.007825032230
         H           -1.760711389689     0.833193952355     1.381210991962     1.007825032230
         H            1.102601610311    -1.377110047645     1.079098991962     1.007825032230
         H            1.582908610311     0.230442952355     1.604850991962     1.007825032230
         H            0.444562610311     2.292989952355     0.545166991962     1.007825032230
         H            0.882144610311     1.788781952355    -1.098693008038     1.007825032230
         H           -0.820223389689     2.021758952355    -0.671922008038     1.007825032230
         H            2.210234610311    -0.956264047645    -1.164649008038     1.007825032230
         H            2.788626610311     0.603600952355    -0.561054008038     1.007825032230
         H            3.343385610311    -0.893895047645     0.189814991962     1.007825032230

  Basis Set: AUG-CC-PVTZ
    Blend: AUG-CC-PVTZ
  Basis Set: (AUG-CC-PVTZ AUX)
    Blend: AUG-CC-PVTZ-JKFIT
	 Reference Energy          =    -309.1156209673320632 [Eh]
	 Singles Energy            =      -0.0000000000000000 [Eh]
	 Same-Spin Energy          =      -0.3202497126481932 [Eh]
	 Opposite-Spin Energy      =      -1.1113804308789699 [Eh]
	 Correlation Energy        =      -1.4316301435271630 [Eh]
	 Total Energy              =    -310.5472511108592357 [Eh]

	 ================> DF-SCS-MP2 Energies <==================
	-----------------------------------------------------------
	 SCS Same-Spin Scale       =       0.3333333333333333 [-]
	 SCS Opposite-Spin Scale   =       1.2000000000000000 [-]
	 SCS Same-Spin Energy      =      -0.1067499042160644 [Eh]
	 SCS Opposite-Spin Energy  =      -1.3336565170547638 [Eh]
	 SCS Correlation Energy    =      -1.4404064212708283 [Eh]
	 SCS Total Energy          =    -310.5560273886028995 [Eh]
	-----------------------------------------------------------

  Dipole Moment: [D]
     X:     2.0876      Y:     0.4152      Z:     0.4695     Total:     2.1797

*** Psi4 exiting successfully. Buy a developer a beer!
