                               Psi4 1.3.2 release

  ==> Input File <==

--------------------------------------------------------------------------
#psi4
#
memory 32 gb

molecule  {
0 1
  O       -1.9855998    -0.4387447    -0.1895848
  C       -0.0425170     0.1992980     0.1361180
  C       -0.7556090    -0.6523520    -0.9323370
  C       -1.3382130    -0.0434820     0.9333840
  C        1.2403190    -0.3676220     0.7285870
  C        0.0785870     1.6559510    -0.2923950
  C        2.4113120    -0.4074660    -0.2524220
  H       -0.7841080    -0.2688730    -1.9587990
  H       -0.4364910    -1.7049300    -0.9420770
  H       -1.2533150    -0.8496150     1.6763590
  H       -1.8269820     0.8255510     1.3890460
  H        1.0363310    -1.3847530     1.0869340
  H        1.5166380     0.2228000     1.6126860
  H        0.3782920     2.2853470     0.5530020
  H        0.8158740     1.7811390    -1.0908580
  H       -0.8864940     2.0141160    -0.6640870
  H        2.1439640    -0.9639070    -1.1568140
  H        2.7223560     0.5959580    -0.5532190
  H        3.2771150    -0.9015380     0.1976500
units angstrom
no_reorient  #important for SAPT in psi4, default
symmetry c1  #important for SAPT in psi4, default
}

set PROPERTIES_ORIGIN ["COM"]
properties('MP2/aug-cc-pvtz', properties = ['dipole'])
--------------------------------------------------------------------------

    Molecular point group: c1
  Charge       = 0
  Multiplicity = 1
  Basis Set: AUG-CC-PVTZ
    Blend: AUG-CC-PVTZ
  Basis Set: (AUG-CC-PVTZ AUX)
    Blend: AUG-CC-PVTZ-JKFIT

    Orbital Energies [Eh]
    ---------------------

    Doubly Occupied:

       1A    -20.545195     2A    -11.276667     3A    -11.262384
       4A    -11.234515     5A    -11.224355     6A    -11.219166
       7A    -11.217268     8A     -1.404810     9A     -1.092230
      10A     -0.994181    11A     -0.939427    12A     -0.912844
      13A     -0.842319    14A     -0.735297    15A     -0.677668
      16A     -0.658461    17A     -0.632390    18A     -0.605446
      19A     -0.583120    20A     -0.558260    21A     -0.541741
      22A     -0.532161    23A     -0.529282    24A     -0.504335
      25A     -0.469002    26A     -0.441527    27A     -0.428417
      28A     -0.403877

  @DF-RHF Final Energy:  -309.12265726463960

   => Energetics <=

    Nuclear Repulsion Energy =            332.6099207717973627
    One-Electron Energy =               -1078.5324656278078237
    Two-Electron Energy =                 436.7998875913709185
    Total Energy =                       -309.1226572646395994
  Basis Set: (AUG-CC-PVTZ AUX)
    Blend: AUG-CC-PVTZ-RI
    Molecular point group: c1

    Geometry (in Angstrom), charge = 0, multiplicity = 1:

       Center              X                  Y                   Z               Mass
    ------------   -----------------  -----------------  -----------------  -----------------
         O           -1.926878766389    -0.431335844379    -0.199274420969    15.994914619570
         C            0.016204033611     0.206706855621     0.126428379031    12.000000000000
         C           -0.696887966389    -0.644943144379    -0.942026620969    12.000000000000
         C           -1.279491966389    -0.036073144379     0.923694379031    12.000000000000
         C            1.299040033611    -0.360213144379     0.718897379031    12.000000000000
         C            0.137308033611     1.663359855621    -0.302084620969    12.000000000000
         C            2.470033033611    -0.400057144379    -0.262111620969    12.000000000000
         H           -0.725386966389    -0.261464144379    -1.968488620969     1.007825032230
         H           -0.377769966389    -1.697521144379    -0.951766620969     1.007825032230
         H           -1.194593966389    -0.842206144379     1.666669379031     1.007825032230
         H           -1.768260966389     0.832959855621     1.379356379031     1.007825032230
         H            1.095052033611    -1.377344144379     1.077244379031     1.007825032230
         H            1.575359033611     0.230208855621     1.602996379031     1.007825032230
         H            0.437013033611     2.292755855621     0.543312379031     1.007825032230
         H            0.874595033611     1.788547855621    -1.100547620969     1.007825032230
         H           -0.827772966389     2.021524855621    -0.673776620969     1.007825032230
         H            2.202685033611    -0.956498144379    -1.166503620969     1.007825032230
         H            2.781077033611     0.603366855621    -0.562908620969     1.007825032230
         H            3.335836033611    -0.894129144379     0.187960379031     1.007825032230

  Basis Set: AUG-CC-PVTZ
    Blend: AUG-CC-PVTZ
  Basis Set: (AUG-CC-PVTZ AUX)
    Blend: AUG-CC-PVTZ-JKFIT
	 Reference Energy          =    -309.1226572646395994 [Eh]
	 Singles Energy            =      -0.0000000000000000 [Eh]
	 Same-Spin Energy          =      -0.3191426694125785 [Eh]
	 Opposite-Spin Energy      =      -1.1078038295897705 [Eh]
	 Correlation Energy        =      -1.4269464990023490 [Eh]
	 Total Energy              =    -310.5496037636419260 [Eh]

	 ================> DF-SCS-MP2 Energies <==================
	-----------------------------------------------------------
	 SCS Same-Spin Scale       =       0.3333333333333333 [-]
	 SCS Opposite-Spin Scale   =       1.2000000000000000 [-]
	 SCS Same-Spin Energy      =      -0.1063808898041928 [Eh]
	 SCS Opposite-Spin Energy  =      -1.3293645955077247 [Eh]
	 SCS Correlation Energy    =      -1.4357454853119176 [Eh]
	 SCS Total Energy          =    -310.5584027499515400 [Eh]
	-----------------------------------------------------------

  Dipole Moment: [D]
     X:     1.9045      Y:     0.2741      Z:     0.2054     Total:     1.9350

*** Psi4 exiting successfully. Buy a developer a beer!
