                               Psi4 1.3.2 release

  ==> Input File <==

--------------------------------------------------------------------------
#psi4
#
memory 32 gb

molecule  {
0 1
  O       -2.0131862    -0.5160804    -0.2181131
  C       -0.0425170     0.1992980     0.1361180
  C       -0.7556090    -0.6523520    -0.9323370
  C       -1.3382130    -0.0434820     0.9333840
  C        1.2403190    -0.3676220     0.7285870
  C        0.0785870     1.6559510    -0.2923950
  C        2.4113120    -0.4074660    -0.2524220
  H       -0.7841080    -0.2688730    -1.9587990
  H       -0.4364910    -1.7049300    -0.9420770
  H       -1.2533150    -0.8496150     1.6763590
  H       -1.8269820     0.8255510     1.3890460
  H        1.0363310    -1.3847530     1.0869340
  H        1.5166380     0.2228000     1.6126860
  H        0.3782920     2.2853470     0.5530020
  H        0.8158740     1.7811390    -1.0908580
  H       -0.8864940     2.0141160    -0.6640870
  H        2.1439640    -0.9639070    -1.1568140
  H        2.7223560     0.5959580    -0.5532190
  H        3.2771150    -0.9015380     0.1976500
units angstrom
no_reorient  #important for SAPT in psi4, default
symmetry c1  #important for SAPT in psi4, default
}

set PROPERTIES_ORIGIN ["COM"]
properties('MP2/aug-cc-pvtz', properties = ['dipole'])
--------------------------------------------------------------------------

    Molecular point group: c1
  Charge       = 0
  Multiplicity = 1
  Basis Set: AUG-CC-PVTZ
    Blend: AUG-CC-PVTZ
  Basis Set: (AUG-CC-PVTZ AUX)
    Blend: AUG-CC-PVTZ-JKFIT

    Orbital Energies [Eh]
    ---------------------

    Doubly Occupied:

       1A    -20.545360     2A    -11.274716     3A    -11.269029
       4A    -11.236581     5A    -11.226442     6A    -11.220085
       7A    -11.218479     8A     -1.381615     9A     -1.094600
      10A     -0.996278    11A     -0.931843    12A     -0.915485
      13A     -0.845458    14A     -0.732403    15A     -0.672333
      16A     -0.655919    17A     -0.627859    18A     -0.602225
      19A     -0.575862    20A     -0.558797    21A     -0.542453
      22A     -0.533085    23A     -0.528652    24A     -0.505353
      25A     -0.470306    26A     -0.439003    27A     -0.433164
      28A     -0.408502

  @DF-RHF Final Energy:  -309.12663081894163

   => Energetics <=

    Nuclear Repulsion Energy =            330.9757109889201843
    One-Electron Energy =               -1075.3209135590257119
    Two-Electron Energy =                 435.2185717511639496
    Total Energy =                       -309.1266308189416350
  Basis Set: (AUG-CC-PVTZ AUX)
    Blend: AUG-CC-PVTZ-RI
    Molecular point group: c1

    Geometry (in Angstrom), charge = 0, multiplicity = 1:

       Center              X                  Y                   Z               Mass
    ------------   -----------------  -----------------  -----------------  -----------------
         O           -1.950056660677    -0.496312741665    -0.223243692843    15.994914619570
         C            0.020612539323     0.219065658335     0.130987407157    12.000000000000
         C           -0.692479460677    -0.632584341665    -0.937467592843    12.000000000000
         C           -1.275083460677    -0.023714341665     0.928253407157    12.000000000000
         C            1.303448539323    -0.347854341665     0.723456407157    12.000000000000
         C            0.141716539323     1.675718658335    -0.297525592843    12.000000000000
         C            2.474441539323    -0.387698341665    -0.257552592843    12.000000000000
         H           -0.720978460677    -0.249105341665    -1.963929592843     1.007825032230
         H           -0.373361460677    -1.685162341665    -0.947207592843     1.007825032230
         H           -1.190185460677    -0.829847341665     1.671228407157     1.007825032230
         H           -1.763852460677     0.845318658335     1.383915407157     1.007825032230
         H            1.099460539323    -1.364985341665     1.081803407157     1.007825032230
         H            1.579767539323     0.242567658335     1.607555407157     1.007825032230
         H            0.441421539323     2.305114658335     0.547871407157     1.007825032230
         H            0.879003539323     1.800906658335    -1.095988592843     1.007825032230
         H           -0.823364460677     2.033883658335    -0.669217592843     1.007825032230
         H            2.207093539323    -0.944139341665    -1.161944592843     1.007825032230
         H            2.785485539323     0.615725658335    -0.558349592843     1.007825032230
         H            3.340244539323    -0.881770341665     0.192519407157     1.007825032230

  Basis Set: AUG-CC-PVTZ
    Blend: AUG-CC-PVTZ
  Basis Set: (AUG-CC-PVTZ AUX)
    Blend: AUG-CC-PVTZ-JKFIT
	 Reference Energy          =    -309.1266308189416350 [Eh]
	 Singles Energy            =      -0.0000000000000000 [Eh]
	 Same-Spin Energy          =      -0.3192937205836734 [Eh]
	 Opposite-Spin Energy      =      -1.1090638523274126 [Eh]
	 Correlation Energy        =      -1.4283575729110860 [Eh]
	 Total Energy              =    -310.5549883918527030 [Eh]

	 ================> DF-SCS-MP2 Energies <==================
	-----------------------------------------------------------
	 SCS Same-Spin Scale       =       0.3333333333333333 [-]
	 SCS Opposite-Spin Scale   =       1.2000000000000000 [-]
	 SCS Same-Spin Energy      =      -0.1064312401945578 [Eh]
	 SCS Opposite-Spin Energy  =      -1.3308766227928950 [Eh]
	 SCS Correlation Energy    =      -1.4373078629874527 [Eh]
	 SCS Total Energy          =    -310.5639386819290735 [Eh]
	-----------------------------------------------------------

  Dipole Moment: [D]
     X:     2.0162      Y:     0.4253      Z:     0.3718     Total:     2.0938

*** Psi4 exiting successfully. Buy a developer a beer!
