                               Psi4 1.3.2 release

  ==> Input File <==

--------------------------------------------------------------------------
#psi4
#
memory 32 gb

molecule  {
0 1
  O       -2.0333080    -0.4946570    -0.2594300
  C       -0.0425170     0.1992980     0.1361180
  C       -0.7556090    -0.6523520    -0.9323370
  C       -1.3382130    -0.0434820     0.9333840
  C        1.2403190    -0.3676220     0.7285870
  C        0.0785870     1.6559510    -0.2923950
  C        2.4113120    -0.4074660    -0.2524220
  H       -0.7841080    -0.2688730    -1.9587990
  H       -0.4364910    -1.7049300    -0.9420770
  H       -1.2025493    -0.9119585     1.5940003
  H       -1.8269820     0.8255510     1.3890460
  H        1.0363310    -1.3847530     1.0869340
  H        1.5166380     0.2228000     1.6126860
  H        0.3782920     2.2853470     0.5530020
  H        0.8158740     1.7811390    -1.0908580
  H       -0.8864940     2.0141160    -0.6640870
  H        2.1439640    -0.9639070    -1.1568140
  H        2.7223560     0.5959580    -0.5532190
  H        3.2771150    -0.9015380     0.1976500
units angstrom
no_reorient  #important for SAPT in psi4, default
symmetry c1  #important for SAPT in psi4, default
}

set PROPERTIES_ORIGIN ["COM"]
properties('MP2/aug-cc-pvtz', properties = ['dipole'])
--------------------------------------------------------------------------

    Molecular point group: c1
  Charge       = 0
  Multiplicity = 1
  Basis Set: AUG-CC-PVTZ
    Blend: AUG-CC-PVTZ
  Basis Set: (AUG-CC-PVTZ AUX)
    Blend: AUG-CC-PVTZ-JKFIT

    Orbital Energies [Eh]
    ---------------------

    Doubly Occupied:

       1A    -20.544829     2A    -11.273491     3A    -11.273443
       4A    -11.236545     5A    -11.227260     6A    -11.220617
       7A    -11.218277     8A     -1.370094     9A     -1.095499
      10A     -0.996930    11A     -0.927882    12A     -0.917165
      13A     -0.846673    14A     -0.729610    15A     -0.672400
      16A     -0.653404    17A     -0.625956    18A     -0.599898
      19A     -0.577234    20A     -0.557482    21A     -0.540579
      22A     -0.531301    23A     -0.528941    24A     -0.505896
      25A     -0.470893    26A     -0.437678    27A     -0.434700
      28A     -0.409932

  @DF-RHF Final Energy:  -309.12431934376667

   => Energetics <=

    Nuclear Repulsion Energy =            330.4352696899755983
    One-Electron Energy =               -1074.2699582516779628
    Two-Electron Energy =                 434.7103692179356926
    Total Energy =                       -309.1243193437666719
  Basis Set: (AUG-CC-PVTZ AUX)
    Blend: AUG-CC-PVTZ-RI
    Molecular point group: c1

    Geometry (in Angstrom), charge = 0, multiplicity = 1:

       Center              X                  Y                   Z               Mass
    ------------   -----------------  -----------------  -----------------  -----------------
         O           -1.967474027322    -0.477685199663    -0.257128559131    15.994914619570
         C            0.023316972678     0.216269800337     0.138419440869    12.000000000000
         C           -0.689775027322    -0.635380199663    -0.930035559131    12.000000000000
         C           -1.272379027322    -0.026510199663     0.935685440869    12.000000000000
         C            1.306152972678    -0.350650199663     0.730888440869    12.000000000000
         C            0.144420972678     1.672922800337    -0.290093559131    12.000000000000
         C            2.477145972678    -0.390494199663    -0.250120559131    12.000000000000
         H           -0.718274027322    -0.251901199663    -1.956497559131     1.007825032230
         H           -0.370657027322    -1.687958199663    -0.939775559131     1.007825032230
         H           -1.136715327322    -0.894986699663     1.596301740869     1.007825032230
         H           -1.761148027322     0.842522800337     1.391347440869     1.007825032230
         H            1.102164972678    -1.367781199663     1.089235440869     1.007825032230
         H            1.582471972678     0.239771800337     1.614987440869     1.007825032230
         H            0.444125972678     2.302318800337     0.555303440869     1.007825032230
         H            0.881707972678     1.798110800337    -1.088556559131     1.007825032230
         H           -0.820660027322     2.031087800337    -0.661785559131     1.007825032230
         H            2.209797972678    -0.946935199663    -1.154512559131     1.007825032230
         H            2.788189972678     0.612929800337    -0.550917559131     1.007825032230
         H            3.342948972678    -0.884566199663     0.199951440869     1.007825032230

  Basis Set: AUG-CC-PVTZ
    Blend: AUG-CC-PVTZ
  Basis Set: (AUG-CC-PVTZ AUX)
    Blend: AUG-CC-PVTZ-JKFIT
	 Reference Energy          =    -309.1243193437666719 [Eh]
	 Singles Energy            =      -0.0000000000000000 [Eh]
	 Same-Spin Energy          =      -0.3198083084792556 [Eh]
	 Opposite-Spin Energy      =      -1.1104513130936344 [Eh]
	 Correlation Energy        =      -1.4302596215728900 [Eh]
	 Total Energy              =    -310.5545789653395445 [Eh]

	 ================> DF-SCS-MP2 Energies <==================
	-----------------------------------------------------------
	 SCS Same-Spin Scale       =       0.3333333333333333 [-]
	 SCS Opposite-Spin Scale   =       1.2000000000000000 [-]
	 SCS Same-Spin Energy      =      -0.1066027694930852 [Eh]
	 SCS Opposite-Spin Energy  =      -1.3325415757123613 [Eh]
	 SCS Correlation Energy    =      -1.4391443452054464 [Eh]
	 SCS Total Energy          =    -310.5634636889720923 [Eh]
	-----------------------------------------------------------

  Dipole Moment: [D]
     X:     2.0763      Y:     0.4170      Z:     0.4861     Total:     2.1728

*** Psi4 exiting successfully. Buy a developer a beer!
