                               Psi4 1.3.2 release

  ==> Input File <==

--------------------------------------------------------------------------
#psi4
#
memory 32 gb

molecule  {
0 1
  O       -2.0442708    -0.5087659    -0.2774172
  C       -0.0425170     0.1992980     0.1361180
  C       -0.7556090    -0.6523520    -0.9323370
  C       -1.3382130    -0.0434820     0.9333840
  C        1.2403190    -0.3676220     0.7285870
  C        0.0785870     1.6559510    -0.2923950
  C        2.4113120    -0.4074660    -0.2524220
  H       -0.7841080    -0.2688730    -1.9587990
  H       -0.4364910    -1.7049300    -0.9420770
  H       -1.2533150    -0.8496150     1.6763590
  H       -1.8269820     0.8255510     1.3890460
  H        1.0363310    -1.3847530     1.0869340
  H        1.5166380     0.2228000     1.6126860
  H        0.3782920     2.2853470     0.5530020
  H        0.8158740     1.7811390    -1.0908580
  H       -0.8864940     2.0141160    -0.6640870
  H        2.1439640    -0.9639070    -1.1568140
  H        2.7223560     0.5959580    -0.5532190
  H        3.2771150    -0.9015380     0.1976500
units angstrom
no_reorient  #important for SAPT in psi4, default
symmetry c1  #important for SAPT in psi4, default
}

set PROPERTIES_ORIGIN ["COM"]
properties('MP2/aug-cc-pvtz', properties = ['dipole'])
--------------------------------------------------------------------------

    Molecular point group: c1
  Charge       = 0
  Multiplicity = 1
  Basis Set: AUG-CC-PVTZ
    Blend: AUG-CC-PVTZ
  Basis Set: (AUG-CC-PVTZ AUX)
    Blend: AUG-CC-PVTZ-JKFIT

    Orbital Energies [Eh]
    ---------------------

    Doubly Occupied:

       1A    -20.546432     2A    -11.276083     3A    -11.273095
       4A    -11.238250     5A    -11.227828     6A    -11.220805
       7A    -11.218830     8A     -1.362861     9A     -1.096348
      10A     -0.997693    11A     -0.926768    12A     -0.917028
      13A     -0.847944    14A     -0.732109    15A     -0.667107
      16A     -0.653661    17A     -0.624916    18A     -0.598813
      19A     -0.575043    20A     -0.557052    21A     -0.540494
      22A     -0.530546    23A     -0.527379    24A     -0.506153
      25A     -0.471223    26A     -0.438782    27A     -0.436218
      28A     -0.411586

  @DF-RHF Final Energy:  -309.12431793038002

   => Energetics <=

    Nuclear Repulsion Energy =            329.7085465227135046
    One-Electron Energy =               -1072.8236350435417990
    Two-Electron Energy =                 433.9907705904482782
    Total Energy =                       -309.1243179303800162
  Basis Set: (AUG-CC-PVTZ AUX)
    Blend: AUG-CC-PVTZ-RI
    Molecular point group: c1

    Geometry (in Angstrom), charge = 0, multiplicity = 1:

       Center              X                  Y                   Z               Mass
    ------------   -----------------  -----------------  -----------------  -----------------
         O           -1.976173717371    -0.490167151527    -0.273070569878    15.994914619570
         C            0.025580082629     0.217896748473     0.140464630122    12.000000000000
         C           -0.687511917371    -0.633753251527    -0.927990369878    12.000000000000
         C           -1.270115917371    -0.024883251527     0.937730630122    12.000000000000
         C            1.308416082629    -0.349023251527     0.732933630122    12.000000000000
         C            0.146684082629     1.674549748473    -0.288048369878    12.000000000000
         C            2.479409082629    -0.388867251527    -0.248075369878    12.000000000000
         H           -0.716010917371    -0.250274251527    -1.954452369878     1.007825032230
         H           -0.368393917371    -1.686331251527    -0.937730369878     1.007825032230
         H           -1.185217917371    -0.831016251527     1.680705630122     1.007825032230
         H           -1.758884917371     0.844149748473     1.393392630122     1.007825032230
         H            1.104428082629    -1.366154251527     1.091280630122     1.007825032230
         H            1.584735082629     0.241398748473     1.617032630122     1.007825032230
         H            0.446389082629     2.303945748473     0.557348630122     1.007825032230
         H            0.883971082629     1.799737748473    -1.086511369878     1.007825032230
         H           -0.818396917371     2.032714748473    -0.659740369878     1.007825032230
         H            2.212061082629    -0.945308251527    -1.152467369878     1.007825032230
         H            2.790453082629     0.614556748473    -0.548872369878     1.007825032230
         H            3.345212082629    -0.882939251527     0.201996630122     1.007825032230

  Basis Set: AUG-CC-PVTZ
    Blend: AUG-CC-PVTZ
  Basis Set: (AUG-CC-PVTZ AUX)
    Blend: AUG-CC-PVTZ-JKFIT
	 Reference Energy          =    -309.1243179303800162 [Eh]
	 Singles Energy            =      -0.0000000000000000 [Eh]
	 Same-Spin Energy          =      -0.3198025236631330 [Eh]
	 Opposite-Spin Energy      =      -1.1109266006326455 [Eh]
	 Correlation Energy        =      -1.4307291242957785 [Eh]
	 Total Energy              =    -310.5550470546758106 [Eh]

	 ================> DF-SCS-MP2 Energies <==================
	-----------------------------------------------------------
	 SCS Same-Spin Scale       =       0.3333333333333333 [-]
	 SCS Opposite-Spin Scale   =       1.2000000000000000 [-]
	 SCS Same-Spin Energy      =      -0.1066008412210443 [Eh]
	 SCS Opposite-Spin Energy  =      -1.3331119207591746 [Eh]
	 SCS Correlation Energy    =      -1.4397127619802190 [Eh]
	 SCS Total Energy          =    -310.5640306923602338 [Eh]
	-----------------------------------------------------------

  Dipole Moment: [D]
     X:     2.1041      Y:     0.4400      Z:     0.5692     Total:     2.2238

*** Psi4 exiting successfully. Buy a developer a beer!
