                               Psi4 1.3.2 release

  ==> Input File <==

--------------------------------------------------------------------------
#psi4
#
memory 32 gb

molecule  {
0 1
  O       -2.0333080    -0.4946570    -0.2594300
  C       -0.0299791     0.2028435     0.1129589
  C       -0.7556090    -0.6523520    -0.9323370
  C       -1.3382130    -0.0434820     0.9333840
  C        1.2403190    -0.3676220     0.7285870
  C        0.0785870     1.6559510    -0.2923950
  C        2.4113120    -0.4074660    -0.2524220
  H       -0.7841080    -0.2688730    -1.9587990
  H       -0.4364910    -1.7049300    -0.9420770
  H       -1.2533150    -0.8496150     1.6763590
  H       -1.8269820     0.8255510     1.3890460
  H        1.0363310    -1.3847530     1.0869340
  H        1.5166380     0.2228000     1.6126860
  H        0.3782920     2.2853470     0.5530020
  H        0.8158740     1.7811390    -1.0908580
  H       -0.8864940     2.0141160    -0.6640870
  H        2.1439640    -0.9639070    -1.1568140
  H        2.7223560     0.5959580    -0.5532190
  H        3.2771150    -0.9015380     0.1976500
units angstrom
no_reorient  #important for SAPT in psi4, default
symmetry c1  #important for SAPT in psi4, default
}

set PROPERTIES_ORIGIN ["COM"]
properties('MP2/aug-cc-pvtz', properties = ['dipole'])
--------------------------------------------------------------------------

    Molecular point group: c1
  Charge       = 0
  Multiplicity = 1
  Basis Set: AUG-CC-PVTZ
    Blend: AUG-CC-PVTZ
  Basis Set: (AUG-CC-PVTZ AUX)
    Blend: AUG-CC-PVTZ-JKFIT

    Orbital Energies [Eh]
    ---------------------

    Doubly Occupied:

       1A    -20.546359     2A    -11.274049     3A    -11.273557
       4A    -11.237707     5A    -11.227196     6A    -11.219978
       7A    -11.218289     8A     -1.369563     9A     -1.096141
      10A     -0.997245    11A     -0.927723    12A     -0.916682
      13A     -0.846086    14A     -0.732451    15A     -0.668269
      16A     -0.655141    17A     -0.625865    18A     -0.599241
      19A     -0.576558    20A     -0.558261    21A     -0.541033
      22A     -0.530874    23A     -0.527661    24A     -0.506822
      25A     -0.472701    26A     -0.440853    27A     -0.429624
      28A     -0.410734

  @DF-RHF Final Energy:  -309.12504318887414

   => Energetics <=

    Nuclear Repulsion Energy =            330.2347830294493178
    One-Electron Energy =               -1073.8663232165611134
    Two-Electron Energy =                 434.5064969982376510
    Total Energy =                       -309.1250431888741446
  Basis Set: (AUG-CC-PVTZ AUX)
    Blend: AUG-CC-PVTZ-RI
    Molecular point group: c1

    Geometry (in Angstrom), charge = 0, multiplicity = 1:

       Center              X                  Y                   Z               Mass
    ------------   -----------------  -----------------  -----------------  -----------------
         O           -1.968466064811    -0.478738037983    -0.255181228247    15.994914619570
         C            0.034862835189     0.218762462017     0.117207671753    12.000000000000
         C           -0.690767064811    -0.636433037983    -0.928088228247    12.000000000000
         C           -1.273371064811    -0.027563037983     0.937632771753    12.000000000000
         C            1.305160935189    -0.351703037983     0.732835771753    12.000000000000
         C            0.143428935189     1.671869962017    -0.288146228247    12.000000000000
         C            2.476153935189    -0.391547037983    -0.248173228247    12.000000000000
         H           -0.719266064811    -0.252954037983    -1.954550228247     1.007825032230
         H           -0.371649064811    -1.689011037983    -0.937828228247     1.007825032230
         H           -1.188473064811    -0.833696037983     1.680607771753     1.007825032230
         H           -1.762140064811     0.841469962017     1.393294771753     1.007825032230
         H            1.101172935189    -1.368834037983     1.091182771753     1.007825032230
         H            1.581479935189     0.238718962017     1.616934771753     1.007825032230
         H            0.443133935189     2.301265962017     0.557250771753     1.007825032230
         H            0.880715935189     1.797057962017    -1.086609228247     1.007825032230
         H           -0.821652064811     2.030034962017    -0.659838228247     1.007825032230
         H            2.208805935189    -0.947988037983    -1.152565228247     1.007825032230
         H            2.787197935189     0.611876962017    -0.548970228247     1.007825032230
         H            3.341956935189    -0.885619037983     0.201898771753     1.007825032230

  Basis Set: AUG-CC-PVTZ
    Blend: AUG-CC-PVTZ
  Basis Set: (AUG-CC-PVTZ AUX)
    Blend: AUG-CC-PVTZ-JKFIT
	 Reference Energy          =    -309.1250431888741446 [Eh]
	 Singles Energy            =      -0.0000000000000000 [Eh]
	 Same-Spin Energy          =      -0.3196907128402835 [Eh]
	 Opposite-Spin Energy      =      -1.1103459874693500 [Eh]
	 Correlation Energy        =      -1.4300367003096335 [Eh]
	 Total Energy              =    -310.5550798891837871 [Eh]

	 ================> DF-SCS-MP2 Energies <==================
	-----------------------------------------------------------
	 SCS Same-Spin Scale       =       0.3333333333333333 [-]
	 SCS Opposite-Spin Scale   =       1.2000000000000000 [-]
	 SCS Same-Spin Energy      =      -0.1065635709467612 [Eh]
	 SCS Opposite-Spin Energy  =      -1.3324151849632200 [Eh]
	 SCS Correlation Energy    =      -1.4389787559099811 [Eh]
	 SCS Total Energy          =    -310.5640219447841446 [Eh]
	-----------------------------------------------------------

  Dipole Moment: [D]
     X:     2.0627      Y:     0.4130      Z:     0.5100     Total:     2.1646

*** Psi4 exiting successfully. Buy a developer a beer!
