                               Psi4 1.4a3.dev225

  ==> Input File <==

--------------------------------------------------------------------------
#psi4
#
memory 32 gb

molecule  {
0 1
  O       -2.0333080    -0.4946570    -0.2594300
  C       -0.0425170     0.1992980     0.1361180
  C       -0.7556090    -0.6523520    -0.9323370
  C       -1.3382130    -0.0434820     0.9333840
  C        1.2403190    -0.3676220     0.7285870
  C        0.0785870     1.6559510    -0.2923950
  C        2.4113120    -0.4074660    -0.2524220
  H       -0.7854080    -0.2513805    -2.0056213
  H       -0.4364910    -1.7049300    -0.9420770
  H       -1.2533150    -0.8496150     1.6763590
  H       -1.8269820     0.8255510     1.3890460
  H        1.0363310    -1.3847530     1.0869340
  H        1.5166380     0.2228000     1.6126860
  H        0.3782920     2.2853470     0.5530020
  H        0.8158740     1.7811390    -1.0908580
  H       -0.8864940     2.0141160    -0.6640870
  H        2.1439640    -0.9639070    -1.1568140
  H        2.7223560     0.5959580    -0.5532190
  H        3.2771150    -0.9015380     0.1976500
units angstrom
no_reorient  #important for SAPT in psi4, default
symmetry c1  #important for SAPT in psi4, default
}

set PROPERTIES_ORIGIN ["COM"]
properties('MP2/aug-cc-pvtz', properties = ['dipole'])
--------------------------------------------------------------------------

    Molecular point group: c1
  Charge       = 0
  Multiplicity = 1
  Basis Set: AUG-CC-PVTZ
    Blend: AUG-CC-PVTZ
  Basis Set: (AUG-CC-PVTZ AUX)
    Blend: AUG-CC-PVTZ-JKFIT

    Orbital Energies [Eh]
    ---------------------

    Doubly Occupied:

       1A    -20.547316     2A    -11.279736     3A    -11.273829
       4A    -11.238126     5A    -11.227480     6A    -11.220563
       7A    -11.218545     8A     -1.370986     9A     -1.095726
      10A     -0.997039    11A     -0.925700    12A     -0.916262
      13A     -0.846752    14A     -0.730459    15A     -0.665564
      16A     -0.654139    17A     -0.626129    18A     -0.599849
      19A     -0.576552    20A     -0.557546    21A     -0.539864
      22A     -0.530304    23A     -0.526021    24A     -0.506081
      25A     -0.471076    26A     -0.437773    27A     -0.436415
      28A     -0.410388

  @DF-RHF Final Energy:  -309.12348701042418

   => Energetics <=

    Nuclear Repulsion Energy =            330.0137904110683849
    One-Electron Energy =               -1073.4221145602903107
    Two-Electron Energy =                 434.2848371387977409
    Total Energy =                       -309.1234870104241850
  Basis Set: (AUG-CC-PVTZ AUX)
    Blend: AUG-CC-PVTZ-RI
    Molecular point group: c1

    Geometry (in Angstrom), charge = 0, multiplicity = 1:

       Center              X                  Y                   Z               Mass
    ------------   -----------------  -----------------  -----------------  -----------------
         O           -1.966949761791    -0.478489092878    -0.257486386061    15.994914619570
         C            0.023841238209     0.215465907122     0.138061613939    12.000000000000
         C           -0.689250761791    -0.636184092878    -0.930393386061    12.000000000000
         C           -1.271854761791    -0.027314092878     0.935327613939    12.000000000000
         C            1.306677238209    -0.351454092878     0.730530613939    12.000000000000
         C            0.144945238209     1.672118907122    -0.290451386061    12.000000000000
         C            2.477670238209    -0.391298092878    -0.250478386061    12.000000000000
         H           -0.719049761791    -0.235212592878    -2.003677686061     1.007825032230
         H           -0.370132761791    -1.688762092878    -0.940133386061     1.007825032230
         H           -1.186956761791    -0.833447092878     1.678302613939     1.007825032230
         H           -1.760623761791     0.841718907122     1.390989613939     1.007825032230
         H            1.102689238209    -1.368585092878     1.088877613939     1.007825032230
         H            1.582996238209     0.238967907122     1.614629613939     1.007825032230
         H            0.444650238209     2.301514907122     0.554945613939     1.007825032230
         H            0.882232238209     1.797306907122    -1.088914386061     1.007825032230
         H           -0.820135761791     2.030283907122    -0.662143386061     1.007825032230
         H            2.210322238209    -0.947739092878    -1.154870386061     1.007825032230
         H            2.788714238209     0.612125907122    -0.551275386061     1.007825032230
         H            3.343473238209    -0.885370092878     0.199593613939     1.007825032230

  Basis Set: AUG-CC-PVTZ
    Blend: AUG-CC-PVTZ
  Basis Set: (AUG-CC-PVTZ AUX)
    Blend: AUG-CC-PVTZ-JKFIT
	 Reference Energy          =    -309.1234870104241850 [Eh]
	 Singles Energy            =      -0.0000000000000000 [Eh]
	 Same-Spin Energy          =      -0.3197028745459153 [Eh]
	 Opposite-Spin Energy      =      -1.1106254114888887 [Eh]
	 Correlation Energy        =      -1.4303282860348041 [Eh]
	 Total Energy              =    -310.5538152964589926 [Eh]

	 ================> DF-SCS-MP2 Energies <==================
	-----------------------------------------------------------
	 SCS Same-Spin Scale       =       0.3333333333333333 [-]
	 SCS Opposite-Spin Scale   =       1.2000000000000000 [-]
	 SCS Same-Spin Energy      =      -0.1065676248486384 [Eh]
	 SCS Opposite-Spin Energy  =      -1.3327504937866663 [Eh]
	 SCS Correlation Energy    =      -1.4393181186353048 [Eh]
	 SCS Total Energy          =    -310.5628051290594840 [Eh]
	-----------------------------------------------------------

  Dipole Moment: [D]
     X:     2.0631      Y:     0.4037      Z:     0.5435     Total:     2.1713

*** Psi4 exiting successfully. Buy a developer a beer!
