                               Psi4 1.4a3.dev225

  ==> Input File <==

--------------------------------------------------------------------------
#psi4
#
memory 32 gb

molecule  {
0 1
  O       -2.0333080    -0.4946570    -0.2594300
  C       -0.0425170     0.1992980     0.1361180
  C       -0.7116307    -0.6577798    -0.9554984
  C       -1.3382130    -0.0434820     0.9333840
  C        1.2403190    -0.3676220     0.7285870
  C        0.0785870     1.6559510    -0.2923950
  C        2.4113120    -0.4074660    -0.2524220
  H       -0.7841080    -0.2688730    -1.9587990
  H       -0.4364910    -1.7049300    -0.9420770
  H       -1.2533150    -0.8496150     1.6763590
  H       -1.8269820     0.8255510     1.3890460
  H        1.0363310    -1.3847530     1.0869340
  H        1.5166380     0.2228000     1.6126860
  H        0.3782920     2.2853470     0.5530020
  H        0.8158740     1.7811390    -1.0908580
  H       -0.8864940     2.0141160    -0.6640870
  H        2.1439640    -0.9639070    -1.1568140
  H        2.7223560     0.5959580    -0.5532190
  H        3.2771150    -0.9015380     0.1976500
units angstrom
no_reorient  #important for SAPT in psi4, default
symmetry c1  #important for SAPT in psi4, default
}

set PROPERTIES_ORIGIN ["COM"]
properties('MP2/aug-cc-pvtz', properties = ['dipole'])
--------------------------------------------------------------------------

    Molecular point group: c1
  Charge       = 0
  Multiplicity = 1
  Basis Set: AUG-CC-PVTZ
    Blend: AUG-CC-PVTZ
  Basis Set: (AUG-CC-PVTZ AUX)
    Blend: AUG-CC-PVTZ-JKFIT

    Orbital Energies [Eh]
    ---------------------

    Doubly Occupied:

       1A    -20.542479     2A    -11.273768     3A    -11.270701
       4A    -11.239035     5A    -11.227111     6A    -11.221030
       7A    -11.218705     8A     -1.353754     9A     -1.095530
      10A     -0.996779    11A     -0.929075    12A     -0.916861
      13A     -0.846697    14A     -0.734502    15A     -0.667524
      16A     -0.651400    17A     -0.623105    18A     -0.598325
      19A     -0.577793    20A     -0.552762    21A     -0.541176
      22A     -0.529384    23A     -0.526881    24A     -0.505992
      25A     -0.470806    26A     -0.443594    27A     -0.431667
      28A     -0.410807

  @DF-RHF Final Energy:  -309.12273590096606

   => Energetics <=

    Nuclear Repulsion Energy =            329.7572885983479409
    One-Electron Energy =               -1072.9655643917635643
    Two-Electron Energy =                 434.0855398924495603
    Total Energy =                       -309.1227359009660631
  Basis Set: (AUG-CC-PVTZ AUX)
    Blend: AUG-CC-PVTZ-RI
    Molecular point group: c1

    Geometry (in Angstrom), charge = 0, multiplicity = 1:

       Center              X                  Y                   Z               Mass
    ------------   -----------------  -----------------  -----------------  -----------------
         O           -1.972235564930    -0.477662197491    -0.255180952492    15.994914619570
         C            0.018555435070     0.216292802509     0.140367047508    12.000000000000
         C           -0.650558264930    -0.640784997491    -0.951249352492    12.000000000000
         C           -1.277140564930    -0.026487197491     0.937633047508    12.000000000000
         C            1.301391435070    -0.350627197491     0.732836047508    12.000000000000
         C            0.139659435070     1.672945802509    -0.288145952492    12.000000000000
         C            2.472384435070    -0.390471197491    -0.248172952492    12.000000000000
         H           -0.723035564930    -0.251878197491    -1.954549952492     1.007825032230
         H           -0.375418564930    -1.687935197491    -0.937827952492     1.007825032230
         H           -1.192242564930    -0.832620197491     1.680608047508     1.007825032230
         H           -1.765909564930     0.842545802509     1.393295047508     1.007825032230
         H            1.097403435070    -1.367758197491     1.091183047508     1.007825032230
         H            1.577710435070     0.239794802509     1.616935047508     1.007825032230
         H            0.439364435070     2.302341802509     0.557251047508     1.007825032230
         H            0.876946435070     1.798133802509    -1.086608952492     1.007825032230
         H           -0.825421564930     2.031110802509    -0.659837952492     1.007825032230
         H            2.205036435070    -0.946912197491    -1.152564952492     1.007825032230
         H            2.783428435070     0.612952802509    -0.548969952492     1.007825032230
         H            3.338187435070    -0.884543197491     0.201899047508     1.007825032230

  Basis Set: AUG-CC-PVTZ
    Blend: AUG-CC-PVTZ
  Basis Set: (AUG-CC-PVTZ AUX)
    Blend: AUG-CC-PVTZ-JKFIT
	 Reference Energy          =    -309.1227359009660631 [Eh]
	 Singles Energy            =      -0.0000000000000000 [Eh]
	 Same-Spin Energy          =      -0.3198169526744934 [Eh]
	 Opposite-Spin Energy      =      -1.1113317516509387 [Eh]
	 Correlation Energy        =      -1.4311487043254321 [Eh]
	 Total Energy              =    -310.5538846052915005 [Eh]

	 ================> DF-SCS-MP2 Energies <==================
	-----------------------------------------------------------
	 SCS Same-Spin Scale       =       0.3333333333333333 [-]
	 SCS Opposite-Spin Scale   =       1.2000000000000000 [-]
	 SCS Same-Spin Energy      =      -0.1066056508914978 [Eh]
	 SCS Opposite-Spin Energy  =      -1.3335981019811263 [Eh]
	 SCS Correlation Energy    =      -1.4402037528726241 [Eh]
	 SCS Total Energy          =    -310.5629396538386686 [Eh]
	-----------------------------------------------------------

  Dipole Moment: [D]
     X:     2.1624      Y:     0.3803      Z:     0.4134     Total:     2.2341

*** Psi4 exiting successfully. Buy a developer a beer!
