                               Psi4 1.3.2 release

  ==> Input File <==

--------------------------------------------------------------------------
#psi4
#
memory 32 gb

molecule  {
0 1
  O       -2.0333080    -0.4946570    -0.2594300
  C       -0.0425170     0.1992980     0.1361180
  C       -0.7556090    -0.6523520    -0.9323370
  C       -1.3382130    -0.0434820     0.9333840
  C        1.2403190    -0.3676220     0.7285870
  C        0.0785870     1.6559510    -0.2923950
  C        2.4113120    -0.4074660    -0.2524220
  H       -0.7841080    -0.2688730    -1.9587990
  H       -0.4364910    -1.7049300    -0.9420770
  H       -1.2193332    -0.8922029     1.6223037
  H       -1.8269820     0.8255510     1.3890460
  H        1.0363310    -1.3847530     1.0869340
  H        1.5166380     0.2228000     1.6126860
  H        0.3782920     2.2853470     0.5530020
  H        0.8158740     1.7811390    -1.0908580
  H       -0.8864940     2.0141160    -0.6640870
  H        2.1439640    -0.9639070    -1.1568140
  H        2.7223560     0.5959580    -0.5532190
  H        3.2771150    -0.9015380     0.1976500
units angstrom
no_reorient  #important for SAPT in psi4, default
symmetry c1  #important for SAPT in psi4, default
}

set PROPERTIES_ORIGIN ["COM"]
properties('MP2/aug-cc-pvtz', properties = ['dipole'])
--------------------------------------------------------------------------

    Molecular point group: c1
  Charge       = 0
  Multiplicity = 1
  Basis Set: AUG-CC-PVTZ
    Blend: AUG-CC-PVTZ
  Basis Set: (AUG-CC-PVTZ AUX)
    Blend: AUG-CC-PVTZ-JKFIT

    Orbital Energies [Eh]
    ---------------------

    Doubly Occupied:

       1A    -20.545329     2A    -11.273536     3A    -11.273424
       4A    -11.236839     5A    -11.227222     6A    -11.220570
       7A    -11.218354     8A     -1.370144     9A     -1.095469
      10A     -0.996923    11A     -0.928041    12A     -0.917033
      13A     -0.846735    14A     -0.730516    15A     -0.671107
      16A     -0.653755    17A     -0.625912    18A     -0.599819
      19A     -0.577166    20A     -0.557432    21A     -0.540614
      22A     -0.530956    23A     -0.528902    24A     -0.505898
      25A     -0.470870    26A     -0.437642    27A     -0.435327
      28A     -0.410328

  @DF-RHF Final Energy:  -309.12513023018596

   => Energetics <=

    Nuclear Repulsion Energy =            330.3732056504013599
    One-Electron Energy =               -1074.1449475340323261
    Two-Electron Energy =                 434.6466116534450066
    Total Energy =                       -309.1251302301859596
  Basis Set: (AUG-CC-PVTZ AUX)
    Blend: AUG-CC-PVTZ-RI
    Molecular point group: c1

    Geometry (in Angstrom), charge = 0, multiplicity = 1:

       Center              X                  Y                   Z               Mass
    ------------   -----------------  -----------------  -----------------  -----------------
         O           -1.967305025076    -0.477884124869    -0.257413554762    15.994914619570
         C            0.023485974924     0.216070875131     0.138134445238    12.000000000000
         C           -0.689606025076    -0.635579124869    -0.930320554762    12.000000000000
         C           -1.272210025076    -0.026709124869     0.935400445238    12.000000000000
         C            1.306321974924    -0.350849124869     0.730603445238    12.000000000000
         C            0.144589974924     1.672723875131    -0.290378554762    12.000000000000
         C            2.477314974924    -0.390693124869    -0.250405554762    12.000000000000
         H           -0.718105025076    -0.252100124869    -1.956782554762     1.007825032230
         H           -0.370488025076    -1.688157124869    -0.940060554762     1.007825032230
         H           -1.153330225076    -0.875430024869     1.624320145238     1.007825032230
         H           -1.760979025076     0.842323875131     1.391062445238     1.007825032230
         H            1.102333974924    -1.367980124869     1.088950445238     1.007825032230
         H            1.582640974924     0.239572875131     1.614702445238     1.007825032230
         H            0.444294974924     2.302119875131     0.555018445238     1.007825032230
         H            0.881876974924     1.797911875131    -1.088841554762     1.007825032230
         H           -0.820491025076     2.030888875131    -0.662070554762     1.007825032230
         H            2.209966974924    -0.947134124869    -1.154797554762     1.007825032230
         H            2.788358974924     0.612730875131    -0.551202554762     1.007825032230
         H            3.343117974924    -0.884765124869     0.199666445238     1.007825032230

  Basis Set: AUG-CC-PVTZ
    Blend: AUG-CC-PVTZ
  Basis Set: (AUG-CC-PVTZ AUX)
    Blend: AUG-CC-PVTZ-JKFIT
	 Reference Energy          =    -309.1251302301859596 [Eh]
	 Singles Energy            =      -0.0000000000000000 [Eh]
	 Same-Spin Energy          =      -0.3197308896687310 [Eh]
	 Opposite-Spin Energy      =      -1.1103484029909174 [Eh]
	 Correlation Energy        =      -1.4300792926596484 [Eh]
	 Total Energy              =    -310.5552095228455869 [Eh]

	 ================> DF-SCS-MP2 Energies <==================
	-----------------------------------------------------------
	 SCS Same-Spin Scale       =       0.3333333333333333 [-]
	 SCS Opposite-Spin Scale   =       1.2000000000000000 [-]
	 SCS Same-Spin Energy      =      -0.1065769632229103 [Eh]
	 SCS Opposite-Spin Energy  =      -1.3324180835891009 [Eh]
	 SCS Correlation Energy    =      -1.4389950468120112 [Eh]
	 SCS Total Energy          =    -310.5641252769979701 [Eh]
	-----------------------------------------------------------

  Dipole Moment: [D]
     X:     2.0731      Y:     0.4127      Z:     0.4912     Total:     2.1701

*** Psi4 exiting successfully. Buy a developer a beer!
