                               Psi4 1.3.2 release

  ==> Input File <==

--------------------------------------------------------------------------
#psi4
#
memory 32 gb

molecule  {
0 1
  O       -2.0333080    -0.4946570    -0.2594300
  C       -0.0425170     0.1992980     0.1361180
  C       -0.7432507    -0.7372803    -0.8674742
  C       -1.3382130    -0.0434820     0.9333840
  C        1.2403190    -0.3676220     0.7285870
  C        0.0785870     1.6559510    -0.2923950
  C        2.4113120    -0.4074660    -0.2524220
  H       -0.7841080    -0.2688730    -1.9587990
  H       -0.4364910    -1.7049300    -0.9420770
  H       -1.2533150    -0.8496150     1.6763590
  H       -1.8269820     0.8255510     1.3890460
  H        1.0363310    -1.3847530     1.0869340
  H        1.5166380     0.2228000     1.6126860
  H        0.3782920     2.2853470     0.5530020
  H        0.8158740     1.7811390    -1.0908580
  H       -0.8864940     2.0141160    -0.6640870
  H        2.1439640    -0.9639070    -1.1568140
  H        2.7223560     0.5959580    -0.5532190
  H        3.2771150    -0.9015380     0.1976500
units angstrom
no_reorient  #important for SAPT in psi4, default
symmetry c1  #important for SAPT in psi4, default
}

set PROPERTIES_ORIGIN ["COM"]
properties('MP2/aug-cc-pvtz', properties = ['dipole'])
--------------------------------------------------------------------------

    Molecular point group: c1
  Charge       = 0
  Multiplicity = 1
  Basis Set: AUG-CC-PVTZ
    Blend: AUG-CC-PVTZ
  Basis Set: (AUG-CC-PVTZ AUX)
    Blend: AUG-CC-PVTZ-JKFIT

    Orbital Energies [Eh]
    ---------------------

    Doubly Occupied:

       1A    -20.548223     2A    -11.275110     3A    -11.274556
       4A    -11.237868     5A    -11.226417     6A    -11.220555
       7A    -11.219705     8A     -1.374650     9A     -1.096084
      10A     -0.996353    11A     -0.927975    12A     -0.921479
      13A     -0.846668    14A     -0.740961    15A     -0.662543
      16A     -0.655115    17A     -0.626859    18A     -0.599443
      19A     -0.587399    20A     -0.557684    21A     -0.540077
      22A     -0.531609    23A     -0.518847    24A     -0.508115
      25A     -0.472019    26A     -0.441608    27A     -0.430261
      28A     -0.409239

  @DF-RHF Final Energy:  -309.11219237867743

   => Energetics <=

    Nuclear Repulsion Energy =            330.4488038051813987
    One-Electron Energy =               -1074.2271511086266855
    Two-Electron Energy =                 434.6661549247679091
    Total Energy =                       -309.1121923786774346
  Basis Set: (AUG-CC-PVTZ AUX)
    Blend: AUG-CC-PVTZ-RI
    Molecular point group: c1

    Geometry (in Angstrom), charge = 0, multiplicity = 1:

       Center              X                  Y                   Z               Mass
    ------------   -----------------  -----------------  -----------------  -----------------
         O           -1.968444531936    -0.468130602977    -0.265734483373    15.994914619570
         C            0.022346468064     0.225824397023     0.129813516627    12.000000000000
         C           -0.678387231936    -0.710753902977    -0.873778683373    12.000000000000
         C           -1.273349531936    -0.016955602977     0.927079516627    12.000000000000
         C            1.305182468064    -0.341095602977     0.722282516627    12.000000000000
         C            0.143450468064     1.682477397023    -0.298699483373    12.000000000000
         C            2.476175468064    -0.380939602977    -0.258726483373    12.000000000000
         H           -0.719244531936    -0.242346602977    -1.965103483373     1.007825032230
         H           -0.371627531936    -1.678403602977    -0.948381483373     1.007825032230
         H           -1.188451531936    -0.823088602977     1.670054516627     1.007825032230
         H           -1.762118531936     0.852077397023     1.382741516627     1.007825032230
         H            1.101194468064    -1.358226602977     1.080629516627     1.007825032230
         H            1.581501468064     0.249326397023     1.606381516627     1.007825032230
         H            0.443155468064     2.311873397023     0.546697516627     1.007825032230
         H            0.880737468064     1.807665397023    -1.097162483373     1.007825032230
         H           -0.821630531936     2.040642397023    -0.670391483373     1.007825032230
         H            2.208827468064    -0.937380602977    -1.163118483373     1.007825032230
         H            2.787219468064     0.622484397023    -0.559523483373     1.007825032230
         H            3.341978468064    -0.875011602977     0.191345516627     1.007825032230

  Basis Set: AUG-CC-PVTZ
    Blend: AUG-CC-PVTZ
  Basis Set: (AUG-CC-PVTZ AUX)
    Blend: AUG-CC-PVTZ-JKFIT
	 Reference Energy          =    -309.1121923786774346 [Eh]
	 Singles Energy            =      -0.0000000000000000 [Eh]
	 Same-Spin Energy          =      -0.3199751389208612 [Eh]
	 Opposite-Spin Energy      =      -1.1108702251743363 [Eh]
	 Correlation Energy        =      -1.4308453640951975 [Eh]
	 Total Energy              =    -310.5430377427726398 [Eh]

	 ================> DF-SCS-MP2 Energies <==================
	-----------------------------------------------------------
	 SCS Same-Spin Scale       =       0.3333333333333333 [-]
	 SCS Opposite-Spin Scale   =       1.2000000000000000 [-]
	 SCS Same-Spin Energy      =      -0.1066583796402870 [Eh]
	 SCS Opposite-Spin Energy  =      -1.3330442702092036 [Eh]
	 SCS Correlation Energy    =      -1.4397026498494907 [Eh]
	 SCS Total Energy          =    -310.5518950285269284 [Eh]
	-----------------------------------------------------------

  Dipole Moment: [D]
     X:     2.0589      Y:     0.3129      Z:     0.6326     Total:     2.1765

*** Psi4 exiting successfully. Buy a developer a beer!
