                               Psi4 1.3.2 release

  ==> Input File <==

--------------------------------------------------------------------------
#psi4
#
memory 32 gb

molecule  {
0 1
  O       -2.0333080    -0.4946570    -0.2594300
  C       -0.0317385     0.0853733     0.0252017
  C       -0.7556090    -0.6523520    -0.9323370
  C       -1.3382130    -0.0434820     0.9333840
  C        1.2403190    -0.3676220     0.7285870
  C        0.0785870     1.6559510    -0.2923950
  C        2.4113120    -0.4074660    -0.2524220
  H       -0.7841080    -0.2688730    -1.9587990
  H       -0.4364910    -1.7049300    -0.9420770
  H       -1.2533150    -0.8496150     1.6763590
  H       -1.8269820     0.8255510     1.3890460
  H        1.0363310    -1.3847530     1.0869340
  H        1.5166380     0.2228000     1.6126860
  H        0.3782920     2.2853470     0.5530020
  H        0.8158740     1.7811390    -1.0908580
  H       -0.8864940     2.0141160    -0.6640870
  H        2.1439640    -0.9639070    -1.1568140
  H        2.7223560     0.5959580    -0.5532190
  H        3.2771150    -0.9015380     0.1976500
units angstrom
no_reorient  #important for SAPT in psi4, default
symmetry c1  #important for SAPT in psi4, default
}

set PROPERTIES_ORIGIN ["COM"]
properties('MP2/aug-cc-pvtz', properties = ['dipole'])
--------------------------------------------------------------------------

    Molecular point group: c1
  Charge       = 0
  Multiplicity = 1
  Basis Set: AUG-CC-PVTZ
    Blend: AUG-CC-PVTZ
  Basis Set: (AUG-CC-PVTZ AUX)
    Blend: AUG-CC-PVTZ-JKFIT

    Orbital Energies [Eh]
    ---------------------

    Doubly Occupied:

       1A    -20.546241     2A    -11.273330     3A    -11.271026
       4A    -11.238868     5A    -11.229243     6A    -11.220835
       7A    -11.219471     8A     -1.374760     9A     -1.096118
      10A     -0.995937    11A     -0.938852    12A     -0.912997
      13A     -0.846843    14A     -0.733459    15A     -0.673349
      16A     -0.657288    17A     -0.626422    18A     -0.598347
      19A     -0.577473    20A     -0.555133    21A     -0.538375
      22A     -0.529091    23A     -0.524851    24A     -0.510048
      25A     -0.478712    26A     -0.454051    27A     -0.422044
      28A     -0.395258

  @DF-RHF Final Energy:  -309.10120803451804

   => Energetics <=

    Nuclear Repulsion Energy =            330.7158456132473816
    One-Electron Energy =               -1074.7572684644635501
    Two-Electron Energy =                 434.9402148166980737
    Total Energy =                       -309.1012080345180379
  Basis Set: (AUG-CC-PVTZ AUX)
    Blend: AUG-CC-PVTZ-RI
    Molecular point group: c1

    Geometry (in Angstrom), charge = 0, multiplicity = 1:

       Center              X                  Y                   Z               Mass
    ------------   -----------------  -----------------  -----------------  -----------------
         O           -1.968255124158    -0.464654122614    -0.244659708935    15.994914619570
         C            0.033314375842     0.115376177386     0.039971991065    12.000000000000
         C           -0.690556124158    -0.622349122614    -0.917566708935    12.000000000000
         C           -1.273160124158    -0.013479122614     0.948154291065    12.000000000000
         C            1.305371875842    -0.337619122614     0.743357291065    12.000000000000
         C            0.143639875842     1.685953877386    -0.277624708935    12.000000000000
         C            2.476364875842    -0.377463122614    -0.237651708935    12.000000000000
         H           -0.719055124158    -0.238870122614    -1.944028708935     1.007825032230
         H           -0.371438124158    -1.674927122614    -0.927306708935     1.007825032230
         H           -1.188262124158    -0.819612122614     1.691129291065     1.007825032230
         H           -1.761929124158     0.855553877386     1.403816291065     1.007825032230
         H            1.101383875842    -1.354750122614     1.101704291065     1.007825032230
         H            1.581690875842     0.252802877386     1.627456291065     1.007825032230
         H            0.443344875842     2.315349877386     0.567772291065     1.007825032230
         H            0.880926875842     1.811141877386    -1.076087708935     1.007825032230
         H           -0.821441124158     2.044118877386    -0.649316708935     1.007825032230
         H            2.209016875842    -0.933904122614    -1.142043708935     1.007825032230
         H            2.787408875842     0.625960877386    -0.538448708935     1.007825032230
         H            3.342167875842    -0.871535122614     0.212420291065     1.007825032230

  Basis Set: AUG-CC-PVTZ
    Blend: AUG-CC-PVTZ
  Basis Set: (AUG-CC-PVTZ AUX)
    Blend: AUG-CC-PVTZ-JKFIT
	 Reference Energy          =    -309.1012080345180379 [Eh]
	 Singles Energy            =      -0.0000000000000000 [Eh]
	 Same-Spin Energy          =      -0.3204922123887611 [Eh]
	 Opposite-Spin Energy      =      -1.1119615204874882 [Eh]
	 Correlation Energy        =      -1.4324537328762492 [Eh]
	 Total Energy              =    -310.5336617673942783 [Eh]

	 ================> DF-SCS-MP2 Energies <==================
	-----------------------------------------------------------
	 SCS Same-Spin Scale       =       0.3333333333333333 [-]
	 SCS Opposite-Spin Scale   =       1.2000000000000000 [-]
	 SCS Same-Spin Energy      =      -0.1068307374629204 [Eh]
	 SCS Opposite-Spin Energy  =      -1.3343538245849857 [Eh]
	 SCS Correlation Energy    =      -1.4411845620479062 [Eh]
	 SCS Total Energy          =    -310.5423925965659464 [Eh]
	-----------------------------------------------------------

  Dipole Moment: [D]
     X:     2.0543      Y:     0.3912      Z:     0.5716     Total:     2.1679

*** Psi4 exiting successfully. Buy a developer a beer!
