                               Psi4 1.4a3.dev225

  ==> Input File <==

--------------------------------------------------------------------------
#psi4
#
memory 32 gb

molecule  {
0 1
  O       -2.0333080    -0.4946570    -0.2594300
  C       -0.0425170     0.1992980     0.1361180
  C       -0.7995873    -0.6469242    -0.9091756
  C       -1.3382130    -0.0434820     0.9333840
  C        1.2403190    -0.3676220     0.7285870
  C        0.0785870     1.6559510    -0.2923950
  C        2.4113120    -0.4074660    -0.2524220
  H       -0.7841080    -0.2688730    -1.9587990
  H       -0.4364910    -1.7049300    -0.9420770
  H       -1.2533150    -0.8496150     1.6763590
  H       -1.8269820     0.8255510     1.3890460
  H        1.0363310    -1.3847530     1.0869340
  H        1.5166380     0.2228000     1.6126860
  H        0.3782920     2.2853470     0.5530020
  H        0.8158740     1.7811390    -1.0908580
  H       -0.8864940     2.0141160    -0.6640870
  H        2.1439640    -0.9639070    -1.1568140
  H        2.7223560     0.5959580    -0.5532190
  H        3.2771150    -0.9015380     0.1976500
units angstrom
no_reorient  #important for SAPT in psi4, default
symmetry c1  #important for SAPT in psi4, default
}

set PROPERTIES_ORIGIN ["COM"]
properties('MP2/aug-cc-pvtz', properties = ['dipole'])
--------------------------------------------------------------------------

    Molecular point group: c1
  Charge       = 0
  Multiplicity = 1
  Basis Set: AUG-CC-PVTZ
    Blend: AUG-CC-PVTZ
  Basis Set: (AUG-CC-PVTZ AUX)
    Blend: AUG-CC-PVTZ-JKFIT

    Orbital Energies [Eh]
    ---------------------

    Doubly Occupied:

       1A    -20.550138     2A    -11.276247     3A    -11.274772
       4A    -11.236151     5A    -11.227237     6A    -11.219971
       7A    -11.218321     8A     -1.389146     9A     -1.095557
      10A     -0.997240    11A     -0.929820    12A     -0.915296
      13A     -0.847083    14A     -0.730323    15A     -0.671155
      16A     -0.658262    17A     -0.630136    18A     -0.601989
      19A     -0.576816    20A     -0.562186    21A     -0.540376
      22A     -0.533810    23A     -0.525857    24A     -0.505854
      25A     -0.470872    26A     -0.442124    27A     -0.430074
      28A     -0.408520

  @DF-RHF Final Energy:  -309.12464507215498

   => Energetics <=

    Nuclear Repulsion Energy =            330.7764394827894421
    One-Electron Energy =               -1074.8715071111869293
    Two-Electron Energy =                 434.9704225562425108
    Total Energy =                       -309.1246450721549763
  Basis Set: (AUG-CC-PVTZ AUX)
    Blend: AUG-CC-PVTZ-RI
    Molecular point group: c1

    Geometry (in Angstrom), charge = 0, multiplicity = 1:

       Center              X                  Y                   Z               Mass
    ------------   -----------------  -----------------  -----------------  -----------------
         O           -1.961690138850    -0.478963713550    -0.260734755881    15.994914619570
         C            0.029100861150     0.214991286450     0.134813244119    12.000000000000
         C           -0.727969438850    -0.631230913550    -0.910480355881    12.000000000000
         C           -1.266595138850    -0.027788713550     0.932079244119    12.000000000000
         C            1.311936861150    -0.351928713550     0.727282244119    12.000000000000
         C            0.150204861150     1.671644286450    -0.293699755881    12.000000000000
         C            2.482929861150    -0.391772713550    -0.253726755881    12.000000000000
         H           -0.712490138850    -0.253179713550    -1.960103755881     1.007825032230
         H           -0.364873138850    -1.689236713550    -0.943381755881     1.007825032230
         H           -1.181697138850    -0.833921713550     1.675054244119     1.007825032230
         H           -1.755364138850     0.841244286450     1.387741244119     1.007825032230
         H            1.107948861150    -1.369059713550     1.085629244119     1.007825032230
         H            1.588255861150     0.238493286450     1.611381244119     1.007825032230
         H            0.449909861150     2.301040286450     0.551697244119     1.007825032230
         H            0.887491861150     1.796832286450    -1.092162755881     1.007825032230
         H           -0.814876138850     2.029809286450    -0.665391755881     1.007825032230
         H            2.215581861150    -0.948213713550    -1.158118755881     1.007825032230
         H            2.793973861150     0.611651286450    -0.554523755881     1.007825032230
         H            3.348732861150    -0.885844713550     0.196345244119     1.007825032230

  Basis Set: AUG-CC-PVTZ
    Blend: AUG-CC-PVTZ
  Basis Set: (AUG-CC-PVTZ AUX)
    Blend: AUG-CC-PVTZ-JKFIT
	 Reference Energy          =    -309.1246450721549763 [Eh]
	 Singles Energy            =      -0.0000000000000000 [Eh]
	 Same-Spin Energy          =      -0.3195714329954329 [Eh]
	 Opposite-Spin Energy      =      -1.1093457392814963 [Eh]
	 Correlation Energy        =      -1.4289171722769292 [Eh]
	 Total Energy              =    -310.5535622444319301 [Eh]

	 ================> DF-SCS-MP2 Energies <==================
	-----------------------------------------------------------
	 SCS Same-Spin Scale       =       0.3333333333333333 [-]
	 SCS Opposite-Spin Scale   =       1.2000000000000000 [-]
	 SCS Same-Spin Energy      =      -0.1065238109984776 [Eh]
	 SCS Opposite-Spin Energy  =      -1.3312148871377956 [Eh]
	 SCS Correlation Energy    =      -1.4377386981362732 [Eh]
	 SCS Total Energy          =    -310.5623837702912624 [Eh]
	-----------------------------------------------------------

  Dipole Moment: [D]
     X:     1.9566      Y:     0.4404      Z:     0.6045     Total:     2.0947

*** Psi4 exiting successfully. Buy a developer a beer!
