                               Psi4 1.3.2 release

  ==> Input File <==

--------------------------------------------------------------------------
#psi4
#
memory 32 gb

molecule  {
0 1
  O       -1.9552980    -0.1001660     0.0000220
  N        0.3498810    -0.0202960    -0.0000190
  C        0.4094650     1.4284440    -0.0000050
  C        1.5997520    -0.7495290     0.0000330
  C       -0.8580741    -0.6542589    -0.2500640
  H        0.9354200     1.7894750    -0.8904620
  H        0.9353900     1.7894590     0.8904760
  H       -0.6132960     1.8038840    -0.0000200
  H        2.1916710    -0.5051450    -0.8892690
  H        1.3957050    -1.8225400    -0.0000020
  H        2.1915820    -0.5051840     0.8894040
  H       -0.7500460    -1.7544780     0.0000470
units angstrom
no_reorient  #important for SAPT in psi4, default
symmetry c1  #important for SAPT in psi4, default
}

set PROPERTIES_ORIGIN ["COM"]
properties('MP2/aug-cc-pvtz', properties = ['dipole'])
--------------------------------------------------------------------------

    Molecular point group: c1
  Charge       = 0
  Multiplicity = 1
  Basis Set: AUG-CC-PVTZ
    Blend: AUG-CC-PVTZ
  Basis Set: (AUG-CC-PVTZ AUX)
    Blend: AUG-CC-PVTZ-JKFIT

    Orbital Energies [Eh]
    ---------------------

    Doubly Occupied:

       1A    -20.526285     2A    -15.598802     3A    -11.357966
       4A    -11.277468     5A    -11.260258     6A     -1.360873
       7A     -1.247914     8A     -0.985960     9A     -0.943719
      10A     -0.778303    11A     -0.695185    12A     -0.657566
      13A     -0.650730    14A     -0.577673    15A     -0.568236
      16A     -0.565208    17A     -0.539924    18A     -0.521089
      19A     -0.426204    20A     -0.373746

  @DF-RHF Final Energy:  -247.05428086006879

   => Energetics <=

    Nuclear Repulsion Energy =            180.3712209622877367
    One-Electron Energy =                -693.0247857196333143
    Two-Electron Energy =                 265.5992838972767345
    Total Energy =                       -247.0542808600687863
  Basis Set: (AUG-CC-PVTZ AUX)
    Blend: AUG-CC-PVTZ-RI
    Molecular point group: c1

    Geometry (in Angstrom), charge = 0, multiplicity = 1:

       Center              X                  Y                   Z               Mass
    ------------   -----------------  -----------------  -----------------  -----------------
         O           -1.870070796867    -0.089368541013     0.041090546221    15.994914619570
         N            0.435108203133    -0.009498541013     0.041049546221    14.003074004430
         C            0.494692203133     1.439241458987     0.041063546221    12.000000000000
         C            1.684979203133    -0.738731541013     0.041101546221    12.000000000000
         C           -0.772846896867    -0.643461441013    -0.208995453779    12.000000000000
         H            1.020647203133     1.800272458987    -0.849393453779     1.007825032230
         H            1.020617203133     1.800256458987     0.931544546221     1.007825032230
         H           -0.528068796867     1.814681458987     0.041048546221     1.007825032230
         H            2.276898203133    -0.494347541013    -0.848200453779     1.007825032230
         H            1.480932203133    -1.811742541013     0.041066546221     1.007825032230
         H            2.276809203133    -0.494386541013     0.930472546221     1.007825032230
         H           -0.664818796867    -1.743680541013     0.041115546221     1.007825032230

  Basis Set: AUG-CC-PVTZ
    Blend: AUG-CC-PVTZ
  Basis Set: (AUG-CC-PVTZ AUX)
    Blend: AUG-CC-PVTZ-JKFIT
	 Reference Energy          =    -247.0542808600687863 [Eh]
	 Singles Energy            =      -0.0000000000000000 [Eh]
	 Same-Spin Energy          =      -0.2487232662743900 [Eh]
	 Opposite-Spin Energy      =      -0.8185029464694489 [Eh]
	 Correlation Energy        =      -1.0672262127438388 [Eh]
	 Total Energy              =    -248.1215070728126193 [Eh]

	 ================> DF-SCS-MP2 Energies <==================
	-----------------------------------------------------------
	 SCS Same-Spin Scale       =       0.3333333333333333 [-]
	 SCS Opposite-Spin Scale   =       1.2000000000000000 [-]
	 SCS Same-Spin Energy      =      -0.0829077554247967 [Eh]
	 SCS Opposite-Spin Energy  =      -0.9822035357633386 [Eh]
	 SCS Correlation Energy    =      -1.0651112911881353 [Eh]
	 SCS Total Energy          =    -248.1193921512569318 [Eh]
	-----------------------------------------------------------

  Dipole Moment: [D]
     X:     4.0872      Y:    -0.3254      Z:    -0.0984     Total:     4.1014

*** Psi4 exiting successfully. Buy a developer a beer!
