                               Psi4 1.3.2 release

  ==> Input File <==

--------------------------------------------------------------------------
#psi4
#
memory 32 gb

molecule  {
0 1
  O       -1.9552980    -0.1001660     0.0000220
  N        0.3498810    -0.0202960    -0.0000190
  C        0.4094650     1.4284440    -0.0000050
  C        1.5997520    -0.7495290     0.0000330
  C       -0.8580840    -0.6542600    -0.0000640
  H        0.9354200     1.7894750    -0.8904620
  H        0.9353900     1.7894590     0.8904760
  H       -0.6132960     1.8038840    -0.0000200
  H        2.1916710    -0.5051450    -0.8892690
  H        1.3957050    -1.8225400    -0.0000020
  H        2.1915820    -0.5051840     0.8894040
  H       -0.7500494    -1.7544835    -0.1999530
units angstrom
no_reorient  #important for SAPT in psi4, default
symmetry c1  #important for SAPT in psi4, default
}

set PROPERTIES_ORIGIN ["COM"]
properties('MP2/aug-cc-pvtz', properties = ['dipole'])
--------------------------------------------------------------------------

    Molecular point group: c1
  Charge       = 0
  Multiplicity = 1
  Basis Set: AUG-CC-PVTZ
    Blend: AUG-CC-PVTZ
  Basis Set: (AUG-CC-PVTZ AUX)
    Blend: AUG-CC-PVTZ-JKFIT

    Orbital Energies [Eh]
    ---------------------

    Doubly Occupied:

       1A    -20.521639     2A    -15.596845     3A    -11.350954
       4A    -11.278310     5A    -11.261008     6A     -1.372339
       7A     -1.254245     8A     -0.986768     9A     -0.949180
      10A     -0.778916    11A     -0.701491    12A     -0.659857
      13A     -0.653903    14A     -0.582503    15A     -0.568932
      16A     -0.568173    17A     -0.540832    18A     -0.527554
      19A     -0.427814    20A     -0.377527

  @DF-RHF Final Energy:  -247.08070155262598

   => Energetics <=

    Nuclear Repulsion Energy =            181.1547753859153715
    One-Electron Energy =                -694.5533773412709024
    Two-Electron Energy =                 266.3179004027295491
    Total Energy =                       -247.0807015526259534
  Basis Set: (AUG-CC-PVTZ AUX)
    Blend: AUG-CC-PVTZ-RI
    Molecular point group: c1

    Geometry (in Angstrom), charge = 0, multiplicity = 1:

       Center              X                  Y                   Z               Mass
    ------------   -----------------  -----------------  -----------------  -----------------
         O           -1.870069123740    -0.089368284444     0.002783508320    15.994914619570
         N            0.435109876260    -0.009498284444     0.002742508320    14.003074004430
         C            0.494693876260     1.439241715556     0.002756508320    12.000000000000
         C            1.684980876260    -0.738731284444     0.002794508320    12.000000000000
         C           -0.772855123740    -0.643462284444     0.002697508320    12.000000000000
         H            1.020648876260     1.800272715556    -0.887700491680     1.007825032230
         H            1.020618876260     1.800256715556     0.893237508320     1.007825032230
         H           -0.528067123740     1.814681715556     0.002741508320     1.007825032230
         H            2.276899876260    -0.494347284444    -0.886507491680     1.007825032230
         H            1.480933876260    -1.811742284444     0.002759508320     1.007825032230
         H            2.276810876260    -0.494386284444     0.892165508320     1.007825032230
         H           -0.664820523740    -1.743685784444    -0.197191491680     1.007825032230

  Basis Set: AUG-CC-PVTZ
    Blend: AUG-CC-PVTZ
  Basis Set: (AUG-CC-PVTZ AUX)
    Blend: AUG-CC-PVTZ-JKFIT
	 Reference Energy          =    -247.0807015526259818 [Eh]
	 Singles Energy            =      -0.0000000000000000 [Eh]
	 Same-Spin Energy          =      -0.2468258545103837 [Eh]
	 Opposite-Spin Energy      =      -0.8136544237128194 [Eh]
	 Correlation Energy        =      -1.0604802782232030 [Eh]
	 Total Energy              =    -248.1411818308491775 [Eh]

	 ================> DF-SCS-MP2 Energies <==================
	-----------------------------------------------------------
	 SCS Same-Spin Scale       =       0.3333333333333333 [-]
	 SCS Opposite-Spin Scale   =       1.2000000000000000 [-]
	 SCS Same-Spin Energy      =      -0.0822752848367946 [Eh]
	 SCS Opposite-Spin Energy  =      -0.9763853084553832 [Eh]
	 SCS Correlation Energy    =      -1.0586605932921778 [Eh]
	 SCS Total Energy          =    -248.1393621459181702 [Eh]
	-----------------------------------------------------------

  Dipole Moment: [D]
     X:     4.1048      Y:    -0.3444      Z:    -0.0895     Total:     4.1202

*** Psi4 exiting successfully. Buy a developer a beer!
