                               Psi4 1.3.2 release

  ==> Input File <==

--------------------------------------------------------------------------
#psi4
#
memory 32 gb

molecule  {
0 1
  O       -1.9552980    -0.1001660     0.0000220
  N        0.3498810    -0.0202960    -0.0000190
  C        0.4094650     1.4284440    -0.0000050
  C        1.5997520    -0.7495290     0.0000330
  C       -0.8580840    -0.6542600    -0.0000640
  H        0.9354200     1.7894750    -0.8904620
  H        0.9353900     1.7894590     0.8904760
  H       -0.6132960     1.8038840    -0.0000200
  H        2.1916710    -0.5051450    -0.8892690
  H        1.3957050    -1.8225400    -0.0000020
  H        2.1915820    -0.5051840     0.8894040
  H       -0.7500468    -1.7544794    -0.0499530
units angstrom
no_reorient  #important for SAPT in psi4, default
symmetry c1  #important for SAPT in psi4, default
}

set PROPERTIES_ORIGIN ["COM"]
properties('MP2/aug-cc-pvtz', properties = ['dipole'])
--------------------------------------------------------------------------

    Molecular point group: c1
  Charge       = 0
  Multiplicity = 1
  Basis Set: AUG-CC-PVTZ
    Blend: AUG-CC-PVTZ
  Basis Set: (AUG-CC-PVTZ AUX)
    Blend: AUG-CC-PVTZ-JKFIT

    Orbital Energies [Eh]
    ---------------------

    Doubly Occupied:

       1A    -20.520813     2A    -15.596662     3A    -11.349187
       4A    -11.278420     5A    -11.260788     6A     -1.371905
       7A     -1.254079     8A     -0.986842     9A     -0.949706
      10A     -0.781676    11A     -0.702938    12A     -0.659844
      13A     -0.653614    14A     -0.583038    15A     -0.568878
      16A     -0.568164    17A     -0.540703    18A     -0.527899
      19A     -0.428490    20A     -0.377425

  @DF-RHF Final Energy:  -247.08323257934927

   => Energetics <=

    Nuclear Repulsion Energy =            181.2218179145276906
    One-Electron Energy =                -694.6879612164216269
    Two-Electron Energy =                 266.3829107225446364
    Total Energy =                       -247.0832325793492714
  Basis Set: (AUG-CC-PVTZ AUX)
    Blend: AUG-CC-PVTZ-RI
    Molecular point group: c1

    Geometry (in Angstrom), charge = 0, multiplicity = 1:

       Center              X                  Y                   Z               Mass
    ------------   -----------------  -----------------  -----------------  -----------------
         O           -1.870069159609    -0.089368341007     0.000714130697    15.994914619570
         N            0.435109840391    -0.009498341007     0.000673130697    14.003074004430
         C            0.494693840391     1.439241658993     0.000687130697    12.000000000000
         C            1.684980840391    -0.738731341007     0.000725130697    12.000000000000
         C           -0.772855159609    -0.643462341007     0.000628130697    12.000000000000
         H            1.020648840391     1.800272658993    -0.889769869303     1.007825032230
         H            1.020618840391     1.800256658993     0.891168130697     1.007825032230
         H           -0.528067159609     1.814681658993     0.000672130697     1.007825032230
         H            2.276899840391    -0.494347341007    -0.888576869303     1.007825032230
         H            1.480933840391    -1.811742341007     0.000690130697     1.007825032230
         H            2.276810840391    -0.494386341007     0.890096130697     1.007825032230
         H           -0.664817959609    -1.743681741007    -0.049260869303     1.007825032230

  Basis Set: AUG-CC-PVTZ
    Blend: AUG-CC-PVTZ
  Basis Set: (AUG-CC-PVTZ AUX)
    Blend: AUG-CC-PVTZ-JKFIT
	 Reference Energy          =    -247.0832325793492714 [Eh]
	 Singles Energy            =      -0.0000000000000000 [Eh]
	 Same-Spin Energy          =      -0.2466580998437818 [Eh]
	 Opposite-Spin Energy      =      -0.8132980370427987 [Eh]
	 Correlation Energy        =      -1.0599561368865804 [Eh]
	 Total Energy              =    -248.1431887162358407 [Eh]

	 ================> DF-SCS-MP2 Energies <==================
	-----------------------------------------------------------
	 SCS Same-Spin Scale       =       0.3333333333333333 [-]
	 SCS Opposite-Spin Scale   =       1.2000000000000000 [-]
	 SCS Same-Spin Energy      =      -0.0822193666145939 [Eh]
	 SCS Opposite-Spin Energy  =      -0.9759576444513584 [Eh]
	 SCS Correlation Energy    =      -1.0581770110659523 [Eh]
	 SCS Total Energy          =    -248.1414095904152362 [Eh]
	-----------------------------------------------------------

  Dipole Moment: [D]
     X:     4.1141      Y:    -0.3756      Z:    -0.0229     Total:     4.1313

*** Psi4 exiting successfully. Buy a developer a beer!
