                               Psi4 1.3.2 release

  ==> Input File <==

--------------------------------------------------------------------------
#psi4
#
memory 32 gb

molecule  {
0 1
  O       -1.9552980    -0.1001660     0.0000220
  N        0.3498810    -0.0202960    -0.0000190
  C        0.4094650     1.4284440    -0.0000050
  C        1.5997520    -0.7495290     0.0000330
  C       -0.8580840    -0.6542600    -0.0000640
  H        0.9354200     1.7894750    -0.8904620
  H        0.9353900     1.7894590     0.8904760
  H       -0.6132960     1.8038840    -0.0000200
  H        2.1916710    -0.5051450    -0.8892690
  H        1.3957050    -1.8225400    -0.0000020
  H        2.1915820    -0.5051840     0.8894040
  H       -0.7500477    -1.7544807    -0.0999530
units angstrom
no_reorient  #important for SAPT in psi4, default
symmetry c1  #important for SAPT in psi4, default
}

set PROPERTIES_ORIGIN ["COM"]
properties('MP2/aug-cc-pvtz', properties = ['dipole'])
--------------------------------------------------------------------------

    Molecular point group: c1
  Charge       = 0
  Multiplicity = 1
  Basis Set: AUG-CC-PVTZ
    Blend: AUG-CC-PVTZ
  Basis Set: (AUG-CC-PVTZ AUX)
    Blend: AUG-CC-PVTZ-JKFIT

    Orbital Energies [Eh]
    ---------------------

    Doubly Occupied:

       1A    -20.520978     2A    -15.596697     3A    -11.349543
       4A    -11.278397     5A    -11.260832     6A     -1.371991
       7A     -1.254112     8A     -0.986825     9A     -0.949596
      10A     -0.781103    11A     -0.702650    12A     -0.659846
      13A     -0.653671    14A     -0.582933    15A     -0.568889
      16A     -0.568165    17A     -0.540729    18A     -0.527827
      19A     -0.428357    20A     -0.377445

  @DF-RHF Final Energy:  -247.08274310166195

   => Energetics <=

    Nuclear Repulsion Energy =            181.2082342320295254
    One-Electron Energy =                -694.6607831427452311
    Two-Electron Energy =                 266.3698058090537302
    Total Energy =                       -247.0827431016619471
  Basis Set: (AUG-CC-PVTZ AUX)
    Blend: AUG-CC-PVTZ-RI
    Molecular point group: c1

    Geometry (in Angstrom), charge = 0, multiplicity = 1:

       Center              X                  Y                   Z               Mass
    ------------   -----------------  -----------------  -----------------  -----------------
         O           -1.870069147193    -0.089368323073     0.001403923238    15.994914619570
         N            0.435109852807    -0.009498323073     0.001362923238    14.003074004430
         C            0.494693852807     1.439241676927     0.001376923238    12.000000000000
         C            1.684980852807    -0.738731323073     0.001414923238    12.000000000000
         C           -0.772855147193    -0.643462323073     0.001317923238    12.000000000000
         H            1.020648852807     1.800272676927    -0.889080076762     1.007825032230
         H            1.020618852807     1.800256676927     0.891857923238     1.007825032230
         H           -0.528067147193     1.814681676927     0.001361923238     1.007825032230
         H            2.276899852807    -0.494347323073    -0.887887076762     1.007825032230
         H            1.480933852807    -1.811742323073     0.001379923238     1.007825032230
         H            2.276810852807    -0.494386323073     0.890785923238     1.007825032230
         H           -0.664818847193    -1.743683023073    -0.098571076762     1.007825032230

  Basis Set: AUG-CC-PVTZ
    Blend: AUG-CC-PVTZ
  Basis Set: (AUG-CC-PVTZ AUX)
    Blend: AUG-CC-PVTZ-JKFIT
	 Reference Energy          =    -247.0827431016619471 [Eh]
	 Singles Energy            =      -0.0000000000000000 [Eh]
	 Same-Spin Energy          =      -0.2466917738507059 [Eh]
	 Opposite-Spin Energy      =      -0.8133673460197641 [Eh]
	 Correlation Energy        =      -1.0600591198704701 [Eh]
	 Total Energy              =    -248.1428022215324063 [Eh]

	 ================> DF-SCS-MP2 Energies <==================
	-----------------------------------------------------------
	 SCS Same-Spin Scale       =       0.3333333333333333 [-]
	 SCS Opposite-Spin Scale   =       1.2000000000000000 [-]
	 SCS Same-Spin Energy      =      -0.0822305912835686 [Eh]
	 SCS Opposite-Spin Energy  =      -0.9760408152237169 [Eh]
	 SCS Correlation Energy    =      -1.0582714065072856 [Eh]
	 SCS Total Energy          =    -248.1410145081692349 [Eh]
	-----------------------------------------------------------

  Dipole Moment: [D]
     X:     4.1122      Y:    -0.3694      Z:    -0.0456     Total:     4.1291

*** Psi4 exiting successfully. Buy a developer a beer!
