                               Psi4 1.3.2 release

  ==> Input File <==

--------------------------------------------------------------------------
#psi4
#
memory 32 gb

molecule  {
0 1
  O       -1.9552980    -0.1001660     0.0000220
  N        0.3498810    -0.0202960    -0.0000190
  C        0.4094650     1.4284440    -0.0000050
  C        1.5997520    -0.7495290     0.0000330
  C       -0.8580820    -0.6542598    -0.0500640
  H        0.9354200     1.7894750    -0.8904620
  H        0.9353900     1.7894590     0.8904760
  H       -0.6132960     1.8038840    -0.0000200
  H        2.1916710    -0.5051450    -0.8892690
  H        1.3957050    -1.8225400    -0.0000020
  H        2.1915820    -0.5051840     0.8894040
  H       -0.7500460    -1.7544780     0.0000470
units angstrom
no_reorient  #important for SAPT in psi4, default
symmetry c1  #important for SAPT in psi4, default
}

set PROPERTIES_ORIGIN ["COM"]
properties('MP2/aug-cc-pvtz', properties = ['dipole'])
--------------------------------------------------------------------------

    Molecular point group: c1
  Charge       = 0
  Multiplicity = 1
  Basis Set: AUG-CC-PVTZ
    Blend: AUG-CC-PVTZ
  Basis Set: (AUG-CC-PVTZ AUX)
    Blend: AUG-CC-PVTZ-JKFIT

    Orbital Energies [Eh]
    ---------------------

    Doubly Occupied:

       1A    -20.520979     2A    -15.596742     3A    -11.349448
       4A    -11.278388     5A    -11.260753     6A     -1.371419
       7A     -1.253810     8A     -0.986811     9A     -0.949498
      10A     -0.781703    11A     -0.702715    12A     -0.659747
      13A     -0.653476    14A     -0.582859    15A     -0.568854
      16A     -0.568045    17A     -0.540667    18A     -0.527630
      19A     -0.428427    20A     -0.377263

  @DF-RHF Final Energy:  -247.08223136562489

   => Energetics <=

    Nuclear Repulsion Energy =            181.1911951957978602
    One-Electron Energy =                -694.6283853583053087
    Two-Electron Energy =                 266.3549587968826131
    Total Energy =                       -247.0822313656248639
  Basis Set: (AUG-CC-PVTZ AUX)
    Blend: AUG-CC-PVTZ-RI
    Molecular point group: c1

    Geometry (in Angstrom), charge = 0, multiplicity = 1:

       Center              X                  Y                   Z               Mass
    ------------   -----------------  -----------------  -----------------  -----------------
         O           -1.870069499175    -0.089368393174     0.008237579769    15.994914619570
         N            0.435109500825    -0.009498393174     0.008196579769    14.003074004430
         C            0.494693500825     1.439241606826     0.008210579769    12.000000000000
         C            1.684980500825    -0.738731393174     0.008248579769    12.000000000000
         C           -0.772853499175    -0.643462193174    -0.041848420231    12.000000000000
         H            1.020648500825     1.800272606826    -0.882246420231     1.007825032230
         H            1.020618500825     1.800256606826     0.898691579769     1.007825032230
         H           -0.528067499175     1.814681606826     0.008195579769     1.007825032230
         H            2.276899500825    -0.494347393174    -0.881053420231     1.007825032230
         H            1.480933500825    -1.811742393174     0.008213579769     1.007825032230
         H            2.276810500825    -0.494386393174     0.897619579769     1.007825032230
         H           -0.664817499175    -1.743680393174     0.008262579769     1.007825032230

  Basis Set: AUG-CC-PVTZ
    Blend: AUG-CC-PVTZ
  Basis Set: (AUG-CC-PVTZ AUX)
    Blend: AUG-CC-PVTZ-JKFIT
	 Reference Energy          =    -247.0822313656248923 [Eh]
	 Singles Energy            =      -0.0000000000000000 [Eh]
	 Same-Spin Energy          =      -0.2467304702417353 [Eh]
	 Opposite-Spin Energy      =      -0.8134656519584660 [Eh]
	 Correlation Energy        =      -1.0601961222002012 [Eh]
	 Total Energy              =    -248.1424274878251026 [Eh]

	 ================> DF-SCS-MP2 Energies <==================
	-----------------------------------------------------------
	 SCS Same-Spin Scale       =       0.3333333333333333 [-]
	 SCS Opposite-Spin Scale   =       1.2000000000000000 [-]
	 SCS Same-Spin Energy      =      -0.0822434900805784 [Eh]
	 SCS Opposite-Spin Energy  =      -0.9761587823501592 [Eh]
	 SCS Correlation Energy    =      -1.0584022724307376 [Eh]
	 SCS Total Energy          =    -248.1406336380556183 [Eh]
	-----------------------------------------------------------

  Dipole Moment: [D]
     X:     4.1137      Y:    -0.3755      Z:    -0.0255     Total:     4.1308

*** Psi4 exiting successfully. Buy a developer a beer!
