                               Psi4 1.3.2 release

  ==> Input File <==

--------------------------------------------------------------------------
#psi4
#
memory 32 gb

molecule  {
0 1
  O       -1.9552980    -0.1001660     0.0000220
  N        0.3498810    -0.0202960    -0.0000190
  C        0.4094650     1.4284440    -0.0000050
  C        1.5997520    -0.7495290     0.0000330
  C       -0.8580781    -0.6542594    -0.1500640
  H        0.9354200     1.7894750    -0.8904620
  H        0.9353900     1.7894590     0.8904760
  H       -0.6132960     1.8038840    -0.0000200
  H        2.1916710    -0.5051450    -0.8892690
  H        1.3957050    -1.8225400    -0.0000020
  H        2.1915820    -0.5051840     0.8894040
  H       -0.7500460    -1.7544780     0.0000470
units angstrom
no_reorient  #important for SAPT in psi4, default
symmetry c1  #important for SAPT in psi4, default
}

set PROPERTIES_ORIGIN ["COM"]
properties('MP2/aug-cc-pvtz', properties = ['dipole'])
--------------------------------------------------------------------------

    Molecular point group: c1
  Charge       = 0
  Multiplicity = 1
  Basis Set: AUG-CC-PVTZ
    Blend: AUG-CC-PVTZ
  Basis Set: (AUG-CC-PVTZ AUX)
    Blend: AUG-CC-PVTZ-JKFIT

    Orbital Energies [Eh]
    ---------------------

    Doubly Occupied:

       1A    -20.522747     2A    -15.597459     3A    -11.352413
       4A    -11.278075     5A    -11.260584     6A     -1.367825
       7A     -1.251782     8A     -0.986520     9A     -0.947548
      10A     -0.780455    11A     -0.700177    12A     -0.658992
      13A     -0.652539    14A     -0.581141    15A     -0.568665
      16A     -0.567105    17A     -0.540435    18A     -0.525352
      19A     -0.427619    20A     -0.376050

  @DF-RHF Final Energy:  -247.07293888039345

   => Energetics <=

    Nuclear Repulsion Energy =            180.9131591794435963
    One-Electron Energy =                -694.0852254916727588
    Two-Electron Energy =                 266.0991274318357114
    Total Energy =                       -247.0729388803934512
  Basis Set: (AUG-CC-PVTZ AUX)
    Blend: AUG-CC-PVTZ-RI
    Molecular point group: c1

    Geometry (in Angstrom), charge = 0, multiplicity = 1:

       Center              X                  Y                   Z               Mass
    ------------   -----------------  -----------------  -----------------  -----------------
         O           -1.870070139808    -0.089368458880     0.024664062995    15.994914619570
         N            0.435108860192    -0.009498458880     0.024623062995    14.003074004430
         C            0.494692860192     1.439241541120     0.024637062995    12.000000000000
         C            1.684979860192    -0.738731458880     0.024675062995    12.000000000000
         C           -0.772850239808    -0.643461858880    -0.125421937005    12.000000000000
         H            1.020647860192     1.800272541120    -0.865819937005     1.007825032230
         H            1.020617860192     1.800256541120     0.915118062995     1.007825032230
         H           -0.528068139808     1.814681541120     0.024622062995     1.007825032230
         H            2.276898860192    -0.494347458880    -0.864626937005     1.007825032230
         H            1.480932860192    -1.811742458880     0.024640062995     1.007825032230
         H            2.276809860192    -0.494386458880     0.914046062995     1.007825032230
         H           -0.664818139808    -1.743680458880     0.024689062995     1.007825032230

  Basis Set: AUG-CC-PVTZ
    Blend: AUG-CC-PVTZ
  Basis Set: (AUG-CC-PVTZ AUX)
    Blend: AUG-CC-PVTZ-JKFIT
	 Reference Energy          =    -247.0729388803934512 [Eh]
	 Singles Energy            =      -0.0000000000000000 [Eh]
	 Same-Spin Energy          =      -0.2473972914287449 [Eh]
	 Opposite-Spin Energy      =      -0.8150783450087088 [Eh]
	 Correlation Energy        =      -1.0624756364374537 [Eh]
	 Total Energy              =    -248.1354145168309060 [Eh]

	 ================> DF-SCS-MP2 Energies <==================
	-----------------------------------------------------------
	 SCS Same-Spin Scale       =       0.3333333333333333 [-]
	 SCS Opposite-Spin Scale   =       1.2000000000000000 [-]
	 SCS Same-Spin Energy      =      -0.0824657638095816 [Eh]
	 SCS Opposite-Spin Energy  =      -0.9780940140104505 [Eh]
	 SCS Correlation Energy    =      -1.0605597778200322 [Eh]
	 SCS Total Energy          =    -248.1334986582134832 [Eh]
	-----------------------------------------------------------

  Dipole Moment: [D]
     X:     4.1048      Y:    -0.3586      Z:    -0.0706     Total:     4.1210

*** Psi4 exiting successfully. Buy a developer a beer!
