                               Psi4 1.3.2 release

  ==> Input File <==

--------------------------------------------------------------------------
#psi4
#
memory 32 gb

molecule  {
0 1
  O       -1.9552980    -0.1001660     0.0000220
  N        0.3498810    -0.0202960    -0.0000190
  C        0.4094650     1.4284440    -0.0000050
  C        1.5997520    -0.7495290     0.0000330
  C       -0.8580800    -0.6542596    -0.1000640
  H        0.9354200     1.7894750    -0.8904620
  H        0.9353900     1.7894590     0.8904760
  H       -0.6132960     1.8038840    -0.0000200
  H        2.1916710    -0.5051450    -0.8892690
  H        1.3957050    -1.8225400    -0.0000020
  H        2.1915820    -0.5051840     0.8894040
  H       -0.7500460    -1.7544780     0.0000470
units angstrom
no_reorient  #important for SAPT in psi4, default
symmetry c1  #important for SAPT in psi4, default
}

set PROPERTIES_ORIGIN ["COM"]
properties('MP2/aug-cc-pvtz', properties = ['dipole'])
--------------------------------------------------------------------------

    Molecular point group: c1
  Charge       = 0
  Multiplicity = 1
  Basis Set: AUG-CC-PVTZ
    Blend: AUG-CC-PVTZ
  Basis Set: (AUG-CC-PVTZ AUX)
    Blend: AUG-CC-PVTZ-JKFIT

    Orbital Energies [Eh]
    ---------------------

    Doubly Occupied:

       1A    -20.521642     2A    -15.597015     3A    -11.350576
       4A    -11.278270     5A    -11.260689     6A     -1.370061
       7A     -1.253042     8A     -0.986701     9A     -0.948764
      10A     -0.781220    11A     -0.701761    12A     -0.659461
      13A     -0.653122    14A     -0.582216    15A     -0.568786
      16A     -0.567692    17A     -0.540582    18A     -0.526763
      19A     -0.428116    20A     -0.376804

  @DF-RHF Final Energy:  -247.07875019855788

   => Energetics <=

    Nuclear Repulsion Energy =            181.0863478660014323
    One-Electron Energy =                -694.4236323295110651
    Two-Electron Energy =                 266.2585342649517202
    Total Energy =                       -247.0787501985578842
  Basis Set: (AUG-CC-PVTZ AUX)
    Blend: AUG-CC-PVTZ-RI
    Molecular point group: c1

    Geometry (in Angstrom), charge = 0, multiplicity = 1:

       Center              X                  Y                   Z               Mass
    ------------   -----------------  -----------------  -----------------  -----------------
         O           -1.870069827705    -0.089368426027     0.016450821382    15.994914619570
         N            0.435109172295    -0.009498426027     0.016409821382    14.003074004430
         C            0.494693172295     1.439241573973     0.016423821382    12.000000000000
         C            1.684980172295    -0.738731426027     0.016461821382    12.000000000000
         C           -0.772851827705    -0.643462026027    -0.083635178618    12.000000000000
         H            1.020648172295     1.800272573973    -0.874033178618     1.007825032230
         H            1.020618172295     1.800256573973     0.906904821382     1.007825032230
         H           -0.528067827705     1.814681573973     0.016408821382     1.007825032230
         H            2.276899172295    -0.494347426027    -0.872840178618     1.007825032230
         H            1.480933172295    -1.811742426027     0.016426821382     1.007825032230
         H            2.276810172295    -0.494386426027     0.905832821382     1.007825032230
         H           -0.664817827705    -1.743680426027     0.016475821382     1.007825032230

  Basis Set: AUG-CC-PVTZ
    Blend: AUG-CC-PVTZ
  Basis Set: (AUG-CC-PVTZ AUX)
    Blend: AUG-CC-PVTZ-JKFIT
	 Reference Energy          =    -247.0787501985578842 [Eh]
	 Singles Energy            =      -0.0000000000000000 [Eh]
	 Same-Spin Energy          =      -0.2469806522394222 [Eh]
	 Opposite-Spin Energy      =      -0.8140544349973236 [Eh]
	 Correlation Energy        =      -1.0610350872367458 [Eh]
	 Total Energy              =    -248.1397852857946305 [Eh]

	 ================> DF-SCS-MP2 Energies <==================
	-----------------------------------------------------------
	 SCS Same-Spin Scale       =       0.3333333333333333 [-]
	 SCS Opposite-Spin Scale   =       1.2000000000000000 [-]
	 SCS Same-Spin Energy      =      -0.0823268840798074 [Eh]
	 SCS Opposite-Spin Energy  =      -0.9768653219967882 [Eh]
	 SCS Correlation Energy    =      -1.0591922060765957 [Eh]
	 SCS Total Energy          =    -248.1379424046344866 [Eh]
	-----------------------------------------------------------

  Dipole Moment: [D]
     X:     4.1103      Y:    -0.3692      Z:    -0.0496     Total:     4.1272

*** Psi4 exiting successfully. Buy a developer a beer!
