                               Psi4 1.3.2 release

  ==> Input File <==

--------------------------------------------------------------------------
#psi4
#
memory 32 gb

molecule  {
0 1
  O       -1.9552980    -0.1001660     0.0000220
  N        0.3498810    -0.0202960    -0.0000190
  C        0.4094650     1.4284440    -0.0000050
  C        1.5997520    -0.7495290     0.0000330
  C       -0.8580840    -0.6542600    -0.0000640
  H        0.9354200     1.7894750    -0.8904620
  H        0.9353900     1.7894590     0.8904760
  H       -0.6132960     1.8038840    -0.0000200
  H        2.1916710    -0.5051450    -0.8892690
  H        1.3957050    -1.8225400    -0.0000020
  H        2.1915820    -0.5051840     0.8894040
  H       -0.7500485    -1.7544821    -0.1499530
units angstrom
no_reorient  #important for SAPT in psi4, default
symmetry c1  #important for SAPT in psi4, default
}

set PROPERTIES_ORIGIN ["COM"]
properties('MP2/aug-cc-pvtz', properties = ['dipole'])
--------------------------------------------------------------------------

    Molecular point group: c1
  Charge       = 0
  Multiplicity = 1
  Basis Set: AUG-CC-PVTZ
    Blend: AUG-CC-PVTZ
  Basis Set: (AUG-CC-PVTZ AUX)
    Blend: AUG-CC-PVTZ-JKFIT

    Orbital Energies [Eh]
    ---------------------

    Doubly Occupied:

       1A    -20.521254     2A    -15.596758     3A    -11.350134
       4A    -11.278360     5A    -11.260905     6A     -1.372136
       7A     -1.254167     8A     -0.986800     9A     -0.949418
      10A     -0.780172    11A     -0.702168    12A     -0.659850
      13A     -0.653767    14A     -0.582755    15A     -0.568907
      16A     -0.568167    17A     -0.540772    18A     -0.527710
      19A     -0.428133    20A     -0.377479

  @DF-RHF Final Energy:  -247.08190794332535

   => Energetics <=

    Nuclear Repulsion Energy =            181.1857892497005480
    One-Electron Energy =                -694.6157746091547551
    Two-Electron Energy =                 266.3480774161288878
    Total Energy =                       -247.0819079433253478
  Basis Set: (AUG-CC-PVTZ AUX)
    Blend: AUG-CC-PVTZ-RI
    Molecular point group: c1

    Geometry (in Angstrom), charge = 0, multiplicity = 1:

       Center              X                  Y                   Z               Mass
    ------------   -----------------  -----------------  -----------------  -----------------
         O           -1.870069136156    -0.089368303759     0.002093715779    15.994914619570
         N            0.435109863844    -0.009498303759     0.002052715779    14.003074004430
         C            0.494693863844     1.439241696241     0.002066715779    12.000000000000
         C            1.684980863844    -0.738731303759     0.002104715779    12.000000000000
         C           -0.772855136156    -0.643462303759     0.002007715779    12.000000000000
         H            1.020648863844     1.800272696241    -0.888390284221     1.007825032230
         H            1.020618863844     1.800256696241     0.892547715779     1.007825032230
         H           -0.528067136156     1.814681696241     0.002051715779     1.007825032230
         H            2.276899863844    -0.494347303759    -0.887197284221     1.007825032230
         H            1.480933863844    -1.811742303759     0.002069715779     1.007825032230
         H            2.276810863844    -0.494386303759     0.891475715779     1.007825032230
         H           -0.664819636156    -1.743684403759    -0.147881284221     1.007825032230

  Basis Set: AUG-CC-PVTZ
    Blend: AUG-CC-PVTZ
  Basis Set: (AUG-CC-PVTZ AUX)
    Blend: AUG-CC-PVTZ-JKFIT
	 Reference Energy          =    -247.0819079433253478 [Eh]
	 Singles Energy            =      -0.0000000000000000 [Eh]
	 Same-Spin Energy          =      -0.2467477841443965 [Eh]
	 Opposite-Spin Energy      =      -0.8134852900431710 [Eh]
	 Correlation Energy        =      -1.0602330741875676 [Eh]
	 Total Energy              =    -248.1421410175129267 [Eh]

	 ================> DF-SCS-MP2 Energies <==================
	-----------------------------------------------------------
	 SCS Same-Spin Scale       =       0.3333333333333333 [-]
	 SCS Opposite-Spin Scale   =       1.2000000000000000 [-]
	 SCS Same-Spin Energy      =      -0.0822492613814655 [Eh]
	 SCS Opposite-Spin Energy  =      -0.9761823480518053 [Eh]
	 SCS Correlation Energy    =      -1.0584316094332709 [Eh]
	 SCS Total Energy          =    -248.1403395527586326 [Eh]
	-----------------------------------------------------------

  Dipole Moment: [D]
     X:     4.1091      Y:    -0.3590      Z:    -0.0679     Total:     4.1253

*** Psi4 exiting successfully. Buy a developer a beer!
