                               Psi4 1.3.2 release

  ==> Input File <==

--------------------------------------------------------------------------
#psi4
#
memory 32 gb

molecule  {
0 1
  O       -1.9552980    -0.1001660     0.0000220
  N        0.3498810    -0.0202960    -0.0000190
  C        0.4094650     1.4284440    -0.0000050
  C        1.5997520    -0.7495290     0.0000330
  C       -0.8580840    -0.6542600    -0.0000640
  H        0.9354200     1.7894750    -0.8904620
  H        0.9353900     1.7894590     0.8904760
  H       -0.6132960     1.8038840    -0.0000200
  H        2.1916710    -0.5051450    -0.8892690
  H        1.3957050    -1.8225400    -0.0000020
  H        2.1915820    -0.5051840     0.8894040
  H       -0.7500460    -1.7544780     0.0000470
units angstrom
no_reorient  #important for SAPT in psi4, default
symmetry c1  #important for SAPT in psi4, default
}

set PROPERTIES_ORIGIN ["COM"]
properties('MP2/aug-cc-pvtz', properties = ['dipole'])
--------------------------------------------------------------------------

    Molecular point group: c1
  Charge       = 0
  Multiplicity = 1
  Basis Set: AUG-CC-PVTZ
    Blend: AUG-CC-PVTZ
  Basis Set: (AUG-CC-PVTZ AUX)
    Blend: AUG-CC-PVTZ-JKFIT

    Orbital Energies [Eh]
    ---------------------

    Doubly Occupied:

       1A    -20.520758     2A    -15.596650     3A    -11.349068
       4A    -11.278427     5A    -11.260774     6A     -1.371876
       7A     -1.254069     8A     -0.986847     9A     -0.949744
      10A     -0.781868    11A     -0.703034    12A     -0.659843
      13A     -0.653595    14A     -0.583073    15A     -0.568875
      16A     -0.568163    17A     -0.540695    18A     -0.527924
      19A     -0.428534    20A     -0.377418

  @DF-RHF Final Energy:  -247.08339302396885

   => Energetics <=

    Nuclear Repulsion Energy =            181.2263605762657619
    One-Electron Energy =                -694.6970392515178219
    Two-Electron Energy =                 266.3872856512832641
    Total Energy =                       -247.0833930239688243
  Basis Set: (AUG-CC-PVTZ AUX)
    Blend: AUG-CC-PVTZ-RI
    Molecular point group: c1

    Geometry (in Angstrom), charge = 0, multiplicity = 1:

       Center              X                  Y                   Z               Mass
    ------------   -----------------  -----------------  -----------------  -----------------
         O           -1.870069170646    -0.089368360322     0.000024338156    15.994914619570
         N            0.435109829354    -0.009498360322    -0.000016661844    14.003074004430
         C            0.494693829354     1.439241639678    -0.000002661844    12.000000000000
         C            1.684980829354    -0.738731360322     0.000035338156    12.000000000000
         C           -0.772855170646    -0.643462360322    -0.000061661844    12.000000000000
         H            1.020648829354     1.800272639678    -0.890459661844     1.007825032230
         H            1.020618829354     1.800256639678     0.890478338156     1.007825032230
         H           -0.528067170646     1.814681639678    -0.000017661844     1.007825032230
         H            2.276899829354    -0.494347360322    -0.889266661844     1.007825032230
         H            1.480933829354    -1.811742360322     0.000000338156     1.007825032230
         H            2.276810829354    -0.494386360322     0.889406338156     1.007825032230
         H           -0.664817170646    -1.743680360322     0.000049338156     1.007825032230

  Basis Set: AUG-CC-PVTZ
    Blend: AUG-CC-PVTZ
  Basis Set: (AUG-CC-PVTZ AUX)
    Blend: AUG-CC-PVTZ-JKFIT
	 Reference Energy          =    -247.0833930239688527 [Eh]
	 Singles Energy            =      -0.0000000000000000 [Eh]
	 Same-Spin Energy          =      -0.2466469127282055 [Eh]
	 Opposite-Spin Energy      =      -0.8132753002090288 [Eh]
	 Correlation Energy        =      -1.0599222129372343 [Eh]
	 Total Energy              =    -248.1433152369060906 [Eh]

	 ================> DF-SCS-MP2 Energies <==================
	-----------------------------------------------------------
	 SCS Same-Spin Scale       =       0.3333333333333333 [-]
	 SCS Opposite-Spin Scale   =       1.2000000000000000 [-]
	 SCS Same-Spin Energy      =      -0.0822156375760685 [Eh]
	 SCS Opposite-Spin Energy  =      -0.9759303602508346 [Eh]
	 SCS Correlation Energy    =      -1.0581459978269030 [Eh]
	 SCS Total Energy          =    -248.1415390217957508 [Eh]
	-----------------------------------------------------------

  Dipole Moment: [D]
     X:     4.1148      Y:    -0.3777      Z:    -0.0000     Total:     4.1321

*** Psi4 exiting successfully. Buy a developer a beer!
