                               Psi4 1.3.2 release

  ==> Input File <==

--------------------------------------------------------------------------
#psi4
#
memory 32 gb

molecule  {
0 1
  O       -1.9552980    -0.1001660     0.0000220
  N        0.3498810    -0.0202960    -0.0000190
  C        0.4094650     1.4284440    -0.0000050
  C        1.5997520    -0.7495290     0.0000330
  C       -0.8580840    -0.6542600    -0.0000640
  H        0.9354200     1.7894750    -0.8904620
  H        0.9353900     1.7894590     0.8904760
  H       -0.6132960     1.8038840    -0.0000200
  H        2.1916710    -0.5051450    -0.8892690
  H        1.3957050    -1.8225400    -0.0000020
  H        2.1915820    -0.5051840     0.8894040
  H       -0.7500511    -1.7544862    -0.2999530
units angstrom
no_reorient  #important for SAPT in psi4, default
symmetry c1  #important for SAPT in psi4, default
}

set PROPERTIES_ORIGIN ["COM"]
properties('MP2/aug-cc-pvtz', properties = ['dipole'])
--------------------------------------------------------------------------

    Molecular point group: c1
  Charge       = 0
  Multiplicity = 1
  Basis Set: AUG-CC-PVTZ
    Blend: AUG-CC-PVTZ
  Basis Set: (AUG-CC-PVTZ AUX)
    Blend: AUG-CC-PVTZ-JKFIT

    Orbital Energies [Eh]
    ---------------------

    Doubly Occupied:

       1A    -20.522741     2A    -15.597111     3A    -11.353250
       4A    -11.278174     5A    -11.261306     6A     -1.372924
       7A     -1.254479     8A     -0.986700     9A     -0.948573
      10A     -0.775617    11A     -0.699555    12A     -0.659886
      13A     -0.654298    14A     -0.581760    15A     -0.569004
      16A     -0.568199    17A     -0.541009    18A     -0.527148
      19A     -0.426873    20A     -0.377664

  @DF-RHF Final Energy:  -247.07704681853056

   => Energetics <=

    Nuclear Repulsion Energy =            181.0686871530020312
    One-Electron Energy =                -694.3789292696008033
    Two-Electron Energy =                 266.2331952980682672
    Total Energy =                       -247.0770468185305617
  Basis Set: (AUG-CC-PVTZ AUX)
    Blend: AUG-CC-PVTZ-RI
    Molecular point group: c1

    Geometry (in Angstrom), charge = 0, multiplicity = 1:

       Center              X                  Y                   Z               Mass
    ------------   -----------------  -----------------  -----------------  -----------------
         O           -1.870069100287    -0.089368247196     0.004163093402    15.994914619570
         N            0.435109899713    -0.009498247196     0.004122093402    14.003074004430
         C            0.494693899713     1.439241752804     0.004136093402    12.000000000000
         C            1.684980899713    -0.738731247196     0.004174093402    12.000000000000
         C           -0.772855100287    -0.643462247196     0.004077093402    12.000000000000
         H            1.020648899713     1.800272752804    -0.886320906598     1.007825032230
         H            1.020618899713     1.800256752804     0.894617093402     1.007825032230
         H           -0.528067100287     1.814681752804     0.004121093402     1.007825032230
         H            2.276899899713    -0.494347247196    -0.885127906598     1.007825032230
         H            1.480933899713    -1.811742247196     0.004139093402     1.007825032230
         H            2.276810899713    -0.494386247196     0.893545093402     1.007825032230
         H           -0.664822200287    -1.743688447196    -0.295811906598     1.007825032230

  Basis Set: AUG-CC-PVTZ
    Blend: AUG-CC-PVTZ
  Basis Set: (AUG-CC-PVTZ AUX)
    Blend: AUG-CC-PVTZ-JKFIT
	 Reference Energy          =    -247.0770468185305617 [Eh]
	 Singles Energy            =      -0.0000000000000000 [Eh]
	 Same-Spin Energy          =      -0.2470463826795225 [Eh]
	 Opposite-Spin Energy      =      -0.8141550488411224 [Eh]
	 Correlation Energy        =      -1.0612014315206451 [Eh]
	 Total Energy              =    -248.1382482500512197 [Eh]

	 ================> DF-SCS-MP2 Energies <==================
	-----------------------------------------------------------
	 SCS Same-Spin Scale       =       0.3333333333333333 [-]
	 SCS Opposite-Spin Scale   =       1.2000000000000000 [-]
	 SCS Same-Spin Energy      =      -0.0823487942265075 [Eh]
	 SCS Opposite-Spin Energy  =      -0.9769860586093468 [Eh]
	 SCS Correlation Energy    =      -1.0593348528358544 [Eh]
	 SCS Total Energy          =    -248.1363816713664221 [Eh]
	-----------------------------------------------------------

  Dipole Moment: [D]
     X:     4.0929      Y:    -0.3026      Z:    -0.1295     Total:     4.1061

*** Psi4 exiting successfully. Buy a developer a beer!
