                               Psi4 1.3.2 release

  ==> Input File <==

--------------------------------------------------------------------------
#psi4
#
memory 32 gb

molecule  {
0 1
  O       -1.9552980    -0.1001660     0.0000220
  N        0.3498810    -0.0202960    -0.0000190
  C        0.4094650     1.4284440    -0.0000050
  C        1.5997520    -0.7495290     0.0000330
  C       -0.8580721    -0.6542587    -0.3000640
  H        0.9354200     1.7894750    -0.8904620
  H        0.9353900     1.7894590     0.8904760
  H       -0.6132960     1.8038840    -0.0000200
  H        2.1916710    -0.5051450    -0.8892690
  H        1.3957050    -1.8225400    -0.0000020
  H        2.1915820    -0.5051840     0.8894040
  H       -0.7500460    -1.7544780     0.0000470
units angstrom
no_reorient  #important for SAPT in psi4, default
symmetry c1  #important for SAPT in psi4, default
}

set PROPERTIES_ORIGIN ["COM"]
properties('MP2/aug-cc-pvtz', properties = ['dipole'])
--------------------------------------------------------------------------

    Molecular point group: c1
  Charge       = 0
  Multiplicity = 1
  Basis Set: AUG-CC-PVTZ
    Blend: AUG-CC-PVTZ
  Basis Set: (AUG-CC-PVTZ AUX)
    Blend: AUG-CC-PVTZ-JKFIT

    Orbital Energies [Eh]
    ---------------------

    Doubly Occupied:

       1A    -20.528720     2A    -15.599653     3A    -11.361511
       4A    -11.277062     5A    -11.260041     6A     -1.356272
       7A     -1.245392     8A     -0.985589     9A     -0.941146
      10A     -0.777049    11A     -0.691842    12A     -0.656643
      13A     -0.649533    14A     -0.575304    15A     -0.567875
      16A     -0.563881    17A     -0.539541    18A     -0.518368
      19A     -0.425377    20A     -0.372248

  @DF-RHF Final Energy:  -247.04143416717329

   => Energetics <=

    Nuclear Repulsion Energy =            180.0089820583640119
    One-Electron Energy =                -692.3147385769718767
    Two-Electron Energy =                 265.2643223514345436
    Total Energy =                       -247.0414341671732927
  Basis Set: (AUG-CC-PVTZ AUX)
    Blend: AUG-CC-PVTZ-RI
    Molecular point group: c1

    Geometry (in Angstrom), charge = 0, multiplicity = 1:

       Center              X                  Y                   Z               Mass
    ------------   -----------------  -----------------  -----------------  -----------------
         O           -1.870071125397    -0.089368573866     0.049303787834    15.994914619570
         N            0.435107874603    -0.009498573866     0.049262787834    14.003074004430
         C            0.494691874603     1.439241426134     0.049276787834    12.000000000000
         C            1.684978874603    -0.738731573866     0.049314787834    12.000000000000
         C           -0.772845225397    -0.643461273866    -0.250782212166    12.000000000000
         H            1.020646874603     1.800272426134    -0.841180212166     1.007825032230
         H            1.020616874603     1.800256426134     0.939757787834     1.007825032230
         H           -0.528069125397     1.814681426134     0.049261787834     1.007825032230
         H            2.276897874603    -0.494347573866    -0.839987212166     1.007825032230
         H            1.480931874603    -1.811742573866     0.049279787834     1.007825032230
         H            2.276808874603    -0.494386573866     0.938685787834     1.007825032230
         H           -0.664819125397    -1.743680573866     0.049328787834     1.007825032230

  Basis Set: AUG-CC-PVTZ
    Blend: AUG-CC-PVTZ
  Basis Set: (AUG-CC-PVTZ AUX)
    Blend: AUG-CC-PVTZ-JKFIT
	 Reference Energy          =    -247.0414341671732927 [Eh]
	 Singles Energy            =      -0.0000000000000000 [Eh]
	 Same-Spin Energy          =      -0.2496251889576309 [Eh]
	 Opposite-Spin Energy      =      -0.8208869147289577 [Eh]
	 Correlation Energy        =      -1.0705121036865886 [Eh]
	 Total Energy              =    -248.1119462708598746 [Eh]

	 ================> DF-SCS-MP2 Energies <==================
	-----------------------------------------------------------
	 SCS Same-Spin Scale       =       0.3333333333333333 [-]
	 SCS Opposite-Spin Scale   =       1.2000000000000000 [-]
	 SCS Same-Spin Energy      =      -0.0832083963192103 [Eh]
	 SCS Opposite-Spin Energy  =      -0.9850642976747492 [Eh]
	 SCS Correlation Energy    =      -1.0682726939939595 [Eh]
	 SCS Total Energy          =    -248.1097068611672398 [Eh]
	-----------------------------------------------------------

  Dipole Moment: [D]
     X:     4.0754      Y:    -0.3032      Z:    -0.1030     Total:     4.0880

*** Psi4 exiting successfully. Buy a developer a beer!
