                               Psi4 1.3.2 release

  ==> Input File <==

--------------------------------------------------------------------------
#psi4
#
memory 32 gb

molecule  {
0 1
  O       -1.9552980    -0.1001660     0.0000220
  N        0.3498810    -0.0202960    -0.0000190
  C        0.4094650     1.4284440    -0.0000050
  C        1.5997520    -0.7495290     0.0000330
  C       -0.8580840    -0.6542600    -0.0000640
  H        0.9354200     1.7894750    -0.8904620
  H        0.9353900     1.7894590     0.8904760
  H       -0.6132960     1.8038840    -0.0000200
  H        2.1916710    -0.5051450    -0.8892690
  H        1.3957050    -1.8225400    -0.0000020
  H        2.1915820    -0.5051840     0.8894040
  H       -0.7500502    -1.7544848    -0.2499530
units angstrom
no_reorient  #important for SAPT in psi4, default
symmetry c1  #important for SAPT in psi4, default
}

set PROPERTIES_ORIGIN ["COM"]
properties('MP2/aug-cc-pvtz', properties = ['dipole'])
--------------------------------------------------------------------------

    Molecular point group: c1
  Charge       = 0
  Multiplicity = 1
  Basis Set: AUG-CC-PVTZ
    Blend: AUG-CC-PVTZ
  Basis Set: (AUG-CC-PVTZ AUX)
    Blend: AUG-CC-PVTZ-JKFIT

    Orbital Energies [Eh]
    ---------------------

    Doubly Occupied:

       1A    -20.522135     2A    -15.596962     3A    -11.351996
       4A    -11.278248     5A    -11.261141     6A     -1.372601
       7A     -1.254349     8A     -0.986734     9A     -0.948894
      10A     -0.777379    11A     -0.700620    12A     -0.659868
      13A     -0.654080    14A     -0.582172    15A     -0.568964
      16A     -0.568182    17A     -0.540911    18A     -0.527363
      19A     -0.427396    20A     -0.377588

  @DF-RHF Final Energy:  -247.07909244616243

   => Energetics <=

    Nuclear Repulsion Energy =            181.1155839187281913
    One-Electron Energy =                -694.4741870032024735
    Two-Electron Energy =                 266.2795106383117627
    Total Energy =                       -247.0790924461624627
  Basis Set: (AUG-CC-PVTZ AUX)
    Blend: AUG-CC-PVTZ-RI
    Molecular point group: c1

    Geometry (in Angstrom), charge = 0, multiplicity = 1:

       Center              X                  Y                   Z               Mass
    ------------   -----------------  -----------------  -----------------  -----------------
         O           -1.870069112703    -0.089368266510     0.003473300861    15.994914619570
         N            0.435109887297    -0.009498266510     0.003432300861    14.003074004430
         C            0.494693887297     1.439241733490     0.003446300861    12.000000000000
         C            1.684980887297    -0.738731266510     0.003484300861    12.000000000000
         C           -0.772855112703    -0.643462266510     0.003387300861    12.000000000000
         H            1.020648887297     1.800272733490    -0.887010699139     1.007825032230
         H            1.020618887297     1.800256733490     0.893927300861     1.007825032230
         H           -0.528067112703     1.814681733490     0.003431300861     1.007825032230
         H            2.276899887297    -0.494347266510    -0.885817699139     1.007825032230
         H            1.480933887297    -1.811742266510     0.003449300861     1.007825032230
         H            2.276810887297    -0.494386266510     0.892855300861     1.007825032230
         H           -0.664821312703    -1.743687066510    -0.246501699139     1.007825032230

  Basis Set: AUG-CC-PVTZ
    Blend: AUG-CC-PVTZ
  Basis Set: (AUG-CC-PVTZ AUX)
    Blend: AUG-CC-PVTZ-JKFIT
	 Reference Energy          =    -247.0790924461624343 [Eh]
	 Singles Energy            =      -0.0000000000000000 [Eh]
	 Same-Spin Energy          =      -0.2469255721386460 [Eh]
	 Opposite-Spin Energy      =      -0.8138770953310717 [Eh]
	 Correlation Energy        =      -1.0608026674697177 [Eh]
	 Total Energy              =    -248.1398951136321500 [Eh]

	 ================> DF-SCS-MP2 Energies <==================
	-----------------------------------------------------------
	 SCS Same-Spin Scale       =       0.3333333333333333 [-]
	 SCS Opposite-Spin Scale   =       1.2000000000000000 [-]
	 SCS Same-Spin Energy      =      -0.0823085240462153 [Eh]
	 SCS Opposite-Spin Energy  =      -0.9766525143972860 [Eh]
	 SCS Correlation Energy    =      -1.0589610384435013 [Eh]
	 SCS Total Energy          =    -248.1380534846059334 [Eh]
	-----------------------------------------------------------

  Dipole Moment: [D]
     X:     4.0994      Y:    -0.3256      Z:    -0.1101     Total:     4.1138

*** Psi4 exiting successfully. Buy a developer a beer!
