                               Psi4 1.3.2 release

  ==> Input File <==

--------------------------------------------------------------------------
#psi4
#
memory 32 gb

molecule  {
0 1
  O       -1.9552980    -0.1001660     0.0000220
  N        0.3498810    -0.0202960    -0.0000190
  C        0.4094650     1.4284440    -0.0000050
  C        1.5997520    -0.7495290     0.0000330
  C       -0.8580761    -0.6542592    -0.2000640
  H        0.9354200     1.7894750    -0.8904620
  H        0.9353900     1.7894590     0.8904760
  H       -0.6132960     1.8038840    -0.0000200
  H        2.1916710    -0.5051450    -0.8892690
  H        1.3957050    -1.8225400    -0.0000020
  H        2.1915820    -0.5051840     0.8894040
  H       -0.7500460    -1.7544780     0.0000470
units angstrom
no_reorient  #important for SAPT in psi4, default
symmetry c1  #important for SAPT in psi4, default
}

set PROPERTIES_ORIGIN ["COM"]
properties('MP2/aug-cc-pvtz', properties = ['dipole'])
--------------------------------------------------------------------------

    Molecular point group: c1
  Charge       = 0
  Multiplicity = 1
  Basis Set: AUG-CC-PVTZ
    Blend: AUG-CC-PVTZ
  Basis Set: (AUG-CC-PVTZ AUX)
    Blend: AUG-CC-PVTZ-JKFIT

    Orbital Energies [Eh]
    ---------------------

    Doubly Occupied:

       1A    -20.524295     2A    -15.598062     3A    -11.354903
       4A    -11.277807     5A    -11.260440     6A     -1.364745
       7A     -1.250060     8A     -0.986271     9A     -0.945861
      10A     -0.779461    11A     -0.697977    12A     -0.658355
      13A     -0.651738    14A     -0.579627    15A     -0.568486
      16A     -0.566280    17A     -0.540218    18A     -0.523441
      19A     -0.426968    20A     -0.375023

  @DF-RHF Final Energy:  -247.06478481017336

   => Energetics <=

    Nuclear Repulsion Energy =            180.6738061028689799
    One-Electron Energy =                -693.6171480317946134
    Two-Electron Energy =                 265.8785571187522692
    Total Energy =                       -247.0647848101733643
  Basis Set: (AUG-CC-PVTZ AUX)
    Blend: AUG-CC-PVTZ-RI
    Molecular point group: c1

    Geometry (in Angstrom), charge = 0, multiplicity = 1:

       Center              X                  Y                   Z               Mass
    ------------   -----------------  -----------------  -----------------  -----------------
         O           -1.870070468338    -0.089368491733     0.032877304608    15.994914619570
         N            0.435108531662    -0.009498491733     0.032836304608    14.003074004430
         C            0.494692531662     1.439241508267     0.032850304608    12.000000000000
         C            1.684979531662    -0.738731491733     0.032888304608    12.000000000000
         C           -0.772848568338    -0.643461691733    -0.167208695392    12.000000000000
         H            1.020647531662     1.800272508267    -0.857606695392     1.007825032230
         H            1.020617531662     1.800256508267     0.923331304608     1.007825032230
         H           -0.528068468338     1.814681508267     0.032835304608     1.007825032230
         H            2.276898531662    -0.494347491733    -0.856413695392     1.007825032230
         H            1.480932531662    -1.811742491733     0.032853304608     1.007825032230
         H            2.276809531662    -0.494386491733     0.922259304608     1.007825032230
         H           -0.664818468338    -1.743680491733     0.032902304608     1.007825032230

  Basis Set: AUG-CC-PVTZ
    Blend: AUG-CC-PVTZ
  Basis Set: (AUG-CC-PVTZ AUX)
    Blend: AUG-CC-PVTZ-JKFIT
	 Reference Energy          =    -247.0647848101733643 [Eh]
	 Singles Energy            =      -0.0000000000000000 [Eh]
	 Same-Spin Energy          =      -0.2479791023032051 [Eh]
	 Opposite-Spin Energy      =      -0.8165610523523811 [Eh]
	 Correlation Energy        =      -1.0645401546555862 [Eh]
	 Total Energy              =    -248.1293249648289532 [Eh]

	 ================> DF-SCS-MP2 Energies <==================
	-----------------------------------------------------------
	 SCS Same-Spin Scale       =       0.3333333333333333 [-]
	 SCS Opposite-Spin Scale   =       1.2000000000000000 [-]
	 SCS Same-Spin Energy      =      -0.0826597007677350 [Eh]
	 SCS Opposite-Spin Energy  =      -0.9798732628228572 [Eh]
	 SCS Correlation Energy    =      -1.0625329635905922 [Eh]
	 SCS Total Energy          =    -248.1273177737639628 [Eh]
	-----------------------------------------------------------

  Dipole Moment: [D]
     X:     4.0971      Y:    -0.3440      Z:    -0.0873     Total:     4.1124

*** Psi4 exiting successfully. Buy a developer a beer!
