                               Psi4 1.4a3.dev225

  ==> Input File <==

--------------------------------------------------------------------------
#psi4
#
memory 32 gb

molecule  {
0 1
  O       -1.2433940    -0.3366800     1.2074370
  C       -0.6640150    -0.4819890    -0.1009900
  C        0.8111931    -0.0757669    -0.0779327
  C       -1.5159190     0.3706220    -1.0242050
  C        1.1030690     1.3392670     0.3065330
  C        1.7446070    -0.9832150    -0.3605780
  H       -0.7308000    -1.5333880    -0.4224710
  H       -1.1307760     0.3301940    -2.0469120
  H       -2.5455460     0.0047250    -1.0155750
  H       -1.5200810     1.4081240    -0.6829090
  H        0.5415810     1.6180770     1.2025330
  H        2.1707320     1.4680310     0.5024970
  H        0.8184500     2.0371770    -0.4879450
  H        1.4952160    -2.0048880    -0.6345440
  H        2.8007100    -0.7292190    -0.3378150
  H       -0.7102690    -0.8870460     1.8084860
units angstrom
no_reorient  #important for SAPT in psi4, default
symmetry c1  #important for SAPT in psi4, default
}

set PROPERTIES_ORIGIN ["COM"]
properties('MP2/aug-cc-pvtz', properties = ['dipole'])
--------------------------------------------------------------------------

    Molecular point group: c1
  Charge       = 0
  Multiplicity = 1
  Basis Set: AUG-CC-PVTZ
    Blend: AUG-CC-PVTZ
  Basis Set: (AUG-CC-PVTZ AUX)
    Blend: AUG-CC-PVTZ-JKFIT

    Orbital Energies [Eh]
    ---------------------

    Doubly Occupied:

       1A    -20.557805     2A    -11.285257     3A    -11.241534
       4A    -11.221913     5A    -11.220727     6A    -11.214125
       7A     -1.356205     8A     -1.092950     9A     -0.998801
      10A     -0.940227    11A     -0.843126    12A     -0.733604
      13A     -0.690948    14A     -0.649900    15A     -0.597781
      16A     -0.590171    17A     -0.564615    18A     -0.548848
      19A     -0.530677    20A     -0.524923    21A     -0.512777
      22A     -0.476928    23A     -0.437157    24A     -0.361301

  @DF-RHF Final Energy:  -270.10211511828311

   => Energetics <=

    Nuclear Repulsion Energy =            245.2227125416328590
    One-Electron Energy =                -852.2650559131789123
    Two-Electron Energy =                 336.9402282532629442
    Total Energy =                       -270.1021151182831090
  Basis Set: (AUG-CC-PVTZ AUX)
    Blend: AUG-CC-PVTZ-RI
    Molecular point group: c1

    Geometry (in Angstrom), charge = 0, multiplicity = 1:

       Center              X                  Y                   Z               Mass
    ------------   -----------------  -----------------  -----------------  -----------------
         O           -1.232447068889    -0.317708130350     1.183090537529    15.994914619570
         C           -0.653068068889    -0.463017130350    -0.125336462471    12.000000000000
         C            0.822140031111    -0.056795030350    -0.102279162471    12.000000000000
         C           -1.504972068889     0.389593869650    -1.048551462471    12.000000000000
         C            1.114015931111     1.358238869650     0.282186537529    12.000000000000
         C            1.755553931111    -0.964243130350    -0.384924462471    12.000000000000
         H           -0.719853068889    -1.514416130350    -0.446817462471     1.007825032230
         H           -1.119829068889     0.349165869650    -2.071258462471     1.007825032230
         H           -2.534599068889     0.023696869650    -1.039921462471     1.007825032230
         H           -1.509134068889     1.427095869650    -0.707255462471     1.007825032230
         H            0.552527931111     1.637048869650     1.178186537529     1.007825032230
         H            2.181678931111     1.487002869650     0.478150537529     1.007825032230
         H            0.829396931111     2.056148869650    -0.512291462471     1.007825032230
         H            1.506162931111    -1.985916130350    -0.658890462471     1.007825032230
         H            2.811656931111    -0.710247130350    -0.362161462471     1.007825032230
         H           -0.699322068889    -0.868074130350     1.784139537529     1.007825032230

  Basis Set: AUG-CC-PVTZ
    Blend: AUG-CC-PVTZ
  Basis Set: (AUG-CC-PVTZ AUX)
    Blend: AUG-CC-PVTZ-JKFIT
	 Reference Energy          =    -270.1021151182831090 [Eh]
	 Singles Energy            =      -0.0000000000000000 [Eh]
	 Same-Spin Energy          =      -0.2754927531457301 [Eh]
	 Opposite-Spin Energy      =      -0.9504058366002532 [Eh]
	 Correlation Energy        =      -1.2258985897459833 [Eh]
	 Total Energy              =    -271.3280137080291183 [Eh]

	 ================> DF-SCS-MP2 Energies <==================
	-----------------------------------------------------------
	 SCS Same-Spin Scale       =       0.3333333333333333 [-]
	 SCS Opposite-Spin Scale   =       1.2000000000000000 [-]
	 SCS Same-Spin Energy      =      -0.0918309177152433 [Eh]
	 SCS Opposite-Spin Energy  =      -1.1404870039203039 [Eh]
	 SCS Correlation Energy    =      -1.2323179216355473 [Eh]
	 SCS Total Energy          =    -271.3344330399186788 [Eh]
	-----------------------------------------------------------

  Dipole Moment: [D]
     X:     1.1032      Y:    -0.4682      Z:    -0.3917     Total:     1.2608

*** Psi4 exiting successfully. Buy a developer a beer!
