                               Psi4 1.3.2 release

  ==> Input File <==

--------------------------------------------------------------------------
#psi4
#
memory 32 gb

molecule  {
0 1
  O       -1.2523610    -0.3679540     1.1390180
  C       -0.6414680    -0.4631600    -0.1573930
  C        0.8568114    -0.0000226    -0.0693343
  C       -1.4810420     0.4064310    -1.0751840
  C        1.0983630     1.3493650     0.3860570
  C        1.7719920    -0.9222190    -0.3989230
  H       -0.6847220    -1.5045720    -0.5137440
  H       -1.0704880     0.4059060    -2.0885930
  H       -2.5045050     0.0256980    -1.1039840
  H       -1.5089050     1.4302280    -0.6989750
  H        0.5609280     1.5513020     1.3193640
  H        2.1701080     1.4924500     0.5529100
  H        0.7653060     2.0941260    -0.3453770
  H        1.5935607    -1.9345303    -0.7489953
  H        2.8237910    -0.6585230    -0.3492850
  H       -0.7244690    -0.9269870     1.7376420
units angstrom
no_reorient  #important for SAPT in psi4, default
symmetry c1  #important for SAPT in psi4, default
}

set PROPERTIES_ORIGIN ["COM"]
properties('MP2/aug-cc-pvtz', properties = ['dipole'])
--------------------------------------------------------------------------

    Molecular point group: c1
  Charge       = 0
  Multiplicity = 1
  Basis Set: AUG-CC-PVTZ
    Blend: AUG-CC-PVTZ
  Basis Set: (AUG-CC-PVTZ AUX)
    Blend: AUG-CC-PVTZ-JKFIT

    Orbital Energies [Eh]
    ---------------------

    Doubly Occupied:

       1A    -20.557037     2A    -11.286038     3A    -11.242864
       4A    -11.221874     5A    -11.220199     6A    -11.213067
       7A     -1.355521     8A     -1.094367     9A     -0.999482
      10A     -0.943664    11A     -0.837235    12A     -0.734484
      13A     -0.690359    14A     -0.652757    15A     -0.593612
      16A     -0.590940    17A     -0.566961    18A     -0.554656
      19A     -0.532156    20A     -0.528481    21A     -0.516328
      22A     -0.471183    23A     -0.430587    24A     -0.357754

  @DF-RHF Final Energy:  -270.09625878877506

   => Energetics <=

    Nuclear Repulsion Energy =            245.1359590003918356
    One-Electron Energy =                -852.0812205858063635
    Two-Electron Energy =                 336.8490027966394678
    Total Energy =                       -270.0962587887750601
  Basis Set: (AUG-CC-PVTZ AUX)
    Blend: AUG-CC-PVTZ-RI
    Molecular point group: c1

    Geometry (in Angstrom), charge = 0, multiplicity = 1:

       Center              X                  Y                   Z               Mass
    ------------   -----------------  -----------------  -----------------  -----------------
         O           -1.259984636358    -0.374342668171     1.136873194226    15.994914619570
         C           -0.649091636358    -0.469548668171    -0.159537805774    12.000000000000
         C            0.849187763642    -0.006411268171    -0.071479105774    12.000000000000
         C           -1.488665636358     0.400042331829    -1.077328805774    12.000000000000
         C            1.090739363642     1.342976331829     0.383912194226    12.000000000000
         C            1.764368363642    -0.928607668171    -0.401067805774    12.000000000000
         H           -0.692345636358    -1.510960668171    -0.515888805774     1.007825032230
         H           -1.078111636358     0.399517331829    -2.090737805774     1.007825032230
         H           -2.512128636358     0.019309331829    -1.106128805774     1.007825032230
         H           -1.516528636358     1.423839331829    -0.701119805774     1.007825032230
         H            0.553304363642     1.544913331829     1.317219194226     1.007825032230
         H            2.162484363642     1.486061331829     0.550765194226     1.007825032230
         H            0.757682363642     2.087737331829    -0.347521805774     1.007825032230
         H            1.585937063642    -1.940918968171    -0.751140105774     1.007825032230
         H            2.816167363642    -0.664911668171    -0.351429805774     1.007825032230
         H           -0.732092636358    -0.933375668171     1.735497194226     1.007825032230

  Basis Set: AUG-CC-PVTZ
    Blend: AUG-CC-PVTZ
  Basis Set: (AUG-CC-PVTZ AUX)
    Blend: AUG-CC-PVTZ-JKFIT
	 Reference Energy          =    -270.0962587887750601 [Eh]
	 Singles Energy            =      -0.0000000000000000 [Eh]
	 Same-Spin Energy          =      -0.2758628255187994 [Eh]
	 Opposite-Spin Energy      =      -0.9508592947577967 [Eh]
	 Correlation Energy        =      -1.2267221202765961 [Eh]
	 Total Energy              =    -271.3229809090516369 [Eh]

	 ================> DF-SCS-MP2 Energies <==================
	-----------------------------------------------------------
	 SCS Same-Spin Scale       =       0.3333333333333333 [-]
	 SCS Opposite-Spin Scale   =       1.2000000000000000 [-]
	 SCS Same-Spin Energy      =      -0.0919542751729331 [Eh]
	 SCS Opposite-Spin Energy  =      -1.1410311537093560 [Eh]
	 SCS Correlation Energy    =      -1.2329854288822892 [Eh]
	 SCS Total Energy          =    -271.3292442176573331 [Eh]
	-----------------------------------------------------------

  Dipole Moment: [D]
     X:     1.1106      Y:    -0.4020      Z:    -0.3573     Total:     1.2339

*** Psi4 exiting successfully. Buy a developer a beer!
