                               Psi4 1.4a3.dev225

  ==> Input File <==

--------------------------------------------------------------------------
#psi4
#
memory 32 gb

molecule  {
0 1
  O       -1.2433940    -0.3366800     1.2074370
  C       -0.6640150    -0.4819890    -0.1009900
  C        0.7919130    -0.0810760    -0.0782340
  C       -1.5159190     0.3706220    -1.0242050
  C        1.1072065     1.3581536     0.3116493
  C        1.7446070    -0.9832150    -0.3605780
  H       -0.7308000    -1.5333880    -0.4224710
  H       -1.1307760     0.3301940    -2.0469120
  H       -2.5455460     0.0047250    -1.0155750
  H       -1.5200810     1.4081240    -0.6829090
  H        0.5415810     1.6180770     1.2025330
  H        2.1707320     1.4680310     0.5024970
  H        0.8184500     2.0371770    -0.4879450
  H        1.4952160    -2.0048880    -0.6345440
  H        2.8007100    -0.7292190    -0.3378150
  H       -0.7102690    -0.8870460     1.8084860
units angstrom
no_reorient  #important for SAPT in psi4, default
symmetry c1  #important for SAPT in psi4, default
}

set PROPERTIES_ORIGIN ["COM"]
properties('MP2/aug-cc-pvtz', properties = ['dipole'])
--------------------------------------------------------------------------

    Molecular point group: c1
  Charge       = 0
  Multiplicity = 1
  Basis Set: AUG-CC-PVTZ
    Blend: AUG-CC-PVTZ
  Basis Set: (AUG-CC-PVTZ AUX)
    Blend: AUG-CC-PVTZ-JKFIT

    Orbital Energies [Eh]
    ---------------------

    Doubly Occupied:

       1A    -20.557970     2A    -11.284643     3A    -11.243449
       4A    -11.223407     5A    -11.220472     6A    -11.214457
       7A     -1.356790     8A     -1.090624     9A     -0.998099
      10A     -0.938904    11A     -0.845969    12A     -0.734081
      13A     -0.690966    14A     -0.648892    15A     -0.596765
      16A     -0.591002    17A     -0.565886    18A     -0.549311
      19A     -0.531019    20A     -0.525105    21A     -0.509034
      22A     -0.478927    23A     -0.439497    24A     -0.359543

  @DF-RHF Final Energy:  -270.10194376845413

   => Energetics <=

    Nuclear Repulsion Energy =            245.0342285803878610
    One-Electron Energy =                -851.8827151818168204
    Two-Electron Energy =                 336.7465428329747965
    Total Energy =                       -270.1019437684541344
  Basis Set: (AUG-CC-PVTZ AUX)
    Blend: AUG-CC-PVTZ-RI
    Molecular point group: c1

    Geometry (in Angstrom), charge = 0, multiplicity = 1:

       Center              X                  Y                   Z               Mass
    ------------   -----------------  -----------------  -----------------  -----------------
         O           -1.230335944009    -0.319601054818     1.182419248167    15.994914619570
         C           -0.650956944009    -0.464910054818    -0.126007751833    12.000000000000
         C            0.804971055991    -0.063997054818    -0.103251751833    12.000000000000
         C           -1.502860944009     0.387700945182    -1.049222751833    12.000000000000
         C            1.120264555991     1.375232545182     0.286631548167    12.000000000000
         C            1.757665055991    -0.966136054818    -0.385595751833    12.000000000000
         H           -0.717741944009    -1.516309054818    -0.447488751833     1.007825032230
         H           -1.117717944009     0.347272945182    -2.071929751833     1.007825032230
         H           -2.532487944009     0.021803945182    -1.040592751833     1.007825032230
         H           -1.507022944009     1.425202945182    -0.707926751833     1.007825032230
         H            0.554639055991     1.635155945182     1.177515248167     1.007825032230
         H            2.183790055991     1.485109945182     0.477479248167     1.007825032230
         H            0.831508055991     2.054255945182    -0.512962751833     1.007825032230
         H            1.508274055991    -1.987809054818    -0.659561751833     1.007825032230
         H            2.813768055991    -0.712140054818    -0.362832751833     1.007825032230
         H           -0.697210944009    -0.869967054818     1.783468248167     1.007825032230

  Basis Set: AUG-CC-PVTZ
    Blend: AUG-CC-PVTZ
  Basis Set: (AUG-CC-PVTZ AUX)
    Blend: AUG-CC-PVTZ-JKFIT
	 Reference Energy          =    -270.1019437684541344 [Eh]
	 Singles Energy            =      -0.0000000000000000 [Eh]
	 Same-Spin Energy          =      -0.2754716183474659 [Eh]
	 Opposite-Spin Energy      =      -0.9505777713398373 [Eh]
	 Correlation Energy        =      -1.2260493896873033 [Eh]
	 Total Energy              =    -271.3279931581414530 [Eh]

	 ================> DF-SCS-MP2 Energies <==================
	-----------------------------------------------------------
	 SCS Same-Spin Scale       =       0.3333333333333333 [-]
	 SCS Opposite-Spin Scale   =       1.2000000000000000 [-]
	 SCS Same-Spin Energy      =      -0.0918238727824886 [Eh]
	 SCS Opposite-Spin Energy  =      -1.1406933256078047 [Eh]
	 SCS Correlation Energy    =      -1.2325171983902934 [Eh]
	 SCS Total Energy          =    -271.3344609668444036 [Eh]
	-----------------------------------------------------------

  Dipole Moment: [D]
     X:     1.1038      Y:    -0.4802      Z:    -0.3999     Total:     1.2685

*** Psi4 exiting successfully. Buy a developer a beer!
