                               Psi4 1.3.2 release

  ==> Input File <==

--------------------------------------------------------------------------
#psi4
#
memory 32 gb

molecule  {
0 1
  O       -1.2523610    -0.3679540     1.1390180
  C       -0.6414680    -0.4631600    -0.1573930
  C        0.8138712    -0.0705671    -0.0936236
  C       -1.4810420     0.4064310    -1.0751840
  C        1.0983630     1.3493650     0.3860570
  C        1.7719920    -0.9222190    -0.3989230
  H       -0.6655263    -1.5048383    -0.5147770
  H       -1.0704880     0.4059060    -2.0885930
  H       -2.5045050     0.0256980    -1.1039840
  H       -1.5089050     1.4302280    -0.6989750
  H        0.5609280     1.5513020     1.3193640
  H        2.1701080     1.4924500     0.5529100
  H        0.7653060     2.0941260    -0.3453770
  H        1.5377490    -1.9244940    -0.7449540
  H        2.8237910    -0.6585230    -0.3492850
  H       -0.7244690    -0.9269870     1.7376420
units angstrom
no_reorient  #important for SAPT in psi4, default
symmetry c1  #important for SAPT in psi4, default
}

set PROPERTIES_ORIGIN ["COM"]
properties('MP2/aug-cc-pvtz', properties = ['dipole'])
--------------------------------------------------------------------------

    Molecular point group: c1
  Charge       = 0
  Multiplicity = 1
  Basis Set: AUG-CC-PVTZ
    Blend: AUG-CC-PVTZ
  Basis Set: (AUG-CC-PVTZ AUX)
    Blend: AUG-CC-PVTZ-JKFIT

    Orbital Energies [Eh]
    ---------------------

    Doubly Occupied:

       1A    -20.558639     2A    -11.284146     3A    -11.239162
       4A    -11.221425     5A    -11.220205     6A    -11.214430
       7A     -1.357580     8A     -1.094273     9A     -0.999124
      10A     -0.937869    11A     -0.847431    12A     -0.733595
      13A     -0.691868    14A     -0.649414    15A     -0.600663
      16A     -0.589907    17A     -0.563136    18A     -0.546014
      19A     -0.531020    20A     -0.523447    21A     -0.508190
      22A     -0.481361    23A     -0.436912    24A     -0.365494

  @DF-RHF Final Energy:  -270.10215755925657

   => Energetics <=

    Nuclear Repulsion Energy =            245.5002997091976340
    One-Electron Energy =                -852.8143060617481979
    Two-Electron Energy =                 337.2118487932939956
    Total Energy =                       -270.1021575592565682
  Basis Set: (AUG-CC-PVTZ AUX)
    Blend: AUG-CC-PVTZ-RI
    Molecular point group: c1

    Geometry (in Angstrom), charge = 0, multiplicity = 1:

       Center              X                  Y                   Z               Mass
    ------------   -----------------  -----------------  -----------------  -----------------
         O           -1.253569339305    -0.364622013075     1.140224293958    15.994914619570
         C           -0.642676339305    -0.459828013075    -0.156186706042    12.000000000000
         C            0.812662860695    -0.067235113075    -0.092417306042    12.000000000000
         C           -1.482250339305     0.409762986925    -1.073977706042    12.000000000000
         C            1.097154660695     1.352696986925     0.387263293958    12.000000000000
         C            1.770783660695    -0.918887013075    -0.397716706042    12.000000000000
         H           -0.666734639305    -1.501506313075    -0.513570706042     1.007825032230
         H           -1.071696339305     0.409237986925    -2.087386706042     1.007825032230
         H           -2.505713339305     0.029029986925    -1.102777706042     1.007825032230
         H           -1.510113339305     1.433559986925    -0.697768706042     1.007825032230
         H            0.559719660695     1.554633986925     1.320570293958     1.007825032230
         H            2.168899660695     1.495781986925     0.554116293958     1.007825032230
         H            0.764097660695     2.097457986925    -0.344170706042     1.007825032230
         H            1.536540660695    -1.921162013075    -0.743747706042     1.007825032230
         H            2.822582660695    -0.655191013075    -0.348078706042     1.007825032230
         H           -0.725677339305    -0.923655013075     1.738848293958     1.007825032230

  Basis Set: AUG-CC-PVTZ
    Blend: AUG-CC-PVTZ
  Basis Set: (AUG-CC-PVTZ AUX)
    Blend: AUG-CC-PVTZ-JKFIT
	 Reference Energy          =    -270.1021575592565682 [Eh]
	 Singles Energy            =      -0.0000000000000000 [Eh]
	 Same-Spin Energy          =      -0.2753381277920279 [Eh]
	 Opposite-Spin Energy      =      -0.9500472140842253 [Eh]
	 Correlation Energy        =      -1.2253853418762533 [Eh]
	 Total Energy              =    -271.3275429011328015 [Eh]

	 ================> DF-SCS-MP2 Energies <==================
	-----------------------------------------------------------
	 SCS Same-Spin Scale       =       0.3333333333333333 [-]
	 SCS Opposite-Spin Scale   =       1.2000000000000000 [-]
	 SCS Same-Spin Energy      =      -0.0917793759306760 [Eh]
	 SCS Opposite-Spin Energy  =      -1.1400566569010704 [Eh]
	 SCS Correlation Energy    =      -1.2318360328317464 [Eh]
	 SCS Total Energy          =    -271.3339935920882908 [Eh]
	-----------------------------------------------------------

  Dipole Moment: [D]
     X:     1.1240      Y:    -0.4675      Z:    -0.3806     Total:     1.2754

*** Psi4 exiting successfully. Buy a developer a beer!
