                               Psi4 1.3.2 release

  ==> Input File <==

--------------------------------------------------------------------------
#psi4
#
memory 32 gb

molecule  {
0 1
  O       -1.2523610    -0.3679540     1.1390180
  C       -0.6328137    -0.4709086    -0.1526853
  C        0.8068160    -0.0466880    -0.0850580
  C       -1.4810420     0.4064310    -1.0751840
  C        1.0983630     1.3493650     0.3860570
  C        1.7719920    -0.9222190    -0.3989230
  H       -0.6847220    -1.5045720    -0.5137440
  H       -1.0704880     0.4059060    -2.0885930
  H       -2.5045050     0.0256980    -1.1039840
  H       -1.5089050     1.4302280    -0.6989750
  H        0.5609280     1.5513020     1.3193640
  H        2.1701080     1.4924500     0.5529100
  H        0.7653060     2.0941260    -0.3453770
  H        1.5377490    -1.9244940    -0.7449540
  H        2.8237910    -0.6585230    -0.3492850
  H       -0.7193394    -0.9290103     1.7311686
units angstrom
no_reorient  #important for SAPT in psi4, default
symmetry c1  #important for SAPT in psi4, default
}

set PROPERTIES_ORIGIN ["COM"]
properties('MP2/aug-cc-pvtz', properties = ['dipole'])
--------------------------------------------------------------------------

    Molecular point group: c1
  Charge       = 0
  Multiplicity = 1
  Basis Set: AUG-CC-PVTZ
    Blend: AUG-CC-PVTZ
  Basis Set: (AUG-CC-PVTZ AUX)
    Blend: AUG-CC-PVTZ-JKFIT

    Orbital Energies [Eh]
    ---------------------

    Doubly Occupied:

       1A    -20.558524     2A    -11.283769     3A    -11.241760
       4A    -11.222983     5A    -11.221624     6A    -11.214246
       7A     -1.358114     8A     -1.094033     9A     -0.996338
      10A     -0.938791    11A     -0.847297    12A     -0.734886
      13A     -0.691839    14A     -0.650159    15A     -0.598298
      16A     -0.590427    17A     -0.564282    18A     -0.548741
      19A     -0.529901    20A     -0.523646    21A     -0.511322
      22A     -0.477380    23A     -0.442571    24A     -0.359056

  @DF-RHF Final Energy:  -270.10183278096423

   => Energetics <=

    Nuclear Repulsion Energy =            245.5159412591904697
    One-Electron Energy =                -852.8355713659449293
    Two-Electron Energy =                 337.2177973257901726
    Total Energy =                       -270.1018327809642301
  Basis Set: (AUG-CC-PVTZ AUX)
    Blend: AUG-CC-PVTZ-RI
    Molecular point group: c1

    Geometry (in Angstrom), charge = 0, multiplicity = 1:

       Center              X                  Y                   Z               Mass
    ------------   -----------------  -----------------  -----------------  -----------------
         O           -1.253627580829    -0.366850294695     1.138437481207    15.994914619570
         C           -0.634080280829    -0.469804894695    -0.153265818793    12.000000000000
         C            0.805549419171    -0.045584294695    -0.085638518793    12.000000000000
         C           -1.482308580829     0.407534705305    -1.075764518793    12.000000000000
         C            1.097096419171     1.350468705305     0.385476481207    12.000000000000
         C            1.770725419171    -0.921115294695    -0.399503518793    12.000000000000
         H           -0.685988580829    -1.503468294695    -0.514324518793     1.007825032230
         H           -1.071754580829     0.407009705305    -2.089173518793     1.007825032230
         H           -2.505771580829     0.026801705305    -1.104564518793     1.007825032230
         H           -1.510171580829     1.431331705305    -0.699555518793     1.007825032230
         H            0.559661419171     1.552405705305     1.318783481207     1.007825032230
         H            2.168841419171     1.493553705305     0.552329481207     1.007825032230
         H            0.764039419171     2.095229705305    -0.345957518793     1.007825032230
         H            1.536482419171    -1.923390294695    -0.745534518793     1.007825032230
         H            2.822524419171    -0.657419294695    -0.349865518793     1.007825032230
         H           -0.720605980829    -0.927906594695     1.730588081207     1.007825032230

  Basis Set: AUG-CC-PVTZ
    Blend: AUG-CC-PVTZ
  Basis Set: (AUG-CC-PVTZ AUX)
    Blend: AUG-CC-PVTZ-JKFIT
	 Reference Energy          =    -270.1018327809642301 [Eh]
	 Singles Energy            =      -0.0000000000000000 [Eh]
	 Same-Spin Energy          =      -0.2756840622379201 [Eh]
	 Opposite-Spin Energy      =      -0.9507088438687830 [Eh]
	 Correlation Energy        =      -1.2263929061067032 [Eh]
	 Total Energy              =    -271.3282256870709261 [Eh]

	 ================> DF-SCS-MP2 Energies <==================
	-----------------------------------------------------------
	 SCS Same-Spin Scale       =       0.3333333333333333 [-]
	 SCS Opposite-Spin Scale   =       1.2000000000000000 [-]
	 SCS Same-Spin Energy      =      -0.0918946874126400 [Eh]
	 SCS Opposite-Spin Energy  =      -1.1408506126425395 [Eh]
	 SCS Correlation Energy    =      -1.2327453000551796 [Eh]
	 SCS Total Energy          =    -271.3345780810194015 [Eh]
	-----------------------------------------------------------

  Dipole Moment: [D]
     X:     1.1365      Y:    -0.4520      Z:    -0.3719     Total:     1.2783

*** Psi4 exiting successfully. Buy a developer a beer!
