                               Psi4 1.3.2 release

  ==> Input File <==

--------------------------------------------------------------------------
#psi4
#
memory 32 gb

molecule  {
0 1
  O       -1.2369068    -0.2943643     1.1387152
  C       -0.6414680    -0.4631600    -0.1573930
  C        0.8068160    -0.0466880    -0.0850580
  C       -1.4810420     0.4064310    -1.0751840
  C        1.0983630     1.3493650     0.3860570
  C        1.7719920    -0.9222190    -0.3989230
  H       -0.6577967    -1.4876334    -0.5618475
  H       -1.0704880     0.4059060    -2.0885930
  H       -2.5045050     0.0256980    -1.1039840
  H       -1.5089050     1.4302280    -0.6989750
  H        0.5609280     1.5513020     1.3193640
  H        2.1701080     1.4924500     0.5529100
  H        0.7653060     2.0941260    -0.3453770
  H        1.5377490    -1.9244940    -0.7449540
  H        2.8237910    -0.6585230    -0.3492850
  H       -0.7244690    -0.9269870     1.7376420
units angstrom
no_reorient  #important for SAPT in psi4, default
symmetry c1  #important for SAPT in psi4, default
}

set PROPERTIES_ORIGIN ["COM"]
properties('MP2/aug-cc-pvtz', properties = ['dipole'])
--------------------------------------------------------------------------

    Molecular point group: c1
  Charge       = 0
  Multiplicity = 1
  Basis Set: AUG-CC-PVTZ
    Blend: AUG-CC-PVTZ
  Basis Set: (AUG-CC-PVTZ AUX)
    Blend: AUG-CC-PVTZ-JKFIT

    Orbital Energies [Eh]
    ---------------------

    Doubly Occupied:

       1A    -20.564752     2A    -11.284289     3A    -11.240591
       4A    -11.221688     5A    -11.219681     6A    -11.212900
       7A     -1.353715     8A     -1.092019     9A     -0.997584
      10A     -0.937387    11A     -0.845320    12A     -0.728891
      13A     -0.692120    14A     -0.648159    15A     -0.597409
      16A     -0.590209    17A     -0.564459    18A     -0.547920
      19A     -0.528717    20A     -0.520499    21A     -0.509013
      22A     -0.480583    23A     -0.440876    24A     -0.358064

  @DF-RHF Final Energy:  -270.09618235342629

   => Energetics <=

    Nuclear Repulsion Energy =            245.7971182835642310
    One-Electron Energy =                -853.4329135371179973
    Two-Electron Energy =                 337.5396129001274517
    Total Energy =                       -270.0961823534262862
  Basis Set: (AUG-CC-PVTZ AUX)
    Blend: AUG-CC-PVTZ-RI
    Molecular point group: c1

    Geometry (in Angstrom), charge = 0, multiplicity = 1:

       Center              X                  Y                   Z               Mass
    ------------   -----------------  -----------------  -----------------  -----------------
         O           -1.240093877905    -0.308238020548     1.139334724415    15.994914619570
         C           -0.644655077905    -0.477033720548    -0.156773475585    12.000000000000
         C            0.803628922095    -0.060561720548    -0.084438475585    12.000000000000
         C           -1.484229077905     0.392557279452    -1.074564475585    12.000000000000
         C            1.095175922095     1.335491279452     0.386676524415    12.000000000000
         C            1.768804922095    -0.936092720548    -0.398303475585    12.000000000000
         H           -0.660983777905    -1.501507120548    -0.561227975585     1.007825032230
         H           -1.073675077905     0.392032279452    -2.087973475585     1.007825032230
         H           -2.507692077905     0.011824279452    -1.103364475585     1.007825032230
         H           -1.512092077905     1.416354279452    -0.698355475585     1.007825032230
         H            0.557740922095     1.537428279452     1.319983524415     1.007825032230
         H            2.166920922095     1.478576279452     0.553529524415     1.007825032230
         H            0.762118922095     2.080252279452    -0.344757475585     1.007825032230
         H            1.534561922095    -1.938367720548    -0.744334475585     1.007825032230
         H            2.820603922095    -0.672396720548    -0.348665475585     1.007825032230
         H           -0.727656077905    -0.940860720548     1.738261524415     1.007825032230

  Basis Set: AUG-CC-PVTZ
    Blend: AUG-CC-PVTZ
  Basis Set: (AUG-CC-PVTZ AUX)
    Blend: AUG-CC-PVTZ-JKFIT
	 Reference Energy          =    -270.0961823534262862 [Eh]
	 Singles Energy            =      -0.0000000000000000 [Eh]
	 Same-Spin Energy          =      -0.2764847270322403 [Eh]
	 Opposite-Spin Energy      =      -0.9523639876439026 [Eh]
	 Correlation Energy        =      -1.2288487146761429 [Eh]
	 Total Energy              =    -271.3250310681024189 [Eh]

	 ================> DF-SCS-MP2 Energies <==================
	-----------------------------------------------------------
	 SCS Same-Spin Scale       =       0.3333333333333333 [-]
	 SCS Opposite-Spin Scale   =       1.2000000000000000 [-]
	 SCS Same-Spin Energy      =      -0.0921615756774134 [Eh]
	 SCS Opposite-Spin Energy  =      -1.1428367851726831 [Eh]
	 SCS Correlation Energy    =      -1.2349983608500965 [Eh]
	 SCS Total Energy          =    -271.3311807142763996 [Eh]
	-----------------------------------------------------------

  Dipole Moment: [D]
     X:     1.0213      Y:    -0.5802      Z:    -0.3448     Total:     1.2242

*** Psi4 exiting successfully. Buy a developer a beer!
