                               Psi4 1.3.2 release

  ==> Input File <==

--------------------------------------------------------------------------
#psi4
#
memory 32 gb

molecule  {
0 1
  O       -1.2523610    -0.3679540     1.1390180
  C       -0.6176775    -0.5339184    -0.1832037
  C        0.8068160    -0.0466880    -0.0850580
  C       -1.4810420     0.4064310    -1.0751840
  C        1.1749858     1.3342223     0.3769493
  C        1.7719920    -0.9222190    -0.3989230
  H       -0.6847220    -1.5045720    -0.5137440
  H       -1.0704880     0.4059060    -2.0885930
  H       -2.5045050     0.0256980    -1.1039840
  H       -1.5089050     1.4302280    -0.6989750
  H        0.5609280     1.5513020     1.3193640
  H        2.1701080     1.4924500     0.5529100
  H        0.7653060     2.0941260    -0.3453770
  H        1.5377490    -1.9244940    -0.7449540
  H        2.8237910    -0.6585230    -0.3492850
  H       -0.7244690    -0.9269870     1.7376420
units angstrom
no_reorient  #important for SAPT in psi4, default
symmetry c1  #important for SAPT in psi4, default
}

set PROPERTIES_ORIGIN ["COM"]
properties('MP2/aug-cc-pvtz', properties = ['dipole'])
--------------------------------------------------------------------------

    Molecular point group: c1
  Charge       = 0
  Multiplicity = 1
  Basis Set: AUG-CC-PVTZ
    Blend: AUG-CC-PVTZ
  Basis Set: (AUG-CC-PVTZ AUX)
    Blend: AUG-CC-PVTZ-JKFIT

    Orbital Energies [Eh]
    ---------------------

    Doubly Occupied:

       1A    -20.555432     2A    -11.284709     3A    -11.243286
       4A    -11.224317     5A    -11.220437     6A    -11.216041
       7A     -1.343986     8A     -1.094685     9A     -0.994813
      10A     -0.938303    11A     -0.851068    12A     -0.739213
      13A     -0.690357    14A     -0.649641    15A     -0.596742
      16A     -0.582130    17A     -0.568319    18A     -0.552319
      19A     -0.522461    20A     -0.521093    21A     -0.506493
      22A     -0.477793    23A     -0.452051    24A     -0.355331

  @DF-RHF Final Energy:  -270.08652132852160

   => Energetics <=

    Nuclear Repulsion Energy =            244.5546022617482436
    One-Electron Energy =                -850.9202028052063724
    Two-Electron Energy =                 336.2790792149365871
    Total Energy =                       -270.0865213285215987
  Basis Set: (AUG-CC-PVTZ AUX)
    Blend: AUG-CC-PVTZ-RI
    Molecular point group: c1

    Geometry (in Angstrom), charge = 0, multiplicity = 1:

       Center              X                  Y                   Z               Mass
    ------------   -----------------  -----------------  -----------------  -----------------
         O           -1.266360216622    -0.355978254980     1.143886207831    15.994914619570
         C           -0.631676716622    -0.521942654980    -0.178335492169    12.000000000000
         C            0.792816783378    -0.034712254980    -0.080189792169    12.000000000000
         C           -1.495041216622     0.418406745020    -1.070315792169    12.000000000000
         C            1.160986583378     1.346198045020     0.381817507831    12.000000000000
         C            1.757992783378    -0.910243254980    -0.394054792169    12.000000000000
         H           -0.698721216622    -1.492596254980    -0.508875792169     1.007825032230
         H           -1.084487216622     0.417881745020    -2.083724792169     1.007825032230
         H           -2.518504216622     0.037673745020    -1.099115792169     1.007825032230
         H           -1.522904216622     1.442203745020    -0.694106792169     1.007825032230
         H            0.546928783378     1.563277745020     1.324232207831     1.007825032230
         H            2.156108783378     1.504425745020     0.557778207831     1.007825032230
         H            0.751306783378     2.106101745020    -0.340508792169     1.007825032230
         H            1.523749783378    -1.912518254980    -0.740085792169     1.007825032230
         H            2.809791783378    -0.646547254980    -0.344416792169     1.007825032230
         H           -0.738468216622    -0.915011254980     1.742510207831     1.007825032230

  Basis Set: AUG-CC-PVTZ
    Blend: AUG-CC-PVTZ
  Basis Set: (AUG-CC-PVTZ AUX)
    Blend: AUG-CC-PVTZ-JKFIT
	 Reference Energy          =    -270.0865213285215987 [Eh]
	 Singles Energy            =      -0.0000000000000000 [Eh]
	 Same-Spin Energy          =      -0.2757757579596188 [Eh]
	 Opposite-Spin Energy      =      -0.9516491772374327 [Eh]
	 Correlation Energy        =      -1.2274249351970514 [Eh]
	 Total Energy              =    -271.3139462637186625 [Eh]

	 ================> DF-SCS-MP2 Energies <==================
	-----------------------------------------------------------
	 SCS Same-Spin Scale       =       0.3333333333333333 [-]
	 SCS Opposite-Spin Scale   =       1.2000000000000000 [-]
	 SCS Same-Spin Energy      =      -0.0919252526532063 [Eh]
	 SCS Opposite-Spin Energy  =      -1.1419790126849192 [Eh]
	 SCS Correlation Energy    =      -1.2339042653381254 [Eh]
	 SCS Total Energy          =    -271.3204255938597385 [Eh]
	-----------------------------------------------------------

  Dipole Moment: [D]
     X:     1.1645      Y:    -0.5001      Z:    -0.4478     Total:     1.3441

*** Psi4 exiting successfully. Buy a developer a beer!
