                               Psi4 1.3.2 release

  ==> Input File <==

--------------------------------------------------------------------------
#psi4
#
memory 32 gb

molecule  {
0 1
  O       -1.2523610    -0.3679540     1.1390180
  C       -0.6414680    -0.4631600    -0.1573930
  C        0.8068160    -0.0466880    -0.0850580
  C       -1.4747906     0.4275677    -1.0604937
  C        1.0983630     1.3493650     0.3860570
  C        1.7719920    -0.9222190    -0.3989230
  H       -0.6732140    -1.5098261    -0.4992674
  H       -1.0704880     0.4059060    -2.0885930
  H       -2.5045050     0.0256980    -1.1039840
  H       -1.5089050     1.4302280    -0.6989750
  H        0.5609280     1.5513020     1.3193640
  H        2.1701080     1.4924500     0.5529100
  H        0.7653060     2.0941260    -0.3453770
  H        1.5377490    -1.9244940    -0.7449540
  H        2.8237910    -0.6585230    -0.3492850
  H       -0.7244690    -0.9269870     1.7376420
units angstrom
no_reorient  #important for SAPT in psi4, default
symmetry c1  #important for SAPT in psi4, default
}

set PROPERTIES_ORIGIN ["COM"]
properties('MP2/aug-cc-pvtz', properties = ['dipole'])
--------------------------------------------------------------------------

    Molecular point group: c1
  Charge       = 0
  Multiplicity = 1
  Basis Set: AUG-CC-PVTZ
    Blend: AUG-CC-PVTZ
  Basis Set: (AUG-CC-PVTZ AUX)
    Blend: AUG-CC-PVTZ-JKFIT

    Orbital Energies [Eh]
    ---------------------

    Doubly Occupied:

       1A    -20.557553     2A    -11.284378     3A    -11.241513
       4A    -11.222555     5A    -11.221377     6A    -11.214516
       7A     -1.357442     8A     -1.093521     9A     -0.998482
      10A     -0.938532    11A     -0.846908    12A     -0.734668
      13A     -0.691859    14A     -0.649888    15A     -0.597746
      16A     -0.590226    17A     -0.567035    18A     -0.546784
      19A     -0.530777    20A     -0.522368    21A     -0.511551
      22A     -0.480063    23A     -0.439850    24A     -0.358940

  @DF-RHF Final Energy:  -270.10123588801116

   => Energetics <=

    Nuclear Repulsion Energy =            245.6199489251914088
    One-Electron Energy =                -853.0453013390942942
    Two-Electron Energy =                 337.3241165258916681
    Total Energy =                       -270.1012358880111606
  Basis Set: (AUG-CC-PVTZ AUX)
    Blend: AUG-CC-PVTZ-RI
    Molecular point group: c1

    Geometry (in Angstrom), charge = 0, multiplicity = 1:

       Center              X                  Y                   Z               Mass
    ------------   -----------------  -----------------  -----------------  -----------------
         O           -1.253367261729    -0.370839546387     1.136800442130    15.994914619570
         C           -0.642474261729    -0.466045546387    -0.159610557870    12.000000000000
         C            0.805809738271    -0.049573546387    -0.087275557870    12.000000000000
         C           -1.475796861729     0.424682153613    -1.062711257870    12.000000000000
         C            1.097356738271     1.346479453613     0.383839442130    12.000000000000
         C            1.770985738271    -0.925104546387    -0.401140557870    12.000000000000
         H           -0.674220261729    -1.512711646387    -0.501484957870     1.007825032230
         H           -1.071494261729     0.403020453613    -2.090810557870     1.007825032230
         H           -2.505511261729     0.022812453613    -1.106201557870     1.007825032230
         H           -1.509911261729     1.427342453613    -0.701192557870     1.007825032230
         H            0.559921738271     1.548416453613     1.317146442130     1.007825032230
         H            2.169101738271     1.489564453613     0.550692442130     1.007825032230
         H            0.764299738271     2.091240453613    -0.347594557870     1.007825032230
         H            1.536742738271    -1.927379546387    -0.747171557870     1.007825032230
         H            2.822784738271    -0.661408546387    -0.351502557870     1.007825032230
         H           -0.725475261729    -0.929872546387     1.735424442130     1.007825032230

  Basis Set: AUG-CC-PVTZ
    Blend: AUG-CC-PVTZ
  Basis Set: (AUG-CC-PVTZ AUX)
    Blend: AUG-CC-PVTZ-JKFIT
	 Reference Energy          =    -270.1012358880111606 [Eh]
	 Singles Energy            =      -0.0000000000000000 [Eh]
	 Same-Spin Energy          =      -0.2756937694214197 [Eh]
	 Opposite-Spin Energy      =      -0.9506772147299839 [Eh]
	 Correlation Energy        =      -1.2263709841514037 [Eh]
	 Total Energy              =    -271.3276068721625620 [Eh]

	 ================> DF-SCS-MP2 Energies <==================
	-----------------------------------------------------------
	 SCS Same-Spin Scale       =       0.3333333333333333 [-]
	 SCS Opposite-Spin Scale   =       1.2000000000000000 [-]
	 SCS Same-Spin Energy      =      -0.0918979231404732 [Eh]
	 SCS Opposite-Spin Energy  =      -1.1408126576759807 [Eh]
	 SCS Correlation Energy    =      -1.2327105808164540 [Eh]
	 SCS Total Energy          =    -271.3339464688276053 [Eh]
	-----------------------------------------------------------

  Dipole Moment: [D]
     X:     1.1142      Y:    -0.4308      Z:    -0.3718     Total:     1.2511

*** Psi4 exiting successfully. Buy a developer a beer!
