                               Psi4 1.3.2 release

  ==> Input File <==

--------------------------------------------------------------------------
#psi4
#
memory 32 gb

molecule  {
0 1
  O       -1.2523610    -0.3679540     1.1390180
  C       -0.6414680    -0.4631600    -0.1573930
  C        0.8068160    -0.0466880    -0.0850580
  C       -1.4810420     0.4064310    -1.0751840
  C        1.1371850     1.5352613     0.4487900
  C        1.7719920    -0.9222190    -0.3989230
  H       -0.6847220    -1.5045720    -0.5137440
  H       -1.0704880     0.4059060    -2.0885930
  H       -2.5045050     0.0256980    -1.1039840
  H       -1.5089050     1.4302280    -0.6989750
  H        0.5609280     1.5513020     1.3193640
  H        2.1701080     1.4924500     0.5529100
  H        0.7653060     2.0941260    -0.3453770
  H        1.5377490    -1.9244940    -0.7449540
  H        2.8237910    -0.6585230    -0.3492850
  H       -0.7244690    -0.9269870     1.7376420
units angstrom
no_reorient  #important for SAPT in psi4, default
symmetry c1  #important for SAPT in psi4, default
}

set PROPERTIES_ORIGIN ["COM"]
properties('MP2/aug-cc-pvtz', properties = ['dipole'])
--------------------------------------------------------------------------

    Molecular point group: c1
  Charge       = 0
  Multiplicity = 1
  Basis Set: AUG-CC-PVTZ
    Blend: AUG-CC-PVTZ
  Basis Set: (AUG-CC-PVTZ AUX)
    Blend: AUG-CC-PVTZ-JKFIT

    Orbital Energies [Eh]
    ---------------------

    Doubly Occupied:

       1A    -20.557962     2A    -11.284401     3A    -11.247941
       4A    -11.222368     5A    -11.221773     6A    -11.214283
       7A     -1.357021     8A     -1.077504     9A     -0.995092
      10A     -0.944128    11A     -0.845119    12A     -0.731468
      13A     -0.688401    14A     -0.645702    15A     -0.600782
      16A     -0.593327    17A     -0.576695    18A     -0.570097
      19A     -0.532859    20A     -0.527453    21A     -0.483210
      22A     -0.478924    23A     -0.422946    24A     -0.362389

  @DF-RHF Final Energy:  -270.07578348314797

   => Energetics <=

    Nuclear Repulsion Energy =            242.6591369763250157
    One-Electron Energy =                -847.1061461414800533
    Two-Electron Energy =                 334.3712256820070365
    Total Energy =                       -270.0757834831479727
  Basis Set: (AUG-CC-PVTZ AUX)
    Blend: AUG-CC-PVTZ-RI
    Molecular point group: c1

    Geometry (in Angstrom), charge = 0, multiplicity = 1:

       Center              X                  Y                   Z               Mass
    ------------   -----------------  -----------------  -----------------  -----------------
         O           -1.257773387027    -0.393871235937     1.130272013432    15.994914619570
         C           -0.646880387027    -0.489077235937    -0.166138986568    12.000000000000
         C            0.801403612973    -0.072605235937    -0.093803986568    12.000000000000
         C           -1.486454387027     0.380513764063    -1.083929986568    12.000000000000
         C            1.131772612973     1.509344064063     0.440044013432    12.000000000000
         C            1.766579612973    -0.948136235937    -0.407668986568    12.000000000000
         H           -0.690134387027    -1.530489235937    -0.522489986568     1.007825032230
         H           -1.075900387027     0.379988764063    -2.097338986568     1.007825032230
         H           -2.509917387027    -0.000219235937    -1.112729986568     1.007825032230
         H           -1.514317387027     1.404310764063    -0.707720986568     1.007825032230
         H            0.555515612973     1.525384764063     1.310618013432     1.007825032230
         H            2.164695612973     1.466532764063     0.544164013432     1.007825032230
         H            0.759893612973     2.068208764063    -0.354122986568     1.007825032230
         H            1.532336612973    -1.950411235937    -0.753699986568     1.007825032230
         H            2.818378612973    -0.684440235937    -0.358030986568     1.007825032230
         H           -0.729881387027    -0.952904235937     1.728896013432     1.007825032230

  Basis Set: AUG-CC-PVTZ
    Blend: AUG-CC-PVTZ
  Basis Set: (AUG-CC-PVTZ AUX)
    Blend: AUG-CC-PVTZ-JKFIT
	 Reference Energy          =    -270.0757834831479727 [Eh]
	 Singles Energy            =      -0.0000000000000000 [Eh]
	 Same-Spin Energy          =      -0.2752948866553552 [Eh]
	 Opposite-Spin Energy      =      -0.9514977029762918 [Eh]
	 Correlation Energy        =      -1.2267925896316469 [Eh]
	 Total Energy              =    -271.3025760727796296 [Eh]

	 ================> DF-SCS-MP2 Energies <==================
	-----------------------------------------------------------
	 SCS Same-Spin Scale       =       0.3333333333333333 [-]
	 SCS Opposite-Spin Scale   =       1.2000000000000000 [-]
	 SCS Same-Spin Energy      =      -0.0917649622184517 [Eh]
	 SCS Opposite-Spin Energy  =      -1.1417972435715500 [Eh]
	 SCS Correlation Energy    =      -1.2335622057900018 [Eh]
	 SCS Total Energy          =    -271.3093456889379809 [Eh]
	-----------------------------------------------------------

  Dipole Moment: [D]
     X:     1.1088      Y:    -0.5381      Z:    -0.4167     Total:     1.3010

*** Psi4 exiting successfully. Buy a developer a beer!
