                               Psi4 1.3.2 release

  ==> Input File <==

--------------------------------------------------------------------------
#psi4
#
memory 32 gb

molecule  {
0 1
  O       -1.2523610    -0.3679540     1.1390180
  C       -0.6414680    -0.4631600    -0.1573930
  C        0.8068160    -0.0466880    -0.0850580
  C       -1.4810420     0.4064310    -1.0751840
  C        1.1112081     1.3469663     0.3850336
  C        1.7800698    -0.9141727    -0.3963102
  H       -0.6847220    -1.5045720    -0.5137440
  H       -1.0704880     0.4059060    -2.0885930
  H       -2.5045050     0.0256980    -1.1039840
  H       -1.5089050     1.4302280    -0.6989750
  H        0.5609280     1.5513020     1.3193640
  H        2.1701080     1.4924500     0.5529100
  H        0.7653060     2.0941260    -0.3453770
  H        1.5377490    -1.9244940    -0.7449540
  H        2.8237910    -0.6585230    -0.3492850
  H       -0.7244690    -0.9269870     1.7376420
units angstrom
no_reorient  #important for SAPT in psi4, default
symmetry c1  #important for SAPT in psi4, default
}

set PROPERTIES_ORIGIN ["COM"]
properties('MP2/aug-cc-pvtz', properties = ['dipole'])
--------------------------------------------------------------------------

    Molecular point group: c1
  Charge       = 0
  Multiplicity = 1
  Basis Set: AUG-CC-PVTZ
    Blend: AUG-CC-PVTZ
  Basis Set: (AUG-CC-PVTZ AUX)
    Blend: AUG-CC-PVTZ-JKFIT

    Orbital Energies [Eh]
    ---------------------

    Doubly Occupied:

       1A    -20.558283     2A    -11.284887     3A    -11.241789
       4A    -11.222401     5A    -11.221043     6A    -11.214403
       7A     -1.357707     8A     -1.093429     9A     -0.999449
      10A     -0.937277    11A     -0.847020    12A     -0.735093
      13A     -0.691794    14A     -0.649037    15A     -0.599598
      16A     -0.590066    17A     -0.562479    18A     -0.551903
      19A     -0.531645    20A     -0.522182    21A     -0.509167
      22A     -0.479458    23A     -0.441250    24A     -0.358510

  @DF-RHF Final Energy:  -270.10180715181366

   => Energetics <=

    Nuclear Repulsion Energy =            245.4376098096455792
    One-Electron Energy =                -852.6790948351267616
    Two-Electron Energy =                 337.1396778736675515
    Total Energy =                       -270.1018071518136594
  Basis Set: (AUG-CC-PVTZ AUX)
    Blend: AUG-CC-PVTZ-RI
    Molecular point group: c1

    Geometry (in Angstrom), charge = 0, multiplicity = 1:

       Center              X                  Y                   Z               Mass
    ------------   -----------------  -----------------  -----------------  -----------------
         O           -1.255277961186    -0.368741633679     1.138796426361    15.994914619570
         C           -0.644384961186    -0.463947633679    -0.157614573640    12.000000000000
         C            0.803899038814    -0.047475633679    -0.085279573640    12.000000000000
         C           -1.483958961186     0.405643366321    -1.075405573640    12.000000000000
         C            1.108291138814     1.346178666321     0.384812026360    12.000000000000
         C            1.777152838814    -0.914960333679    -0.396531773640    12.000000000000
         H           -0.687638961186    -1.505359633679    -0.513965573640     1.007825032230
         H           -1.073404961186     0.405118366321    -2.088814573640     1.007825032230
         H           -2.507421961186     0.024910366321    -1.104205573640     1.007825032230
         H           -1.511821961186     1.429440366321    -0.699196573640     1.007825032230
         H            0.558011038814     1.550514366321     1.319142426360     1.007825032230
         H            2.167191038814     1.491662366321     0.552688426360     1.007825032230
         H            0.762389038814     2.093338366321    -0.345598573640     1.007825032230
         H            1.534832038814    -1.925281633679    -0.745175573640     1.007825032230
         H            2.820874038814    -0.659310633679    -0.349506573640     1.007825032230
         H           -0.727385961186    -0.927774633679     1.737420426360     1.007825032230

  Basis Set: AUG-CC-PVTZ
    Blend: AUG-CC-PVTZ
  Basis Set: (AUG-CC-PVTZ AUX)
    Blend: AUG-CC-PVTZ-JKFIT
	 Reference Energy          =    -270.1018071518136594 [Eh]
	 Singles Energy            =      -0.0000000000000000 [Eh]
	 Same-Spin Energy          =      -0.2756465595302879 [Eh]
	 Opposite-Spin Energy      =      -0.9505893869090259 [Eh]
	 Correlation Energy        =      -1.2262359464393140 [Eh]
	 Total Energy              =    -271.3280430982529765 [Eh]

	 ================> DF-SCS-MP2 Energies <==================
	-----------------------------------------------------------
	 SCS Same-Spin Scale       =       0.3333333333333333 [-]
	 SCS Opposite-Spin Scale   =       1.2000000000000000 [-]
	 SCS Same-Spin Energy      =      -0.0918821865100960 [Eh]
	 SCS Opposite-Spin Energy  =      -1.1407072642908311 [Eh]
	 SCS Correlation Energy    =      -1.2325894508009272 [Eh]
	 SCS Total Energy          =    -271.3343966026145608 [Eh]
	-----------------------------------------------------------

  Dipole Moment: [D]
     X:     1.1141      Y:    -0.4374      Z:    -0.3755     Total:     1.2544

*** Psi4 exiting successfully. Buy a developer a beer!
