                               Psi4 1.3.2 release

  ==> Input File <==

--------------------------------------------------------------------------
#psi4
#
memory 32 gb

molecule  {
0 1
  O       -1.2739811    -0.3759599     1.1291758
  C       -0.6414680    -0.4631600    -0.1573930
  C        0.8091919    -0.0512990    -0.1108737
  C       -1.4810420     0.4064310    -1.0751840
  C        1.0983630     1.3493650     0.3860570
  C        1.7719920    -0.9222190    -0.3989230
  H       -0.6847220    -1.5045720    -0.5137440
  H       -1.0704880     0.4059060    -2.0885930
  H       -2.5045050     0.0256980    -1.1039840
  H       -1.5089050     1.4302280    -0.6989750
  H        0.5609280     1.5513020     1.3193640
  H        2.1701080     1.4924500     0.5529100
  H        0.7653060     2.0941260    -0.3453770
  H        1.5377490    -1.9244940    -0.7449540
  H        2.8237910    -0.6585230    -0.3492850
  H       -0.7244690    -0.9269870     1.7376420
units angstrom
no_reorient  #important for SAPT in psi4, default
symmetry c1  #important for SAPT in psi4, default
}

set PROPERTIES_ORIGIN ["COM"]
properties('MP2/aug-cc-pvtz', properties = ['dipole'])
--------------------------------------------------------------------------

    Molecular point group: c1
  Charge       = 0
  Multiplicity = 1
  Basis Set: AUG-CC-PVTZ
    Blend: AUG-CC-PVTZ
  Basis Set: (AUG-CC-PVTZ AUX)
    Blend: AUG-CC-PVTZ-JKFIT

    Orbital Energies [Eh]
    ---------------------

    Doubly Occupied:

       1A    -20.560424     2A    -11.283752     3A    -11.241404
       4A    -11.222334     5A    -11.222039     6A    -11.213236
       7A     -1.355249     8A     -1.094047     9A     -0.998217
      10A     -0.938564    11A     -0.845814    12A     -0.734131
      13A     -0.688946    14A     -0.650161    15A     -0.599525
      16A     -0.590322    17A     -0.563459    18A     -0.547852
      19A     -0.529703    20A     -0.523808    21A     -0.509681
      22A     -0.478977    23A     -0.439339    24A     -0.362575

  @DF-RHF Final Energy:  -270.10089020247540

   => Energetics <=

    Nuclear Repulsion Energy =            245.3030934827689293
    One-Electron Energy =                -852.4208487235990788
    Two-Electron Energy =                 337.0168650383546947
    Total Energy =                       -270.1008902024753979
  Basis Set: (AUG-CC-PVTZ AUX)
    Blend: AUG-CC-PVTZ-RI
    Molecular point group: c1

    Geometry (in Angstrom), charge = 0, multiplicity = 1:

       Center              X                  Y                   Z               Mass
    ------------   -----------------  -----------------  -----------------  -----------------
         O           -1.270294659837    -0.373829587219     1.134603912288    15.994914619570
         C           -0.637781559837    -0.461029687219    -0.151964887712    12.000000000000
         C            0.812878340163    -0.049168687219    -0.105445587712    12.000000000000
         C           -1.477355559837     0.408561312781    -1.069755887712    12.000000000000
         C            1.102049440163     1.351495312781     0.391485112288    12.000000000000
         C            1.775678440163    -0.920088687219    -0.393494887712    12.000000000000
         H           -0.681035559837    -1.502441687219    -0.508315887712     1.007825032230
         H           -1.066801559837     0.408036312781    -2.083164887712     1.007825032230
         H           -2.500818559837     0.027828312781    -1.098555887712     1.007825032230
         H           -1.505218559837     1.432358312781    -0.693546887712     1.007825032230
         H            0.564614440163     1.553432312781     1.324792112288     1.007825032230
         H            2.173794440163     1.494580312781     0.558338112288     1.007825032230
         H            0.768992440163     2.096256312781    -0.339948887712     1.007825032230
         H            1.541435440163    -1.922363687219    -0.739525887712     1.007825032230
         H            2.827477440163    -0.656392687219    -0.343856887712     1.007825032230
         H           -0.720782559837    -0.924856687219     1.743070112288     1.007825032230

  Basis Set: AUG-CC-PVTZ
    Blend: AUG-CC-PVTZ
  Basis Set: (AUG-CC-PVTZ AUX)
    Blend: AUG-CC-PVTZ-JKFIT
	 Reference Energy          =    -270.1008902024753979 [Eh]
	 Singles Energy            =      -0.0000000000000000 [Eh]
	 Same-Spin Energy          =      -0.2757050448794323 [Eh]
	 Opposite-Spin Energy      =      -0.9509219526334696 [Eh]
	 Correlation Energy        =      -1.2266269975129018 [Eh]
	 Total Energy              =    -271.3275171999882787 [Eh]

	 ================> DF-SCS-MP2 Energies <==================
	-----------------------------------------------------------
	 SCS Same-Spin Scale       =       0.3333333333333333 [-]
	 SCS Opposite-Spin Scale   =       1.2000000000000000 [-]
	 SCS Same-Spin Energy      =      -0.0919016816264774 [Eh]
	 SCS Opposite-Spin Energy  =      -1.1411063431601633 [Eh]
	 SCS Correlation Energy    =      -1.2330080247866408 [Eh]
	 SCS Total Energy          =    -271.3338982272620115 [Eh]
	-----------------------------------------------------------

  Dipole Moment: [D]
     X:     1.1798      Y:    -0.4403      Z:    -0.3328     Total:     1.3026

*** Psi4 exiting successfully. Buy a developer a beer!
