                               Psi4 1.3.2 release

  ==> Input File <==

--------------------------------------------------------------------------
#psi4
#
memory 32 gb

molecule  {
0 1
  O       -1.2523610    -0.3679540     1.1390180
  C       -0.6414680    -0.4631600    -0.1573930
  C        0.8068160    -0.0466880    -0.0850580
  C       -1.4810420     0.4064310    -1.0751840
  C        1.0595410     1.1634687     0.3233240
  C        1.7719920    -0.9222190    -0.3989230
  H       -0.6847220    -1.5045720    -0.5137440
  H       -1.0704880     0.4059060    -2.0885930
  H       -2.5045050     0.0256980    -1.1039840
  H       -1.5089050     1.4302280    -0.6989750
  H        0.5609280     1.5513020     1.3193640
  H        2.1701080     1.4924500     0.5529100
  H        0.7653060     2.0941260    -0.3453770
  H        1.5377490    -1.9244940    -0.7449540
  H        2.8237910    -0.6585230    -0.3492850
  H       -0.7244690    -0.9269870     1.7376420
units angstrom
no_reorient  #important for SAPT in psi4, default
symmetry c1  #important for SAPT in psi4, default
}

set PROPERTIES_ORIGIN ["COM"]
properties('MP2/aug-cc-pvtz', properties = ['dipole'])
--------------------------------------------------------------------------

    Molecular point group: c1
  Charge       = 0
  Multiplicity = 1
  Basis Set: AUG-CC-PVTZ
    Blend: AUG-CC-PVTZ
  Basis Set: (AUG-CC-PVTZ AUX)
    Blend: AUG-CC-PVTZ-JKFIT

    Orbital Energies [Eh]
    ---------------------

    Doubly Occupied:

       1A    -20.558289     2A    -11.284860     3A    -11.232007
       4A    -11.229406     5A    -11.224412     6A    -11.214039
       7A     -1.358356     8A     -1.126333     9A     -1.004293
      10A     -0.936947    11A     -0.847966    12A     -0.738337
      13A     -0.696812    14A     -0.659693    15A     -0.611734
      16A     -0.592251    17A     -0.565679    18A     -0.549848
      19A     -0.531987    20A     -0.513075    21A     -0.497060
      22A     -0.469066    23A     -0.440259    24A     -0.347801

  @DF-RHF Final Energy:  -270.04887296505007

   => Energetics <=

    Nuclear Repulsion Energy =            248.7689915793169178
    One-Electron Energy =                -859.1747116628200729
    Two-Electron Energy =                 340.3568471184531177
    Total Energy =                       -270.0488729650500659
  Basis Set: (AUG-CC-PVTZ AUX)
    Blend: AUG-CC-PVTZ-RI
    Molecular point group: c1

    Geometry (in Angstrom), charge = 0, multiplicity = 1:

       Center              X                  Y                   Z               Mass
    ------------   -----------------  -----------------  -----------------  -----------------
         O           -1.246948549802    -0.342037296717     1.147764015742    15.994914619570
         C           -0.636055549802    -0.437243296717    -0.148646984258    12.000000000000
         C            0.812228450198    -0.020771296717    -0.076311984258    12.000000000000
         C           -1.475629549802     0.432347703283    -1.066437984258    12.000000000000
         C            1.064953450198     1.189385403283     0.332070015742    12.000000000000
         C            1.777404450198    -0.896302296717    -0.390176984258    12.000000000000
         H           -0.679309549802    -1.478655296717    -0.504997984258     1.007825032230
         H           -1.065075549802     0.431822703283    -2.079846984258     1.007825032230
         H           -2.499092549802     0.051614703283    -1.095237984258     1.007825032230
         H           -1.503492549802     1.456144703283    -0.690228984258     1.007825032230
         H            0.566340450198     1.577218703283     1.328110015742     1.007825032230
         H            2.175520450198     1.518366703283     0.561656015742     1.007825032230
         H            0.770718450198     2.120042703283    -0.336630984258     1.007825032230
         H            1.543161450198    -1.898577296717    -0.736207984258     1.007825032230
         H            2.829203450198    -0.632606296717    -0.340538984258     1.007825032230
         H           -0.719056549802    -0.901070296717     1.746388015742     1.007825032230

  Basis Set: AUG-CC-PVTZ
    Blend: AUG-CC-PVTZ
  Basis Set: (AUG-CC-PVTZ AUX)
    Blend: AUG-CC-PVTZ-JKFIT
	 Reference Energy          =    -270.0488729650500659 [Eh]
	 Singles Energy            =      -0.0000000000000000 [Eh]
	 Same-Spin Energy          =      -0.2794038946857769 [Eh]
	 Opposite-Spin Energy      =      -0.9552939938978612 [Eh]
	 Correlation Energy        =      -1.2346978885836382 [Eh]
	 Total Energy              =    -271.2835708536337052 [Eh]

	 ================> DF-SCS-MP2 Energies <==================
	-----------------------------------------------------------
	 SCS Same-Spin Scale       =       0.3333333333333333 [-]
	 SCS Opposite-Spin Scale   =       1.2000000000000000 [-]
	 SCS Same-Spin Energy      =      -0.0931346315619256 [Eh]
	 SCS Opposite-Spin Energy  =      -1.1463527926774333 [Eh]
	 SCS Correlation Energy    =      -1.2394874242393590 [Eh]
	 SCS Total Energy          =    -271.2883603892894371 [Eh]
	-----------------------------------------------------------

  Dipole Moment: [D]
     X:     1.0827      Y:    -0.3838      Z:    -0.3466     Total:     1.1999

*** Psi4 exiting successfully. Buy a developer a beer!
