                               Psi4 1.4a3.dev225

  ==> Input File <==

--------------------------------------------------------------------------
#psi4
#
memory 32 gb

molecule  {
0 1
  O       -1.2433940    -0.3366800     1.2074370
  C       -0.6640150    -0.4819890    -0.1009900
  C        0.7919130    -0.0810760    -0.0782340
  C       -1.5159190     0.3706220    -1.0242050
  C        1.1030690     1.3392670     0.3065330
  C        1.7446070    -0.9832150    -0.3605780
  H       -0.7308000    -1.5333880    -0.4224710
  H       -1.1307760     0.3301940    -2.0469120
  H       -2.5455460     0.0047250    -1.0155750
  H       -1.5200810     1.4081240    -0.6829090
  H        0.5415810     1.6180770     1.2025330
  H        2.1707320     1.4680310     0.5024970
  H        0.8184500     2.0371770    -0.4879450
  H        1.4998056    -1.9860860    -0.6295022
  H        2.8007100    -0.7292190    -0.3378150
  H       -0.7102690    -0.8870460     1.8084860
units angstrom
no_reorient  #important for SAPT in psi4, default
symmetry c1  #important for SAPT in psi4, default
}

set PROPERTIES_ORIGIN ["COM"]
properties('MP2/aug-cc-pvtz', properties = ['dipole'])
--------------------------------------------------------------------------

    Molecular point group: c1
  Charge       = 0
  Multiplicity = 1
  Basis Set: AUG-CC-PVTZ
    Blend: AUG-CC-PVTZ
  Basis Set: (AUG-CC-PVTZ AUX)
    Blend: AUG-CC-PVTZ-JKFIT

    Orbital Energies [Eh]
    ---------------------

    Doubly Occupied:

       1A    -20.557983     2A    -11.284658     3A    -11.242436
       4A    -11.221083     5A    -11.220787     6A    -11.214444
       7A     -1.356849     8A     -1.092943     9A     -0.998634
      10A     -0.939232    11A     -0.846483    12A     -0.735341
      13A     -0.691563    14A     -0.651492    15A     -0.597991
      16A     -0.590618    17A     -0.564208    18A     -0.548594
      19A     -0.530975    20A     -0.524367    21A     -0.511632
      22A     -0.478779    23A     -0.440324    24A     -0.358820

  @DF-RHF Final Energy:  -270.10210282133477

   => Energetics <=

    Nuclear Repulsion Energy =            245.4157770948532686
    One-Electron Energy =                -852.6352863890377876
    Two-Electron Energy =                 337.1174064728497228
    Total Energy =                       -270.1021028213347677
  Basis Set: (AUG-CC-PVTZ AUX)
    Blend: AUG-CC-PVTZ-RI
    Molecular point group: c1

    Geometry (in Angstrom), charge = 0, multiplicity = 1:

       Center              X                  Y                   Z               Mass
    ------------   -----------------  -----------------  -----------------  -----------------
         O           -1.229812848498    -0.317188106789     1.183073509548    15.994914619570
         C           -0.650433848498    -0.462497106789    -0.125353490452    12.000000000000
         C            0.805494151502    -0.061584106789    -0.102597490452    12.000000000000
         C           -1.502337848498     0.390113893211    -1.048568490452    12.000000000000
         C            1.116650151502     1.358758893211     0.282169509548    12.000000000000
         C            1.758188151502    -0.963723106789    -0.384941490452    12.000000000000
         H           -0.717218848498    -1.513896106789    -0.446834490452     1.007825032230
         H           -1.117194848498     0.349685893211    -2.071275490452     1.007825032230
         H           -2.531964848498     0.024216893211    -1.039938490452     1.007825032230
         H           -1.506499848498     1.427615893211    -0.707272490452     1.007825032230
         H            0.555162151502     1.637568893211     1.178169509548     1.007825032230
         H            2.184313151502     1.487522893211     0.478133509548     1.007825032230
         H            0.832031151502     2.056668893211    -0.512308490452     1.007825032230
         H            1.513386751502    -1.966594106789    -0.653865690452     1.007825032230
         H            2.814291151502    -0.709727106789    -0.362178490452     1.007825032230
         H           -0.696687848498    -0.867554106789     1.784122509548     1.007825032230

  Basis Set: AUG-CC-PVTZ
    Blend: AUG-CC-PVTZ
  Basis Set: (AUG-CC-PVTZ AUX)
    Blend: AUG-CC-PVTZ-JKFIT
	 Reference Energy          =    -270.1021028213347677 [Eh]
	 Singles Energy            =      -0.0000000000000000 [Eh]
	 Same-Spin Energy          =      -0.2756095423549276 [Eh]
	 Opposite-Spin Energy      =      -0.9505751245285621 [Eh]
	 Correlation Energy        =      -1.2261846668834897 [Eh]
	 Total Energy              =    -271.3282874882182796 [Eh]

	 ================> DF-SCS-MP2 Energies <==================
	-----------------------------------------------------------
	 SCS Same-Spin Scale       =       0.3333333333333333 [-]
	 SCS Opposite-Spin Scale   =       1.2000000000000000 [-]
	 SCS Same-Spin Energy      =      -0.0918698474516425 [Eh]
	 SCS Opposite-Spin Energy  =      -1.1406901494342745 [Eh]
	 SCS Correlation Energy    =      -1.2325599968859171 [Eh]
	 SCS Total Energy          =    -271.3346628182206928 [Eh]
	-----------------------------------------------------------

  Dipole Moment: [D]
     X:     1.1023      Y:    -0.4810      Z:    -0.3992     Total:     1.2672

*** Psi4 exiting successfully. Buy a developer a beer!
