                               Psi4 1.3.2 release

  ==> Input File <==

--------------------------------------------------------------------------
#psi4
#
memory 32 gb

molecule  {
0 1
  O       -1.2523610    -0.3679540     1.1390180
  C       -0.6414680    -0.4631600    -0.1573930
  C        0.8538402    -0.0334967    -0.1466860
  C       -1.4810420     0.4064310    -1.0751840
  C        1.0983630     1.3493650     0.3860570
  C        1.7719920    -0.9222190    -0.3989230
  H       -0.6847220    -1.5045720    -0.5137440
  H       -1.0704880     0.4059060    -2.0885930
  H       -2.5045050     0.0256980    -1.1039840
  H       -1.5089050     1.4302280    -0.6989750
  H        0.5837956     1.6039142     1.3193854
  H        2.1701080     1.4924500     0.5529100
  H        0.7653060     2.0941260    -0.3453770
  H        1.5377490    -1.9244940    -0.7449540
  H        2.8237910    -0.6585230    -0.3492850
  H       -0.7244690    -0.9269870     1.7376420
units angstrom
no_reorient  #important for SAPT in psi4, default
symmetry c1  #important for SAPT in psi4, default
}

set PROPERTIES_ORIGIN ["COM"]
properties('MP2/aug-cc-pvtz', properties = ['dipole'])
--------------------------------------------------------------------------

    Molecular point group: c1
  Charge       = 0
  Multiplicity = 1
  Basis Set: AUG-CC-PVTZ
    Blend: AUG-CC-PVTZ
  Basis Set: (AUG-CC-PVTZ AUX)
    Blend: AUG-CC-PVTZ-JKFIT

    Orbital Energies [Eh]
    ---------------------

    Doubly Occupied:

       1A    -20.559397     2A    -11.285390     3A    -11.238838
       4A    -11.221270     5A    -11.218347     6A    -11.212243
       7A     -1.356260     8A     -1.094852     9A     -0.999194
      10A     -0.942130    11A     -0.839093    12A     -0.733409
      13A     -0.691377    14A     -0.649748    15A     -0.601386
      16A     -0.588173    17A     -0.562121    18A     -0.546818
      19A     -0.530926    20A     -0.527664    21A     -0.511061
      22A     -0.474958    23A     -0.431063    24A     -0.369239

  @DF-RHF Final Energy:  -270.09839785966653

   => Energetics <=

    Nuclear Repulsion Energy =            245.0655092540854127
    One-Electron Energy =                -851.9578997110484124
    Two-Electron Energy =                 336.7939925972964375
    Total Energy =                       -270.0983978596665338
  Basis Set: (AUG-CC-PVTZ AUX)
    Blend: AUG-CC-PVTZ-RI
    Molecular point group: c1

    Geometry (in Angstrom), charge = 0, multiplicity = 1:

       Center              X                  Y                   Z               Mass
    ------------   -----------------  -----------------  -----------------  -----------------
         O           -1.259184662421    -0.370409381023     1.147609710188    15.994914619570
         C           -0.648291662421    -0.465615381023    -0.148801289812    12.000000000000
         C            0.847016537579    -0.035952081023    -0.138094289812    12.000000000000
         C           -1.487865662421     0.403975618977    -1.066592289812    12.000000000000
         C            1.091539337579     1.346909618977     0.394648710188    12.000000000000
         C            1.765168337579    -0.924674381023    -0.390331289812    12.000000000000
         H           -0.691545662421    -1.507027381023    -0.505152289812     1.007825032230
         H           -1.077311662421     0.403450618977    -2.080001289812     1.007825032230
         H           -2.511328662421     0.023242618977    -1.095392289812     1.007825032230
         H           -1.515728662421     1.427772618977    -0.690383289812     1.007825032230
         H            0.576971937579     1.601458818977     1.327977110188     1.007825032230
         H            2.163284337579     1.489994618977     0.561501710188     1.007825032230
         H            0.758482337579     2.091670618977    -0.336785289812     1.007825032230
         H            1.530925337579    -1.926949381023    -0.736362289812     1.007825032230
         H            2.816967337579    -0.660978381023    -0.340693289812     1.007825032230
         H           -0.731292662421    -0.929442381023     1.746233710188     1.007825032230

  Basis Set: AUG-CC-PVTZ
    Blend: AUG-CC-PVTZ
  Basis Set: (AUG-CC-PVTZ AUX)
    Blend: AUG-CC-PVTZ-JKFIT
	 Reference Energy          =    -270.0983978596665338 [Eh]
	 Singles Energy            =      -0.0000000000000000 [Eh]
	 Same-Spin Energy          =      -0.2752464217929930 [Eh]
	 Opposite-Spin Energy      =      -0.9499644844959318 [Eh]
	 Correlation Energy        =      -1.2252109062889249 [Eh]
	 Total Energy              =    -271.3236087659554414 [Eh]

	 ================> DF-SCS-MP2 Energies <==================
	-----------------------------------------------------------
	 SCS Same-Spin Scale       =       0.3333333333333333 [-]
	 SCS Opposite-Spin Scale   =       1.2000000000000000 [-]
	 SCS Same-Spin Energy      =      -0.0917488072643310 [Eh]
	 SCS Opposite-Spin Energy  =      -1.1399573813951183 [Eh]
	 SCS Correlation Energy    =      -1.2317061886594494 [Eh]
	 SCS Total Energy          =    -271.3301040483260067 [Eh]
	-----------------------------------------------------------

  Dipole Moment: [D]
     X:     1.1430      Y:    -0.4752      Z:    -0.2879     Total:     1.2709

*** Psi4 exiting successfully. Buy a developer a beer!
