                               Psi4 1.3.2 release

  ==> Input File <==

--------------------------------------------------------------------------
#psi4
#
memory 32 gb

molecule  {
0 1
  O       -1.2523610    -0.3679540     1.1390180
  C       -0.6414680    -0.4631600    -0.1573930
  C        0.8380846    -0.0383169    -0.1262973
  C       -1.4810420     0.4064310    -1.0751840
  C        1.0983630     1.3493650     0.3860570
  C        1.7719920    -0.9222190    -0.3989230
  H       -0.6847220    -1.5045720    -0.5137440
  H       -1.0704880     0.4059060    -2.0885930
  H       -2.5045050     0.0256980    -1.1039840
  H       -1.5089050     1.4302280    -0.6989750
  H        0.5760132     1.5864473     1.3196627
  H        2.1701080     1.4924500     0.5529100
  H        0.7653060     2.0941260    -0.3453770
  H        1.5377490    -1.9244940    -0.7449540
  H        2.8237910    -0.6585230    -0.3492850
  H       -0.7244690    -0.9269870     1.7376420
units angstrom
no_reorient  #important for SAPT in psi4, default
symmetry c1  #important for SAPT in psi4, default
}

set PROPERTIES_ORIGIN ["COM"]
properties('MP2/aug-cc-pvtz', properties = ['dipole'])
--------------------------------------------------------------------------

    Molecular point group: c1
  Charge       = 0
  Multiplicity = 1
  Basis Set: AUG-CC-PVTZ
    Blend: AUG-CC-PVTZ
  Basis Set: (AUG-CC-PVTZ AUX)
    Blend: AUG-CC-PVTZ-JKFIT

    Orbital Energies [Eh]
    ---------------------

    Doubly Occupied:

       1A    -20.558932     2A    -11.285011     3A    -11.239704
       4A    -11.221246     5A    -11.219661     6A    -11.212889
       7A     -1.356613     8A     -1.094270     9A     -0.999134
      10A     -0.940892    11A     -0.841509    12A     -0.733842
      13A     -0.691398    14A     -0.649913    15A     -0.600099
      16A     -0.589038    17A     -0.562711    18A     -0.547545
      19A     -0.530809    20A     -0.526254    21A     -0.511409
      22A     -0.476131    23A     -0.434628    24A     -0.365950

  @DF-RHF Final Energy:  -270.10094158936363

   => Energetics <=

    Nuclear Repulsion Energy =            245.2177062426854661
    One-Electron Energy =                -852.2581157654261688
    Two-Electron Energy =                 336.9394679333770455
    Total Energy =                       -270.1009415893636287
  Basis Set: (AUG-CC-PVTZ AUX)
    Blend: AUG-CC-PVTZ-RI
    Molecular point group: c1

    Geometry (in Angstrom), charge = 0, multiplicity = 1:

       Center              X                  Y                   Z               Mass
    ------------   -----------------  -----------------  -----------------  -----------------
         O           -1.256896951754    -0.369532847912     1.144763946702    15.994914619570
         C           -0.646003951754    -0.464738847912    -0.151647053298    12.000000000000
         C            0.833548648246    -0.039895747912    -0.120551353298    12.000000000000
         C           -1.485577951754     0.404852152088    -1.069438053298    12.000000000000
         C            1.093827048246     1.347786152088     0.391802946702    12.000000000000
         C            1.767456048246    -0.923797847912    -0.393177053298    12.000000000000
         H           -0.689257951754    -1.506150847912    -0.507998053298     1.007825032230
         H           -1.075023951754     0.404327152088    -2.082847053298     1.007825032230
         H           -2.509040951754     0.024119152088    -1.098238053298     1.007825032230
         H           -1.513440951754     1.428649152088    -0.693229053298     1.007825032230
         H            0.571477248246     1.584868452088     1.325408646702     1.007825032230
         H            2.165572048246     1.490871152088     0.558655946702     1.007825032230
         H            0.760770048246     2.092547152088    -0.339631053298     1.007825032230
         H            1.533213048246    -1.926072847912    -0.739208053298     1.007825032230
         H            2.819255048246    -0.660101847912    -0.343539053298     1.007825032230
         H           -0.729004951754    -0.928565847912     1.743387946702     1.007825032230

  Basis Set: AUG-CC-PVTZ
    Blend: AUG-CC-PVTZ
  Basis Set: (AUG-CC-PVTZ AUX)
    Blend: AUG-CC-PVTZ-JKFIT
	 Reference Energy          =    -270.1009415893636287 [Eh]
	 Singles Energy            =      -0.0000000000000000 [Eh]
	 Same-Spin Energy          =      -0.2753217121876713 [Eh]
	 Opposite-Spin Energy      =      -0.9500555511124724 [Eh]
	 Correlation Energy        =      -1.2253772633001438 [Eh]
	 Total Energy              =    -271.3263188526637464 [Eh]

	 ================> DF-SCS-MP2 Energies <==================
	-----------------------------------------------------------
	 SCS Same-Spin Scale       =       0.3333333333333333 [-]
	 SCS Opposite-Spin Scale   =       1.2000000000000000 [-]
	 SCS Same-Spin Energy      =      -0.0917739040625571 [Eh]
	 SCS Opposite-Spin Energy  =      -1.1400666613349668 [Eh]
	 SCS Correlation Energy    =      -1.2318405653975240 [Eh]
	 SCS Total Energy          =    -271.3327821547611620 [Eh]
	-----------------------------------------------------------

  Dipole Moment: [D]
     X:     1.1332      Y:    -0.4631      Z:    -0.3170     Total:     1.2645

*** Psi4 exiting successfully. Buy a developer a beer!
