                               Psi4 1.3.2 release

  ==> Input File <==

--------------------------------------------------------------------------
#psi4
#
memory 32 gb

molecule  {
0 1
  O       -1.2523610    -0.3679540     1.1390180
  C       -0.6377590    -0.4751690    -0.1613135
  C        0.8068160    -0.0466880    -0.0850580
  C       -1.4810420     0.4064310    -1.0751840
  C        1.0983630     1.3493650     0.3860570
  C        1.7638513    -0.9303209    -0.4011385
  H       -0.6847220    -1.5045720    -0.5137440
  H       -1.0704880     0.4059060    -2.0885930
  H       -2.5045050     0.0256980    -1.1039840
  H       -1.5089050     1.4302280    -0.6989750
  H        0.5609280     1.5513020     1.3193640
  H        2.1701080     1.4924500     0.5529100
  H        0.7653060     2.0941260    -0.3453770
  H        1.5377490    -1.9244940    -0.7449540
  H        2.8237910    -0.6585230    -0.3492850
  H       -0.7244690    -0.9269870     1.7376420
units angstrom
no_reorient  #important for SAPT in psi4, default
symmetry c1  #important for SAPT in psi4, default
}

set PROPERTIES_ORIGIN ["COM"]
properties('MP2/aug-cc-pvtz', properties = ['dipole'])
--------------------------------------------------------------------------

    Molecular point group: c1
  Charge       = 0
  Multiplicity = 1
  Basis Set: AUG-CC-PVTZ
    Blend: AUG-CC-PVTZ
  Basis Set: (AUG-CC-PVTZ AUX)
    Blend: AUG-CC-PVTZ-JKFIT

    Orbital Energies [Eh]
    ---------------------

    Doubly Occupied:

       1A    -20.557369     2A    -11.283478     3A    -11.242023
       4A    -11.222619     5A    -11.221971     6A    -11.214166
       7A     -1.355141     8A     -1.093478     9A     -0.997444
      10A     -0.939284    11A     -0.846333    12A     -0.734456
      13A     -0.691826    14A     -0.650890    15A     -0.595405
      16A     -0.589662    17A     -0.564004    18A     -0.549034
      19A     -0.529656    20A     -0.524596    21A     -0.511966
      22A     -0.477664    23A     -0.442117    24A     -0.358964

  @DF-RHF Final Energy:  -270.10173527849980

   => Energetics <=

    Nuclear Repulsion Energy =            245.4198793791277922
    One-Electron Energy =                -852.6561347656731868
    Two-Electron Energy =                 337.1345201080455922
    Total Energy =                       -270.1017352784998025
  Basis Set: (AUG-CC-PVTZ AUX)
    Blend: AUG-CC-PVTZ-RI
    Molecular point group: c1

    Geometry (in Angstrom), charge = 0, multiplicity = 1:

       Center              X                  Y                   Z               Mass
    ------------   -----------------  -----------------  -----------------  -----------------
         O           -1.251743117310    -0.365150479570     1.139873472848    15.994914619570
         C           -0.637141117310    -0.472365479570    -0.160458027152    12.000000000000
         C            0.807433882690    -0.043884479570    -0.084202527152    12.000000000000
         C           -1.480424117310     0.409234520430    -1.074328527152    12.000000000000
         C            1.098980882690     1.352168520430     0.386912472848    12.000000000000
         C            1.764469182690    -0.927517379570    -0.400283027152    12.000000000000
         H           -0.684104117310    -1.501768479570    -0.512888527152     1.007825032230
         H           -1.069870117310     0.408709520430    -2.087737527152     1.007825032230
         H           -2.503887117310     0.028501520430    -1.103128527152     1.007825032230
         H           -1.508287117310     1.433031520430    -0.698119527152     1.007825032230
         H            0.561545882690     1.554105520430     1.320219472848     1.007825032230
         H            2.170725882690     1.495253520430     0.553765472848     1.007825032230
         H            0.765923882690     2.096929520430    -0.344521527152     1.007825032230
         H            1.538366882690    -1.921690479570    -0.744098527152     1.007825032230
         H            2.824408882690    -0.655719479570    -0.348429527152     1.007825032230
         H           -0.723851117310    -0.924183479570     1.738497472848     1.007825032230

  Basis Set: AUG-CC-PVTZ
    Blend: AUG-CC-PVTZ
  Basis Set: (AUG-CC-PVTZ AUX)
    Blend: AUG-CC-PVTZ-JKFIT
	 Reference Energy          =    -270.1017352784998025 [Eh]
	 Singles Energy            =      -0.0000000000000000 [Eh]
	 Same-Spin Energy          =      -0.2756403254061995 [Eh]
	 Opposite-Spin Energy      =      -0.9506871149241806 [Eh]
	 Correlation Energy        =      -1.2263274403303801 [Eh]
	 Total Energy              =    -271.3280627188302105 [Eh]

	 ================> DF-SCS-MP2 Energies <==================
	-----------------------------------------------------------
	 SCS Same-Spin Scale       =       0.3333333333333333 [-]
	 SCS Opposite-Spin Scale   =       1.2000000000000000 [-]
	 SCS Same-Spin Energy      =      -0.0918801084687332 [Eh]
	 SCS Opposite-Spin Energy  =      -1.1408245379090167 [Eh]
	 SCS Correlation Energy    =      -1.2327046463777500 [Eh]
	 SCS Total Energy          =    -271.3344399248775289 [Eh]
	-----------------------------------------------------------

  Dipole Moment: [D]
     X:     1.1220      Y:    -0.4535      Z:    -0.3890     Total:     1.2712

*** Psi4 exiting successfully. Buy a developer a beer!
