                               Psi4 1.3.2 release

  ==> Input File <==

--------------------------------------------------------------------------
#psi4
#
memory 32 gb

molecule  {
0 1
  O       -1.2523610    -0.3679540     1.1390180
  C       -0.6414680    -0.4631600    -0.1573930
  C        0.8068160    -0.0466880    -0.0850580
  C       -1.4810420     0.4064310    -1.0751840
  C        1.0983630     1.3493650     0.3860570
  C        1.7719920    -0.9222190    -0.3989230
  H       -0.6847220    -1.5045720    -0.5137440
  H       -1.0704880     0.4059060    -2.0885930
  H       -2.5045050     0.0256980    -1.1039840
  H       -1.5089050     1.4302280    -0.6989750
  H        0.5609280     1.5513020     1.3193640
  H        2.1701080     1.4924500     0.5529100
  H        0.7653060     2.0941260    -0.3453770
  H        1.5593205    -1.8321943    -0.7130880
  H        2.8237910    -0.6585230    -0.3492850
  H       -0.7244690    -0.9269870     1.7376420
units angstrom
no_reorient  #important for SAPT in psi4, default
symmetry c1  #important for SAPT in psi4, default
}

set PROPERTIES_ORIGIN ["COM"]
properties('MP2/aug-cc-pvtz', properties = ['dipole'])
--------------------------------------------------------------------------

    Molecular point group: c1
  Charge       = 0
  Multiplicity = 1
  Basis Set: AUG-CC-PVTZ
    Blend: AUG-CC-PVTZ
  Basis Set: (AUG-CC-PVTZ AUX)
    Blend: AUG-CC-PVTZ-JKFIT

    Orbital Energies [Eh]
    ---------------------

    Doubly Occupied:

       1A    -20.558079     2A    -11.284309     3A    -11.241126
       4A    -11.220393     5A    -11.214206     6A    -11.210486
       7A     -1.357532     8A     -1.094550     9A     -0.999506
      10A     -0.943264    11A     -0.848549    12A     -0.739828
      13A     -0.692858    14A     -0.659952    15A     -0.599457
      16A     -0.590567    17A     -0.564131    18A     -0.548933
      19A     -0.531929    20A     -0.527110    21A     -0.513346
      22A     -0.478825    23A     -0.440356    24A     -0.358409

  @DF-RHF Final Energy:  -270.09583937802859

   => Energetics <=

    Nuclear Repulsion Energy =            245.9552314148222649
    One-Electron Energy =                -853.6667381787927980
    Two-Electron Energy =                 337.6156673859419470
    Total Energy =                       -270.0958393780285860
  Basis Set: (AUG-CC-PVTZ AUX)
    Blend: AUG-CC-PVTZ-RI
    Molecular point group: c1

    Geometry (in Angstrom), charge = 0, multiplicity = 1:

       Center              X                  Y                   Z               Mass
    ------------   -----------------  -----------------  -----------------  -----------------
         O           -1.252613547690    -0.369034997449     1.138644897687    15.994914619570
         C           -0.641720547690    -0.464240997449    -0.157766102313    12.000000000000
         C            0.806563452310    -0.047768997449    -0.085431102313    12.000000000000
         C           -1.481294547690     0.405350002551    -1.075557102313    12.000000000000
         C            1.098110452310     1.348284002551     0.385683897687    12.000000000000
         C            1.771739452310    -0.923299997449    -0.399296102313    12.000000000000
         H           -0.684974547690    -1.505652997449    -0.514117102313     1.007825032230
         H           -1.070740547690     0.404825002551    -2.088966102313     1.007825032230
         H           -2.504757547690     0.024617002551    -1.104357102313     1.007825032230
         H           -1.509157547690     1.429147002551    -0.699348102313     1.007825032230
         H            0.560675452310     1.550221002551     1.318990897687     1.007825032230
         H            2.169855452310     1.491369002551     0.552536897687     1.007825032230
         H            0.765053452310     2.093045002551    -0.345750102313     1.007825032230
         H            1.559067952310    -1.833275297449    -0.713461102313     1.007825032230
         H            2.823538452310    -0.659603997449    -0.349658102313     1.007825032230
         H           -0.724721547690    -0.928067997449     1.737268897687     1.007825032230

  Basis Set: AUG-CC-PVTZ
    Blend: AUG-CC-PVTZ
  Basis Set: (AUG-CC-PVTZ AUX)
    Blend: AUG-CC-PVTZ-JKFIT
	 Reference Energy          =    -270.0958393780285860 [Eh]
	 Singles Energy            =      -0.0000000000000000 [Eh]
	 Same-Spin Energy          =      -0.2755405201456805 [Eh]
	 Opposite-Spin Energy      =      -0.9501043635739104 [Eh]
	 Correlation Energy        =      -1.2256448837195908 [Eh]
	 Total Energy              =    -271.3214842617481963 [Eh]

	 ================> DF-SCS-MP2 Energies <==================
	-----------------------------------------------------------
	 SCS Same-Spin Scale       =       0.3333333333333333 [-]
	 SCS Opposite-Spin Scale   =       1.2000000000000000 [-]
	 SCS Same-Spin Energy      =      -0.0918468400485602 [Eh]
	 SCS Opposite-Spin Energy  =      -1.1401252362886924 [Eh]
	 SCS Correlation Energy    =      -1.2319720763372526 [Eh]
	 SCS Total Energy          =    -271.3278114543658148 [Eh]
	-----------------------------------------------------------

  Dipole Moment: [D]
     X:     1.1089      Y:    -0.4764      Z:    -0.3877     Total:     1.2676

*** Psi4 exiting successfully. Buy a developer a beer!
