                               Psi4 1.3.2 release

  ==> Input File <==

--------------------------------------------------------------------------
#psi4
#
memory 32 gb

molecule  {
0 1
  O       -1.2523610    -0.3679540     1.1390180
  C       -0.6485548    -0.4390479    -0.1495357
  C        0.8068160    -0.0466880    -0.0850580
  C       -1.4810420     0.4064310    -1.0751840
  C        1.0983630     1.3493650     0.3860570
  C        1.7880523    -0.9058158    -0.3944204
  H       -0.6847220    -1.5045720    -0.5137440
  H       -1.0704880     0.4059060    -2.0885930
  H       -2.5045050     0.0256980    -1.1039840
  H       -1.5089050     1.4302280    -0.6989750
  H        0.5609280     1.5513020     1.3193640
  H        2.1701080     1.4924500     0.5529100
  H        0.7653060     2.0941260    -0.3453770
  H        1.5377490    -1.9244940    -0.7449540
  H        2.8237910    -0.6585230    -0.3492850
  H       -0.7244690    -0.9269870     1.7376420
units angstrom
no_reorient  #important for SAPT in psi4, default
symmetry c1  #important for SAPT in psi4, default
}

set PROPERTIES_ORIGIN ["COM"]
properties('MP2/aug-cc-pvtz', properties = ['dipole'])
--------------------------------------------------------------------------

    Molecular point group: c1
  Charge       = 0
  Multiplicity = 1
  Basis Set: AUG-CC-PVTZ
    Blend: AUG-CC-PVTZ
  Basis Set: (AUG-CC-PVTZ AUX)
    Blend: AUG-CC-PVTZ-JKFIT

    Orbital Energies [Eh]
    ---------------------

    Doubly Occupied:

       1A    -20.559405     2A    -11.285903     3A    -11.241676
       4A    -11.223027     5A    -11.220167     6A    -11.214261
       7A     -1.362193     8A     -1.093476     9A     -1.001870
      10A     -0.936621    11A     -0.846573    12A     -0.736568
      13A     -0.690668    14A     -0.648578    15A     -0.602061
      16A     -0.593176    17A     -0.565035    18A     -0.549074
      19A     -0.534940    20A     -0.521449    21A     -0.508645
      22A     -0.479973    23A     -0.435826    24A     -0.359231

  @DF-RHF Final Energy:  -270.10066456111696

   => Energetics <=

    Nuclear Repulsion Energy =            245.6891855975551096
    One-Electron Energy =                -853.1589092596008186
    Two-Electron Energy =                 337.3690591009287232
    Total Energy =                       -270.1006645611169574
  Basis Set: (AUG-CC-PVTZ AUX)
    Blend: AUG-CC-PVTZ-RI
    Molecular point group: c1

    Geometry (in Angstrom), charge = 0, multiplicity = 1:

       Center              X                  Y                   Z               Mass
    ------------   -----------------  -----------------  -----------------  -----------------
         O           -1.253612020355    -0.373602758518     1.137294843375    15.994914619570
         C           -0.649805820355    -0.444696658518    -0.151258856625    12.000000000000
         C            0.805564979645    -0.052336758518    -0.086781156625    12.000000000000
         C           -1.482293020355     0.400782241482    -1.076907156625    12.000000000000
         C            1.097111979645     1.343716241482     0.384333843375    12.000000000000
         C            1.786801279645    -0.911464558518    -0.396143556625    12.000000000000
         H           -0.685973020355    -1.510220758518    -0.515467156625     1.007825032230
         H           -1.071739020355     0.400257241482    -2.090316156625     1.007825032230
         H           -2.505756020355     0.020049241482    -1.105707156625     1.007825032230
         H           -1.510156020355     1.424579241482    -0.700698156625     1.007825032230
         H            0.559676979645     1.545653241482     1.317640843375     1.007825032230
         H            2.168856979645     1.486801241482     0.551186843375     1.007825032230
         H            0.764054979645     2.088477241482    -0.347100156625     1.007825032230
         H            1.536497979645    -1.930142758518    -0.746677156625     1.007825032230
         H            2.822539979645    -0.664171758518    -0.351008156625     1.007825032230
         H           -0.725720020355    -0.932635758518     1.735918843375     1.007825032230

  Basis Set: AUG-CC-PVTZ
    Blend: AUG-CC-PVTZ
  Basis Set: (AUG-CC-PVTZ AUX)
    Blend: AUG-CC-PVTZ-JKFIT
	 Reference Energy          =    -270.1006645611169574 [Eh]
	 Singles Energy            =      -0.0000000000000000 [Eh]
	 Same-Spin Energy          =      -0.2757360081320157 [Eh]
	 Opposite-Spin Energy      =      -0.9505908022337828 [Eh]
	 Correlation Energy        =      -1.2263268103657985 [Eh]
	 Total Energy              =    -271.3269913714827339 [Eh]

	 ================> DF-SCS-MP2 Energies <==================
	-----------------------------------------------------------
	 SCS Same-Spin Scale       =       0.3333333333333333 [-]
	 SCS Opposite-Spin Scale   =       1.2000000000000000 [-]
	 SCS Same-Spin Energy      =      -0.0919120027106719 [Eh]
	 SCS Opposite-Spin Energy  =      -1.1407089626805393 [Eh]
	 SCS Correlation Energy    =      -1.2326209653912112 [Eh]
	 SCS Total Energy          =    -271.3332855265081776 [Eh]
	-----------------------------------------------------------

  Dipole Moment: [D]
     X:     1.0969      Y:    -0.4088      Z:    -0.3504     Total:     1.2219

*** Psi4 exiting successfully. Buy a developer a beer!
