                               Psi4 1.3.2 release

  ==> Input File <==

--------------------------------------------------------------------------
#psi4
#
memory 32 gb

molecule  {
0 1
  O       -1.2954085    -0.3839923     1.1189417
  C       -0.6414680    -0.4631600    -0.1573930
  C        0.8111260    -0.0560354    -0.1367035
  C       -1.4810420     0.4064310    -1.0751840
  C        1.0983630     1.3493650     0.3860570
  C        1.7719920    -0.9222190    -0.3989230
  H       -0.6847220    -1.5045720    -0.5137440
  H       -1.0704880     0.4059060    -2.0885930
  H       -2.5045050     0.0256980    -1.1039840
  H       -1.5089050     1.4302280    -0.6989750
  H        0.5609280     1.5513020     1.3193640
  H        2.1701080     1.4924500     0.5529100
  H        0.7653060     2.0941260    -0.3453770
  H        1.5377490    -1.9244940    -0.7449540
  H        2.8237910    -0.6585230    -0.3492850
  H       -0.7244690    -0.9269870     1.7376420
units angstrom
no_reorient  #important for SAPT in psi4, default
symmetry c1  #important for SAPT in psi4, default
}

set PROPERTIES_ORIGIN ["COM"]
properties('MP2/aug-cc-pvtz', properties = ['dipole'])
--------------------------------------------------------------------------

    Molecular point group: c1
  Charge       = 0
  Multiplicity = 1
  Basis Set: AUG-CC-PVTZ
    Blend: AUG-CC-PVTZ
  Basis Set: (AUG-CC-PVTZ AUX)
    Blend: AUG-CC-PVTZ-JKFIT

    Orbital Energies [Eh]
    ---------------------

    Doubly Occupied:

       1A    -20.562869     2A    -11.283340     3A    -11.241121
       4A    -11.222730     5A    -11.222078     6A    -11.212304
       7A     -1.353116     8A     -1.094730     9A     -0.997609
      10A     -0.938552    11A     -0.845370    12A     -0.733460
      13A     -0.686240    14A     -0.650387    15A     -0.601255
      16A     -0.589928    17A     -0.562679    18A     -0.546705
      19A     -0.528057    20A     -0.524065    21A     -0.508418
      22A     -0.479246    23A     -0.437944    24A     -0.365958

  @DF-RHF Final Energy:  -270.09799709560491

   => Energetics <=

    Nuclear Repulsion Energy =            245.0978511953136660
    One-Electron Energy =                -852.0153711194869857
    Two-Electron Energy =                 336.8195228285684379
    Total Energy =                       -270.0979970956049101
  Basis Set: (AUG-CC-PVTZ AUX)
    Blend: AUG-CC-PVTZ-RI
    Molecular point group: c1

    Geometry (in Angstrom), charge = 0, multiplicity = 1:

       Center              X                  Y                   Z               Mass
    ------------   -----------------  -----------------  -----------------  -----------------
         O           -1.288009866452    -0.379709000835     1.129872702254    15.994914619570
         C           -0.634069366452    -0.458876700835    -0.146461997746    12.000000000000
         C            0.818524633548    -0.051752100835    -0.125772497746    12.000000000000
         C           -1.473643366452     0.410714299165    -1.064252997746    12.000000000000
         C            1.105761633548     1.353648299165     0.396988002254    12.000000000000
         C            1.779390633548    -0.917935700835    -0.387991997746    12.000000000000
         H           -0.677323366452    -1.500288700835    -0.502812997746     1.007825032230
         H           -1.063089366452     0.410189299165    -2.077661997746     1.007825032230
         H           -2.497106366452     0.029981299165    -1.093052997746     1.007825032230
         H           -1.501506366452     1.434511299165    -0.688043997746     1.007825032230
         H            0.568326633548     1.555585299165     1.330295002254     1.007825032230
         H            2.177506633548     1.496733299165     0.563841002254     1.007825032230
         H            0.772704633548     2.098409299165    -0.334445997746     1.007825032230
         H            1.545147633548    -1.920210700835    -0.734022997746     1.007825032230
         H            2.831189633548    -0.654239700835    -0.338353997746     1.007825032230
         H           -0.717070366452    -0.922703700835     1.748573002254     1.007825032230

  Basis Set: AUG-CC-PVTZ
    Blend: AUG-CC-PVTZ
  Basis Set: (AUG-CC-PVTZ AUX)
    Blend: AUG-CC-PVTZ-JKFIT
	 Reference Energy          =    -270.0979970956049101 [Eh]
	 Singles Energy            =      -0.0000000000000000 [Eh]
	 Same-Spin Energy          =      -0.2758213123341172 [Eh]
	 Opposite-Spin Energy      =      -0.9513938600022867 [Eh]
	 Correlation Energy        =      -1.2272151723364038 [Eh]
	 Total Energy              =    -271.3252122679413105 [Eh]

	 ================> DF-SCS-MP2 Energies <==================
	-----------------------------------------------------------
	 SCS Same-Spin Scale       =       0.3333333333333333 [-]
	 SCS Opposite-Spin Scale   =       1.2000000000000000 [-]
	 SCS Same-Spin Energy      =      -0.0919404374447057 [Eh]
	 SCS Opposite-Spin Energy  =      -1.1416726320027439 [Eh]
	 SCS Correlation Energy    =      -1.2336130694474496 [Eh]
	 SCS Total Energy          =    -271.3316101650523819 [Eh]
	-----------------------------------------------------------

  Dipole Moment: [D]
     X:     1.2431      Y:    -0.4419      Z:    -0.2885     Total:     1.3505

*** Psi4 exiting successfully. Buy a developer a beer!
