                               Psi4 1.3.2 release

  ==> Input File <==

--------------------------------------------------------------------------
#psi4
#
memory 32 gb

molecule  {
0 1
  O       -1.2523610    -0.3679540     1.1390180
  C       -0.6414680    -0.4631600    -0.1573930
  C        0.8068160    -0.0466880    -0.0850580
  C       -1.4810420     0.4064310    -1.0751840
  C        1.0854957     1.3516574     0.3870446
  C        1.7638407    -0.9301987    -0.4015119
  H       -0.6847220    -1.5045720    -0.5137440
  H       -1.0704880     0.4059060    -2.0885930
  H       -2.5045050     0.0256980    -1.1039840
  H       -1.5089050     1.4302280    -0.6989750
  H        0.5609280     1.5513020     1.3193640
  H        2.1701080     1.4924500     0.5529100
  H        0.7653060     2.0941260    -0.3453770
  H        1.5377490    -1.9244940    -0.7449540
  H        2.8237910    -0.6585230    -0.3492850
  H       -0.7244690    -0.9269870     1.7376420
units angstrom
no_reorient  #important for SAPT in psi4, default
symmetry c1  #important for SAPT in psi4, default
}

set PROPERTIES_ORIGIN ["COM"]
properties('MP2/aug-cc-pvtz', properties = ['dipole'])
--------------------------------------------------------------------------

    Molecular point group: c1
  Charge       = 0
  Multiplicity = 1
  Basis Set: AUG-CC-PVTZ
    Blend: AUG-CC-PVTZ
  Basis Set: (AUG-CC-PVTZ AUX)
    Blend: AUG-CC-PVTZ-JKFIT

    Orbital Energies [Eh]
    ---------------------

    Doubly Occupied:

       1A    -20.557800     2A    -11.283571     3A    -11.241952
       4A    -11.223062     5A    -11.221721     6A    -11.213947
       7A     -1.357288     8A     -1.093449     9A     -0.998349
      10A     -0.939477    11A     -0.845692    12A     -0.734619
      13A     -0.691632    14A     -0.650795    15A     -0.595840
      16A     -0.591624    17A     -0.566153    18A     -0.546498
      19A     -0.531227    20A     -0.524310    21A     -0.512519
      22A     -0.477357    23A     -0.439456    24A     -0.359566

  @DF-RHF Final Energy:  -270.10173340218989

   => Energetics <=

    Nuclear Repulsion Energy =            245.5823055900486622
    One-Electron Energy =                -852.9722709114159898
    Two-Electron Energy =                 337.2882319191774059
    Total Energy =                       -270.1017334021898932
  Basis Set: (AUG-CC-PVTZ AUX)
    Blend: AUG-CC-PVTZ-RI
    Molecular point group: c1

    Geometry (in Angstrom), charge = 0, multiplicity = 1:

       Center              X                  Y                   Z               Mass
    ------------   -----------------  -----------------  -----------------  -----------------
         O           -1.249430633505    -0.367161364148     1.139241261868    15.994914619570
         C           -0.638537633505    -0.462367364148    -0.157169738132    12.000000000000
         C            0.809746366495    -0.045895364148    -0.084834738132    12.000000000000
         C           -1.478111633505     0.407223635852    -1.074960738132    12.000000000000
         C            1.088426066495     1.352450035852     0.387267861868    12.000000000000
         C            1.766771066495    -0.929406064148    -0.401288638132    12.000000000000
         H           -0.681791633505    -1.503779364148    -0.513520738132     1.007825032230
         H           -1.067557633505     0.406698635852    -2.088369738132     1.007825032230
         H           -2.501574633505     0.026490635852    -1.103760738132     1.007825032230
         H           -1.505974633505     1.431020635852    -0.698751738132     1.007825032230
         H            0.563858366495     1.552094635852     1.319587261868     1.007825032230
         H            2.173038366495     1.493242635852     0.553133261868     1.007825032230
         H            0.768236366495     2.094918635852    -0.345153738132     1.007825032230
         H            1.540679366495    -1.923701364148    -0.744730738132     1.007825032230
         H            2.826721366495    -0.657730364148    -0.349061738132     1.007825032230
         H           -0.721538633505    -0.926194364148     1.737865261868     1.007825032230

  Basis Set: AUG-CC-PVTZ
    Blend: AUG-CC-PVTZ
  Basis Set: (AUG-CC-PVTZ AUX)
    Blend: AUG-CC-PVTZ-JKFIT
	 Reference Energy          =    -270.1017334021898932 [Eh]
	 Singles Energy            =      -0.0000000000000000 [Eh]
	 Same-Spin Energy          =      -0.2756784768225856 [Eh]
	 Opposite-Spin Energy      =      -0.9506686346606896 [Eh]
	 Correlation Energy        =      -1.2263471114832751 [Eh]
	 Total Energy              =    -271.3280805136731715 [Eh]

	 ================> DF-SCS-MP2 Energies <==================
	-----------------------------------------------------------
	 SCS Same-Spin Scale       =       0.3333333333333333 [-]
	 SCS Opposite-Spin Scale   =       1.2000000000000000 [-]
	 SCS Same-Spin Energy      =      -0.0918928256075285 [Eh]
	 SCS Opposite-Spin Energy  =      -1.1408023615928276 [Eh]
	 SCS Correlation Energy    =      -1.2326951872003562 [Eh]
	 SCS Total Energy          =    -271.3344285893902565 [Eh]
	-----------------------------------------------------------

  Dipole Moment: [D]
     X:     1.1130      Y:    -0.4428      Z:    -0.3780     Total:     1.2561

*** Psi4 exiting successfully. Buy a developer a beer!
