                               Psi4 1.3.2 release

  ==> Input File <==

--------------------------------------------------------------------------
#psi4
#
memory 32 gb

molecule  {
0 1
  O       -1.2523610    -0.3679540     1.1390180
  C       -0.6450487    -0.4512507    -0.1530700
  C        0.8068160    -0.0466880    -0.0850580
  C       -1.4810420     0.4064310    -1.0751840
  C        1.0855091     1.3515177     0.3874500
  C        1.7719920    -0.9222190    -0.3989230
  H       -0.6847220    -1.5045720    -0.5137440
  H       -1.0704880     0.4059060    -2.0885930
  H       -2.5045050     0.0256980    -1.1039840
  H       -1.5089050     1.4302280    -0.6989750
  H        0.5609280     1.5513020     1.3193640
  H        2.1701080     1.4924500     0.5529100
  H        0.7653060     2.0941260    -0.3453770
  H        1.5377490    -1.9244940    -0.7449540
  H        2.8237910    -0.6585230    -0.3492850
  H       -0.7244690    -0.9269870     1.7376420
units angstrom
no_reorient  #important for SAPT in psi4, default
symmetry c1  #important for SAPT in psi4, default
}

set PROPERTIES_ORIGIN ["COM"]
properties('MP2/aug-cc-pvtz', properties = ['dipole'])
--------------------------------------------------------------------------

    Molecular point group: c1
  Charge       = 0
  Multiplicity = 1
  Basis Set: AUG-CC-PVTZ
    Blend: AUG-CC-PVTZ
  Basis Set: (AUG-CC-PVTZ AUX)
    Blend: AUG-CC-PVTZ-JKFIT

    Orbital Energies [Eh]
    ---------------------

    Doubly Occupied:

       1A    -20.558520     2A    -11.284362     3A    -11.241790
       4A    -11.223151     5A    -11.221106     6A    -11.213968
       7A     -1.359776     8A     -1.093400     9A     -0.999742
      10A     -0.938564    11A     -0.845738    12A     -0.735219
      13A     -0.691312    14A     -0.649824    15A     -0.598158
      16A     -0.592750    17A     -0.566581    18A     -0.546492
      19A     -0.532843    20A     -0.523230    21A     -0.511764
      22A     -0.478007    23A     -0.437422    24A     -0.359622

  @DF-RHF Final Energy:  -270.10172475660340

   => Energetics <=

    Nuclear Repulsion Energy =            245.6719805649277646
    One-Electron Energy =                -853.1407245171436671
    Two-Electron Energy =                 337.3670191956124427
    Total Energy =                       -270.1017247566034030
  Basis Set: (AUG-CC-PVTZ AUX)
    Blend: AUG-CC-PVTZ-RI
    Molecular point group: c1

    Geometry (in Angstrom), charge = 0, multiplicity = 1:

       Center              X                  Y                   Z               Mass
    ------------   -----------------  -----------------  -----------------  -----------------
         O           -1.250069717708    -0.369914737980     1.138221111162    15.994914619570
         C           -0.642757417708    -0.453211437980    -0.153866888838    12.000000000000
         C            0.809107282292    -0.048648737980    -0.085854888838    12.000000000000
         C           -1.478750717708     0.404470262020    -1.075980888838    12.000000000000
         C            1.087800382292     1.349556962020     0.386653111162    12.000000000000
         C            1.774283282292    -0.924179737980    -0.399719888838    12.000000000000
         H           -0.682430717708    -1.506532737980    -0.514540888838     1.007825032230
         H           -1.068196717708     0.403945262020    -2.089389888838     1.007825032230
         H           -2.502213717708     0.023737262020    -1.104780888838     1.007825032230
         H           -1.506613717708     1.428267262020    -0.699771888838     1.007825032230
         H            0.563219282292     1.549341262020     1.318567111162     1.007825032230
         H            2.172399282292     1.490489262020     0.552113111162     1.007825032230
         H            0.767597282292     2.092165262020    -0.346173888838     1.007825032230
         H            1.540040282292    -1.926454737980    -0.745750888838     1.007825032230
         H            2.826082282292    -0.660483737980    -0.350081888838     1.007825032230
         H           -0.722177717708    -0.928947737980     1.736845111162     1.007825032230

  Basis Set: AUG-CC-PVTZ
    Blend: AUG-CC-PVTZ
  Basis Set: (AUG-CC-PVTZ AUX)
    Blend: AUG-CC-PVTZ-JKFIT
	 Reference Energy          =    -270.1017247566034030 [Eh]
	 Singles Energy            =      -0.0000000000000000 [Eh]
	 Same-Spin Energy          =      -0.2757030560305905 [Eh]
	 Opposite-Spin Energy      =      -0.9506140489202345 [Eh]
	 Correlation Energy        =      -1.2263171049508250 [Eh]
	 Total Energy              =    -271.3280418615542544 [Eh]

	 ================> DF-SCS-MP2 Energies <==================
	-----------------------------------------------------------
	 SCS Same-Spin Scale       =       0.3333333333333333 [-]
	 SCS Opposite-Spin Scale   =       1.2000000000000000 [-]
	 SCS Same-Spin Energy      =      -0.0919010186768635 [Eh]
	 SCS Opposite-Spin Energy  =      -1.1407368587042814 [Eh]
	 SCS Correlation Energy    =      -1.2326378773811451 [Eh]
	 SCS Total Energy          =    -271.3343626339845400 [Eh]
	-----------------------------------------------------------

  Dipole Moment: [D]
     X:     1.1052      Y:    -0.4287      Z:    -0.3642     Total:     1.2401

*** Psi4 exiting successfully. Buy a developer a beer!
