                               Psi4 1.4a3.dev225

  ==> Input File <==

--------------------------------------------------------------------------
#psi4
#
memory 32 gb

molecule  {
0 1
  O       -1.2433940    -0.3366800     1.2074370
  C       -0.6640150    -0.4819890    -0.1009900
  C        0.7919130    -0.0810760    -0.0782340
  C       -1.5159190     0.3706220    -1.0242050
  C        1.0927252     1.2920505     0.2937422
  C        1.7446070    -0.9832150    -0.3605780
  H       -0.7308000    -1.5333880    -0.4224710
  H       -1.1307760     0.3301940    -2.0469120
  H       -2.5455460     0.0047250    -1.0155750
  H       -1.5200810     1.4081240    -0.6829090
  H        0.5415810     1.6180770     1.2025330
  H        2.1707320     1.4680310     0.5024970
  H        0.8184500     2.0371770    -0.4879450
  H        1.4952160    -2.0048880    -0.6345440
  H        2.8007100    -0.7292190    -0.3378150
  H       -0.7102690    -0.8870460     1.8084860
units angstrom
no_reorient  #important for SAPT in psi4, default
symmetry c1  #important for SAPT in psi4, default
}

set PROPERTIES_ORIGIN ["COM"]
properties('MP2/aug-cc-pvtz', properties = ['dipole'])
--------------------------------------------------------------------------

    Molecular point group: c1
  Charge       = 0
  Multiplicity = 1
  Basis Set: AUG-CC-PVTZ
    Blend: AUG-CC-PVTZ
  Basis Set: (AUG-CC-PVTZ AUX)
    Blend: AUG-CC-PVTZ-JKFIT

    Orbital Energies [Eh]
    ---------------------

    Doubly Occupied:

       1A    -20.558011     2A    -11.284686     3A    -11.240222
       4A    -11.223720     5A    -11.222798     6A    -11.214402
       7A     -1.357000     8A     -1.098949     9A     -0.999740
      10A     -0.937399    11A     -0.846466    12A     -0.735601
      13A     -0.692499    14A     -0.651429    15A     -0.600200
      16A     -0.590273    17A     -0.560667    18A     -0.549576
      19A     -0.531015    20A     -0.517805    21A     -0.513708
      22A     -0.477773    23A     -0.441791    24A     -0.357194

  @DF-RHF Final Energy:  -270.09873044150515

   => Energetics <=

    Nuclear Repulsion Energy =            246.0923468787893853
    One-Electron Energy =                -853.9763092942860112
    Two-Electron Energy =                 337.7852319739914719
    Total Energy =                       -270.0987304415051540
  Basis Set: (AUG-CC-PVTZ AUX)
    Blend: AUG-CC-PVTZ-RI
    Molecular point group: c1

    Geometry (in Angstrom), charge = 0, multiplicity = 1:

       Center              X                  Y                   Z               Mass
    ------------   -----------------  -----------------  -----------------  -----------------
         O           -1.228317015112    -0.310385206876     1.184915789338    15.994914619570
         C           -0.648938015112    -0.455694206876    -0.123511210662    12.000000000000
         C            0.806989984888    -0.054781206876    -0.100755210662    12.000000000000
         C           -1.500842015112     0.396916793124    -1.046726210662    12.000000000000
         C            1.107802184888     1.318345293124     0.271220989338    12.000000000000
         C            1.759683984888    -0.956920206876    -0.383099210662    12.000000000000
         H           -0.715723015112    -1.507093206876    -0.444992210662     1.007825032230
         H           -1.115699015112     0.356488793124    -2.069433210662     1.007825032230
         H           -2.530469015112     0.031019793124    -1.038096210662     1.007825032230
         H           -1.505004015112     1.434418793124    -0.705430210662     1.007825032230
         H            0.556657984888     1.644371793124     1.180011789338     1.007825032230
         H            2.185808984888     1.494325793124     0.479975789338     1.007825032230
         H            0.833526984888     2.063471793124    -0.510466210662     1.007825032230
         H            1.510292984888    -1.978593206876    -0.657065210662     1.007825032230
         H            2.815786984888    -0.702924206876    -0.360336210662     1.007825032230
         H           -0.695192015112    -0.860751206876     1.785964789338     1.007825032230

  Basis Set: AUG-CC-PVTZ
    Blend: AUG-CC-PVTZ
  Basis Set: (AUG-CC-PVTZ AUX)
    Blend: AUG-CC-PVTZ-JKFIT
	 Reference Energy          =    -270.0987304415051540 [Eh]
	 Singles Energy            =      -0.0000000000000000 [Eh]
	 Same-Spin Energy          =      -0.2762048013263543 [Eh]
	 Opposite-Spin Energy      =      -0.9512802582287601 [Eh]
	 Correlation Energy        =      -1.2274850595551143 [Eh]
	 Total Energy              =    -271.3262155010602896 [Eh]

	 ================> DF-SCS-MP2 Energies <==================
	-----------------------------------------------------------
	 SCS Same-Spin Scale       =       0.3333333333333333 [-]
	 SCS Opposite-Spin Scale   =       1.2000000000000000 [-]
	 SCS Same-Spin Energy      =      -0.0920682671087848 [Eh]
	 SCS Opposite-Spin Energy  =      -1.1415363098745119 [Eh]
	 SCS Correlation Energy    =      -1.2336045769832966 [Eh]
	 SCS Total Energy          =    -271.3323350184884362 [Eh]
	-----------------------------------------------------------

  Dipole Moment: [D]
     X:     1.1006      Y:    -0.4543      Z:    -0.3899     Total:     1.2529

*** Psi4 exiting successfully. Buy a developer a beer!
