                               Psi4 1.3.2 release

  ==> Input File <==

--------------------------------------------------------------------------
#psi4
#
memory 32 gb

molecule  {
0 1
  O       -1.2414808    -0.3639618     1.1437912
  C       -0.6414680    -0.4631600    -0.1573930
  C        0.8054625    -0.0444300    -0.0721579
  C       -1.4810420     0.4064310    -1.0751840
  C        1.0983630     1.3493650     0.3860570
  C        1.7719920    -0.9222190    -0.3989230
  H       -0.6847220    -1.5045720    -0.5137440
  H       -1.0704880     0.4059060    -2.0885930
  H       -2.5045050     0.0256980    -1.1039840
  H       -1.5089050     1.4302280    -0.6989750
  H        0.5609280     1.5513020     1.3193640
  H        2.1701080     1.4924500     0.5529100
  H        0.7653060     2.0941260    -0.3453770
  H        1.5377490    -1.9244940    -0.7449540
  H        2.8237910    -0.6585230    -0.3492850
  H       -0.7244690    -0.9269870     1.7376420
units angstrom
no_reorient  #important for SAPT in psi4, default
symmetry c1  #important for SAPT in psi4, default
}

set PROPERTIES_ORIGIN ["COM"]
properties('MP2/aug-cc-pvtz', properties = ['dipole'])
--------------------------------------------------------------------------

    Molecular point group: c1
  Charge       = 0
  Multiplicity = 1
  Basis Set: AUG-CC-PVTZ
    Blend: AUG-CC-PVTZ
  Basis Set: (AUG-CC-PVTZ AUX)
    Blend: AUG-CC-PVTZ-JKFIT

    Orbital Energies [Eh]
    ---------------------

    Doubly Occupied:

       1A    -20.556862     2A    -11.284468     3A    -11.242114
       4A    -11.222934     5A    -11.220993     6A    -11.214631
       7A     -1.358647     8A     -1.093114     9A     -0.999238
      10A     -0.938157    11A     -0.846618    12A     -0.735055
      13A     -0.693061    14A     -0.649672    15A     -0.596844
      16A     -0.590999    17A     -0.564867    18A     -0.549561
      19A     -0.532124    20A     -0.523148    21A     -0.511818
      22A     -0.478047    23A     -0.440772    24A     -0.357202

  @DF-RHF Final Energy:  -270.10215050336967

   => Energetics <=

    Nuclear Repulsion Energy =            245.6111668028401311
    One-Electron Energy =                -853.0247429640282917
    Two-Electron Energy =                 337.3114256578185177
    Total Energy =                       -270.1021505033696712
  Basis Set: (AUG-CC-PVTZ AUX)
    Blend: AUG-CC-PVTZ-RI
    Molecular point group: c1

    Geometry (in Angstrom), charge = 0, multiplicity = 1:

       Center              X                  Y                   Z               Mass
    ------------   -----------------  -----------------  -----------------  -----------------
         O           -1.243313928263    -0.365018735943     1.141105730365    15.994914619570
         C           -0.643301128263    -0.464216935943    -0.160078469635    12.000000000000
         C            0.803629371737    -0.045486935943    -0.074843369635    12.000000000000
         C           -1.482875128263     0.405374064057    -1.077869469635    12.000000000000
         C            1.096529871737     1.348308064057     0.383371530365    12.000000000000
         C            1.770158871737    -0.923275935943    -0.401608469635    12.000000000000
         H           -0.686555128263    -1.505628935943    -0.516429469635     1.007825032230
         H           -1.072321128263     0.404849064057    -2.091278469635     1.007825032230
         H           -2.506338128263     0.024641064057    -1.106669469635     1.007825032230
         H           -1.510738128263     1.429171064057    -0.701660469635     1.007825032230
         H            0.559094871737     1.550245064057     1.316678530365     1.007825032230
         H            2.168274871737     1.491393064057     0.550224530365     1.007825032230
         H            0.763472871737     2.093069064057    -0.348062469635     1.007825032230
         H            1.535915871737    -1.925550935943    -0.747639469635     1.007825032230
         H            2.821957871737    -0.659579935943    -0.351970469635     1.007825032230
         H           -0.726302128263    -0.928043935943     1.734956530365     1.007825032230

  Basis Set: AUG-CC-PVTZ
    Blend: AUG-CC-PVTZ
  Basis Set: (AUG-CC-PVTZ AUX)
    Blend: AUG-CC-PVTZ-JKFIT
	 Reference Energy          =    -270.1021505033696712 [Eh]
	 Singles Energy            =      -0.0000000000000000 [Eh]
	 Same-Spin Energy          =      -0.2756565724413086 [Eh]
	 Opposite-Spin Energy      =      -0.9505146910562022 [Eh]
	 Correlation Energy        =      -1.2261712634975108 [Eh]
	 Total Energy              =    -271.3283217668671909 [Eh]

	 ================> DF-SCS-MP2 Energies <==================
	-----------------------------------------------------------
	 SCS Same-Spin Scale       =       0.3333333333333333 [-]
	 SCS Opposite-Spin Scale   =       1.2000000000000000 [-]
	 SCS Same-Spin Energy      =      -0.0918855241471029 [Eh]
	 SCS Opposite-Spin Energy  =      -1.1406176292674426 [Eh]
	 SCS Correlation Energy    =      -1.2325031534145454 [Eh]
	 SCS Total Energy          =    -271.3346536567842122 [Eh]
	-----------------------------------------------------------

  Dipole Moment: [D]
     X:     1.0805      Y:    -0.4407      Z:    -0.3986     Total:     1.2331

*** Psi4 exiting successfully. Buy a developer a beer!
