                               Psi4 1.3.2 release

  ==> Input File <==

--------------------------------------------------------------------------
#psi4
#
memory 32 gb

molecule  {
0 1
  O       -1.2631947    -0.3719535     1.1341461
  C       -0.6414680    -0.4631600    -0.1573930
  C        0.8080592    -0.0489777    -0.0979636
  C       -1.4810420     0.4064310    -1.0751840
  C        1.0983630     1.3493650     0.3860570
  C        1.7719920    -0.9222190    -0.3989230
  H       -0.6847220    -1.5045720    -0.5137440
  H       -1.0704880     0.4059060    -2.0885930
  H       -2.5045050     0.0256980    -1.1039840
  H       -1.5089050     1.4302280    -0.6989750
  H        0.5609280     1.5513020     1.3193640
  H        2.1701080     1.4924500     0.5529100
  H        0.7653060     2.0941260    -0.3453770
  H        1.5377490    -1.9244940    -0.7449540
  H        2.8237910    -0.6585230    -0.3492850
  H       -0.7244690    -0.9269870     1.7376420
units angstrom
no_reorient  #important for SAPT in psi4, default
symmetry c1  #important for SAPT in psi4, default
}

set PROPERTIES_ORIGIN ["COM"]
properties('MP2/aug-cc-pvtz', properties = ['dipole'])
--------------------------------------------------------------------------

    Molecular point group: c1
  Charge       = 0
  Multiplicity = 1
  Basis Set: AUG-CC-PVTZ
    Blend: AUG-CC-PVTZ
  Basis Set: (AUG-CC-PVTZ AUX)
    Blend: AUG-CC-PVTZ-JKFIT

    Orbital Energies [Eh]
    ---------------------

    Doubly Occupied:

       1A    -20.559220     2A    -11.283978     3A    -11.241602
       4A    -11.222506     5A    -11.221693     6A    -11.213702
       7A     -1.356355     8A     -1.093724     9A     -0.998543
      10A     -0.938486    11A     -0.846063    12A     -0.734452
      13A     -0.690311    14A     -0.650018    15A     -0.598639
      16A     -0.590538    17A     -0.563894    18A     -0.548427
      19A     -0.530523    20A     -0.523620    21A     -0.510368
      22A     -0.478725    23A     -0.439908    24A     -0.360823

  @DF-RHF Final Energy:  -270.10172402584311

   => Energetics <=

    Nuclear Repulsion Energy =            245.4057300176467891
    One-Electron Energy =                -852.6226708211820551
    Two-Electron Energy =                 337.1152167776921829
    Total Energy =                       -270.1017240258431116
  Basis Set: (AUG-CC-PVTZ AUX)
    Blend: AUG-CC-PVTZ-RI
    Molecular point group: c1

    Geometry (in Angstrom), charge = 0, multiplicity = 1:

       Center              X                  Y                   Z               Mass
    ------------   -----------------  -----------------  -----------------  -----------------
         O           -1.261354772012    -0.370891320661     1.136850706950    15.994914619570
         C           -0.639628072012    -0.462097820661    -0.154688393050    12.000000000000
         C            0.809899127988    -0.047915520661    -0.095258993050    12.000000000000
         C           -1.479202072012     0.407493179339    -1.072479393050    12.000000000000
         C            1.100202927988     1.350427179339     0.388761606950    12.000000000000
         C            1.773831927988    -0.921156820661    -0.396218393050    12.000000000000
         H           -0.682882072012    -1.503509820661    -0.511039393050     1.007825032230
         H           -1.068648072012     0.406968179339    -2.085888393050     1.007825032230
         H           -2.502665072012     0.026760179339    -1.101279393050     1.007825032230
         H           -1.507065072012     1.431290179339    -0.696270393050     1.007825032230
         H            0.562767927988     1.552364179339     1.322068606950     1.007825032230
         H            2.171947927988     1.493512179339     0.555614606950     1.007825032230
         H            0.767145927988     2.095188179339    -0.342672393050     1.007825032230
         H            1.539588927988    -1.923431820661    -0.742249393050     1.007825032230
         H            2.825630927988    -0.657460820661    -0.346580393050     1.007825032230
         H           -0.722629072012    -0.925924820661     1.740346606950     1.007825032230

  Basis Set: AUG-CC-PVTZ
    Blend: AUG-CC-PVTZ
  Basis Set: (AUG-CC-PVTZ AUX)
    Blend: AUG-CC-PVTZ-JKFIT
	 Reference Energy          =    -270.1017240258431116 [Eh]
	 Singles Energy            =      -0.0000000000000000 [Eh]
	 Same-Spin Energy          =      -0.2756718981290988 [Eh]
	 Opposite-Spin Energy      =      -0.9507455940269228 [Eh]
	 Correlation Energy        =      -1.2264174921560216 [Eh]
	 Total Energy              =    -271.3281415179991427 [Eh]

	 ================> DF-SCS-MP2 Energies <==================
	-----------------------------------------------------------
	 SCS Same-Spin Scale       =       0.3333333333333333 [-]
	 SCS Opposite-Spin Scale   =       1.2000000000000000 [-]
	 SCS Same-Spin Energy      =      -0.0918906327096996 [Eh]
	 SCS Opposite-Spin Energy  =      -1.1408947128323073 [Eh]
	 SCS Correlation Energy    =      -1.2327853455420068 [Eh]
	 SCS Total Energy          =    -271.3345093713851384 [Eh]
	-----------------------------------------------------------

  Dipole Moment: [D]
     X:     1.1473      Y:    -0.4401      Z:    -0.3548     Total:     1.2790

*** Psi4 exiting successfully. Buy a developer a beer!
