                               Psi4 1.3.2 release

  ==> Input File <==

--------------------------------------------------------------------------
#psi4
#
memory 32 gb

molecule  {
0 1
  O       -1.2422418    -0.3188527     1.1392111
  C       -0.6414680    -0.4631600    -0.1573930
  C        0.8068160    -0.0466880    -0.0850580
  C       -1.4810420     0.4064310    -1.0751840
  C        1.0983630     1.3493650     0.3860570
  C        1.7719920    -0.9222190    -0.3989230
  H       -0.6667804    -1.4935941    -0.5459297
  H       -1.0704880     0.4059060    -2.0885930
  H       -2.5045050     0.0256980    -1.1039840
  H       -1.5089050     1.4302280    -0.6989750
  H        0.5609280     1.5513020     1.3193640
  H        2.1701080     1.4924500     0.5529100
  H        0.7653060     2.0941260    -0.3453770
  H        1.5377490    -1.9244940    -0.7449540
  H        2.8237910    -0.6585230    -0.3492850
  H       -0.7244690    -0.9269870     1.7376420
units angstrom
no_reorient  #important for SAPT in psi4, default
symmetry c1  #important for SAPT in psi4, default
}

set PROPERTIES_ORIGIN ["COM"]
properties('MP2/aug-cc-pvtz', properties = ['dipole'])
--------------------------------------------------------------------------

    Molecular point group: c1
  Charge       = 0
  Multiplicity = 1
  Basis Set: AUG-CC-PVTZ
    Blend: AUG-CC-PVTZ
  Basis Set: (AUG-CC-PVTZ AUX)
    Blend: AUG-CC-PVTZ-JKFIT

    Orbital Energies [Eh]
    ---------------------

    Doubly Occupied:

       1A    -20.562487     2A    -11.284269     3A    -11.241008
       4A    -11.222025     5A    -11.220240     6A    -11.213325
       7A     -1.354948     8A     -1.092492     9A     -0.998020
      10A     -0.937707    11A     -0.845625    12A     -0.730744
      13A     -0.692200    14A     -0.648724    15A     -0.597483
      16A     -0.590418    17A     -0.564382    18A     -0.548282
      19A     -0.529490    20A     -0.521518    21A     -0.509702
      22A     -0.480059    23A     -0.440843    24A     -0.358386

  @DF-RHF Final Energy:  -270.09882219085256

   => Energetics <=

    Nuclear Repulsion Energy =            245.6972750016080340
    One-Electron Energy =                -853.2234423297315971
    Two-Electron Energy =                 337.4273451372710610
    Total Energy =                       -270.0988221908525588
  Basis Set: (AUG-CC-PVTZ AUX)
    Blend: AUG-CC-PVTZ-RI
    Molecular point group: c1

    Geometry (in Angstrom), charge = 0, multiplicity = 1:

       Center              X                  Y                   Z               Mass
    ------------   -----------------  -----------------  -----------------  -----------------
         O           -1.244332289121    -0.328105965263     1.139552091199    15.994914619570
         C           -0.643558489121    -0.472413265263    -0.157052008801    12.000000000000
         C            0.804725510879    -0.055941265263    -0.084717008801    12.000000000000
         C           -1.483132489121     0.397177734737    -1.074843008801    12.000000000000
         C            1.096272510879     1.340111734737     0.386397991199    12.000000000000
         C            1.769901510879    -0.931472265263    -0.398582008801    12.000000000000
         H           -0.668870889121    -1.502847365263    -0.545588708801     1.007825032230
         H           -1.072578489121     0.396652734737    -2.088252008801     1.007825032230
         H           -2.506595489121     0.016444734737    -1.103643008801     1.007825032230
         H           -1.510995489121     1.420974734737    -0.698634008801     1.007825032230
         H            0.558837510879     1.542048734737     1.319704991199     1.007825032230
         H            2.168017510879     1.483196734737     0.553250991199     1.007825032230
         H            0.763215510879     2.084872734737    -0.345036008801     1.007825032230
         H            1.535658510879    -1.933747265263    -0.744613008801     1.007825032230
         H            2.821700510879    -0.667776265263    -0.348944008801     1.007825032230
         H           -0.726559489121    -0.936240265263     1.737982991199     1.007825032230

  Basis Set: AUG-CC-PVTZ
    Blend: AUG-CC-PVTZ
  Basis Set: (AUG-CC-PVTZ AUX)
    Blend: AUG-CC-PVTZ-JKFIT
	 Reference Energy          =    -270.0988221908525588 [Eh]
	 Singles Energy            =      -0.0000000000000000 [Eh]
	 Same-Spin Energy          =      -0.2761834339534546 [Eh]
	 Opposite-Spin Energy      =      -0.9517235341995736 [Eh]
	 Correlation Energy        =      -1.2279069681530281 [Eh]
	 Total Energy              =    -271.3267291590055947 [Eh]

	 ================> DF-SCS-MP2 Energies <==================
	-----------------------------------------------------------
	 SCS Same-Spin Scale       =       0.3333333333333333 [-]
	 SCS Opposite-Spin Scale   =       1.2000000000000000 [-]
	 SCS Same-Spin Energy      =      -0.0920611446511515 [Eh]
	 SCS Opposite-Spin Energy  =      -1.1420682410394882 [Eh]
	 SCS Correlation Energy    =      -1.2341293856906397 [Eh]
	 SCS Total Energy          =    -271.3329515765432234 [Eh]
	-----------------------------------------------------------

  Dipole Moment: [D]
     X:     1.0525      Y:    -0.5349      Z:    -0.3563     Total:     1.2332

*** Psi4 exiting successfully. Buy a developer a beer!
