                               Psi4 1.3.2 release

  ==> Input File <==

--------------------------------------------------------------------------
#psi4
#
memory 32 gb

molecule  {
0 1
  O       -1.2523610    -0.3679540     1.1390180
  C       -0.6414680    -0.4631600    -0.1573930
  C        0.7903945     0.0117130    -0.1356405
  C       -1.4159063     0.4491569    -1.0908471
  C        1.0983630     1.3493650     0.3860570
  C        1.7719920    -0.9222190    -0.3989230
  H       -0.6847220    -1.5045720    -0.5137440
  H       -1.0704880     0.4059060    -2.0885930
  H       -2.5045050     0.0256980    -1.1039840
  H       -1.5089050     1.4302280    -0.6989750
  H        0.5609280     1.5513020     1.3193640
  H        2.1701080     1.4924500     0.5529100
  H        0.7653060     2.0941260    -0.3453770
  H        1.5377490    -1.9244940    -0.7449540
  H        2.8237910    -0.6585230    -0.3492850
  H       -0.7244690    -0.9269870     1.7376420
units angstrom
no_reorient  #important for SAPT in psi4, default
symmetry c1  #important for SAPT in psi4, default
}

set PROPERTIES_ORIGIN ["COM"]
properties('MP2/aug-cc-pvtz', properties = ['dipole'])
--------------------------------------------------------------------------

    Molecular point group: c1
  Charge       = 0
  Multiplicity = 1
  Basis Set: AUG-CC-PVTZ
    Blend: AUG-CC-PVTZ
  Basis Set: (AUG-CC-PVTZ AUX)
    Blend: AUG-CC-PVTZ-JKFIT

    Orbital Energies [Eh]
    ---------------------

    Doubly Occupied:

       1A    -20.560997     2A    -11.285754     3A    -11.245659
       4A    -11.226006     5A    -11.221124     6A    -11.214562
       7A     -1.358860     8A     -1.095055     9A     -0.999157
      10A     -0.937375    11A     -0.844579    12A     -0.737586
      13A     -0.694414    14A     -0.648463    15A     -0.593099
      16A     -0.592296    17A     -0.572235    18A     -0.548825
      19A     -0.547863    20A     -0.520512    21A     -0.507025
      22A     -0.473163    23A     -0.441091    24A     -0.347088

  @DF-RHF Final Energy:  -270.08813088924762

   => Energetics <=

    Nuclear Repulsion Energy =            245.7209722554675011
    One-Electron Energy =                -853.1926307764048261
    Two-Electron Energy =                 337.3835276316897307
    Total Energy =                       -270.0881308892476227
  Basis Set: (AUG-CC-PVTZ AUX)
    Blend: AUG-CC-PVTZ-RI
    Molecular point group: c1

    Geometry (in Angstrom), charge = 0, multiplicity = 1:

       Center              X                  Y                   Z               Mass
    ------------   -----------------  -----------------  -----------------  -----------------
         O           -1.259152520699    -0.382053001988     1.148253729349    15.994914619570
         C           -0.648259520699    -0.477259001988    -0.148157270651    12.000000000000
         C            0.783602979301    -0.002386001988    -0.126404770651    12.000000000000
         C           -1.422697820699     0.435057898012    -1.081611370651    12.000000000000
         C            1.091571479301     1.335265998012     0.395292729349    12.000000000000
         C            1.765200479301    -0.936318001988    -0.389687270651    12.000000000000
         H           -0.691513520699    -1.518671001988    -0.504508270651     1.007825032230
         H           -1.077279520699     0.391806998012    -2.079357270651     1.007825032230
         H           -2.511296520699     0.011598998012    -1.094748270651     1.007825032230
         H           -1.515696520699     1.416128998012    -0.689739270651     1.007825032230
         H            0.554136479301     1.537202998012     1.328599729349     1.007825032230
         H            2.163316479301     1.478350998012     0.562145729349     1.007825032230
         H            0.758514479301     2.080026998012    -0.336141270651     1.007825032230
         H            1.530957479301    -1.938593001988    -0.735718270651     1.007825032230
         H            2.816999479301    -0.672622001988    -0.340049270651     1.007825032230
         H           -0.731260520699    -0.941086001988     1.746877729349     1.007825032230

  Basis Set: AUG-CC-PVTZ
    Blend: AUG-CC-PVTZ
  Basis Set: (AUG-CC-PVTZ AUX)
    Blend: AUG-CC-PVTZ-JKFIT
	 Reference Energy          =    -270.0881308892476227 [Eh]
	 Singles Energy            =      -0.0000000000000000 [Eh]
	 Same-Spin Energy          =      -0.2767782587198209 [Eh]
	 Opposite-Spin Energy      =      -0.9528165471379376 [Eh]
	 Correlation Energy        =      -1.2295948058577586 [Eh]
	 Total Energy              =    -271.3177256951053664 [Eh]

	 ================> DF-SCS-MP2 Energies <==================
	-----------------------------------------------------------
	 SCS Same-Spin Scale       =       0.3333333333333333 [-]
	 SCS Opposite-Spin Scale   =       1.2000000000000000 [-]
	 SCS Same-Spin Energy      =      -0.0922594195732736 [Eh]
	 SCS Opposite-Spin Energy  =      -1.1433798565655251 [Eh]
	 SCS Correlation Energy    =      -1.2356392761387986 [Eh]
	 SCS Total Energy          =    -271.3237701653864065 [Eh]
	-----------------------------------------------------------

  Dipole Moment: [D]
     X:     1.1106      Y:    -0.4057      Z:    -0.2807     Total:     1.2152

*** Psi4 exiting successfully. Buy a developer a beer!
