                               Psi4 1.3.2 release

  ==> Input File <==

--------------------------------------------------------------------------
#psi4
#
memory 32 gb

molecule  {
0 1
  O       -1.2523610    -0.3679540     1.1390180
  C       -0.6551983    -0.4148162    -0.1416588
  C        0.8068160    -0.0466880    -0.0850580
  C       -1.4810420     0.4064310    -1.0751840
  C        1.0983630     1.3493650     0.3860570
  C        1.8038138    -0.8891510    -0.3898235
  H       -0.6847220    -1.5045720    -0.5137440
  H       -1.0704880     0.4059060    -2.0885930
  H       -2.5045050     0.0256980    -1.1039840
  H       -1.5089050     1.4302280    -0.6989750
  H        0.5609280     1.5513020     1.3193640
  H        2.1701080     1.4924500     0.5529100
  H        0.7653060     2.0941260    -0.3453770
  H        1.5377490    -1.9244940    -0.7449540
  H        2.8237910    -0.6585230    -0.3492850
  H       -0.7244690    -0.9269870     1.7376420
units angstrom
no_reorient  #important for SAPT in psi4, default
symmetry c1  #important for SAPT in psi4, default
}

set PROPERTIES_ORIGIN ["COM"]
properties('MP2/aug-cc-pvtz', properties = ['dipole'])
--------------------------------------------------------------------------

    Molecular point group: c1
  Charge       = 0
  Multiplicity = 1
  Basis Set: AUG-CC-PVTZ
    Blend: AUG-CC-PVTZ
  Basis Set: (AUG-CC-PVTZ AUX)
    Blend: AUG-CC-PVTZ-JKFIT

    Orbital Energies [Eh]
    ---------------------

    Doubly Occupied:

       1A    -20.560847     2A    -11.287867     3A    -11.241784
       4A    -11.223538     5A    -11.219100     6A    -11.214479
       7A     -1.366902     8A     -1.093792     9A     -1.004980
      10A     -0.935091    11A     -0.847114    12A     -0.739650
      13A     -0.688997    14A     -0.648707    15A     -0.605417
      16A     -0.595896    17A     -0.565656    18A     -0.549342
      19A     -0.538644    20A     -0.520520    21A     -0.505221
      22A     -0.481369    23A     -0.430083    24A     -0.359522

  @DF-RHF Final Energy:  -270.09621098949140

   => Energetics <=

    Nuclear Repulsion Energy =            245.8740083605041775
    One-Electron Energy =                -853.4913982704341606
    Two-Electron Energy =                 337.5211789204386150
    Total Energy =                       -270.0962109894913965
  Basis Set: (AUG-CC-PVTZ AUX)
    Blend: AUG-CC-PVTZ-RI
    Molecular point group: c1

    Geometry (in Angstrom), charge = 0, multiplicity = 1:

       Center              X                  Y                   Z               Mass
    ------------   -----------------  -----------------  -----------------  -----------------
         O           -1.254883217947    -0.379304396192     1.135555792649    15.994914619570
         C           -0.657720517947    -0.426166596192    -0.145121007351    12.000000000000
         C            0.804293782053    -0.058038396192    -0.088520207351    12.000000000000
         C           -1.483564217947     0.395080603808    -1.078646207351    12.000000000000
         C            1.095840782053     1.338014603808     0.382594792649    12.000000000000
         C            1.801291582053    -0.900501396192    -0.393285707351    12.000000000000
         H           -0.687244217947    -1.515922396192    -0.517206207351     1.007825032230
         H           -1.073010217947     0.394555603808    -2.092055207351     1.007825032230
         H           -2.507027217947     0.014347603808    -1.107446207351     1.007825032230
         H           -1.511427217947     1.418877603808    -0.702437207351     1.007825032230
         H            0.558405782053     1.539951603808     1.315901792649     1.007825032230
         H            2.167585782053     1.481099603808     0.549447792649     1.007825032230
         H            0.762783782053     2.082775603808    -0.348839207351     1.007825032230
         H            1.535226782053    -1.935844396192    -0.748416207351     1.007825032230
         H            2.821268782053    -0.669873396192    -0.352747207351     1.007825032230
         H           -0.726991217947    -0.938337396192     1.734179792649     1.007825032230

  Basis Set: AUG-CC-PVTZ
    Blend: AUG-CC-PVTZ
  Basis Set: (AUG-CC-PVTZ AUX)
    Blend: AUG-CC-PVTZ-JKFIT
	 Reference Energy          =    -270.0962109894913965 [Eh]
	 Singles Energy            =      -0.0000000000000000 [Eh]
	 Same-Spin Energy          =      -0.2758812631765875 [Eh]
	 Opposite-Spin Energy      =      -0.9507494950719799 [Eh]
	 Correlation Energy        =      -1.2266307582485674 [Eh]
	 Total Energy              =    -271.3228417477399717 [Eh]

	 ================> DF-SCS-MP2 Energies <==================
	-----------------------------------------------------------
	 SCS Same-Spin Scale       =       0.3333333333333333 [-]
	 SCS Opposite-Spin Scale   =       1.2000000000000000 [-]
	 SCS Same-Spin Energy      =      -0.0919604210588625 [Eh]
	 SCS Opposite-Spin Energy  =      -1.1408993940863759 [Eh]
	 SCS Correlation Energy    =      -1.2328598151452383 [Eh]
	 SCS Total Energy          =    -271.3290708046366149 [Eh]
	-----------------------------------------------------------

  Dipole Moment: [D]
     X:     1.0775      Y:    -0.3708      Z:    -0.3210     Total:     1.1839

*** Psi4 exiting successfully. Buy a developer a beer!
