                               Psi4 1.4a3.dev225

  ==> Input File <==

--------------------------------------------------------------------------
#psi4
#
memory 32 gb

molecule  {
0 1
  O       -1.2433940    -0.3366800     1.2074370
  C       -0.6841558    -0.4769377    -0.0555056
  C        0.7919130    -0.0810760    -0.0782340
  C       -1.5159190     0.3706220    -1.0242050
  C        1.1030690     1.3392670     0.3065330
  C        1.7446070    -0.9832150    -0.3605780
  H       -0.7308000    -1.5333880    -0.4224710
  H       -1.1307760     0.3301940    -2.0469120
  H       -2.5455460     0.0047250    -1.0155750
  H       -1.5200810     1.4081240    -0.6829090
  H        0.5415810     1.6180770     1.2025330
  H        2.1707320     1.4680310     0.5024970
  H        0.8184500     2.0371770    -0.4879450
  H        1.4952160    -2.0048880    -0.6345440
  H        2.8007100    -0.7292190    -0.3378150
  H       -0.7102690    -0.8870460     1.8084860
units angstrom
no_reorient  #important for SAPT in psi4, default
symmetry c1  #important for SAPT in psi4, default
}

set PROPERTIES_ORIGIN ["COM"]
properties('MP2/aug-cc-pvtz', properties = ['dipole'])
--------------------------------------------------------------------------

    Molecular point group: c1
  Charge       = 0
  Multiplicity = 1
  Basis Set: AUG-CC-PVTZ
    Blend: AUG-CC-PVTZ
  Basis Set: (AUG-CC-PVTZ AUX)
    Blend: AUG-CC-PVTZ-JKFIT

    Orbital Energies [Eh]
    ---------------------

    Doubly Occupied:

       1A    -20.564040     2A    -11.285445     3A    -11.241488
       4A    -11.222025     5A    -11.220112     6A    -11.213706
       7A     -1.378045     8A     -1.088656     9A     -0.994944
      10A     -0.936847    11A     -0.843797    12A     -0.739998
      13A     -0.696836    14A     -0.649831    15A     -0.600374
      16A     -0.592321    17A     -0.568031    18A     -0.548566
      19A     -0.535424    20A     -0.524381    21A     -0.513364
      22A     -0.471486    23A     -0.432413    24A     -0.357788

  @DF-RHF Final Energy:  -270.10079437135062

   => Energetics <=

    Nuclear Repulsion Energy =            245.5605398750991526
    One-Electron Energy =                -852.8828345003774984
    Two-Electron Energy =                 337.2215002539277293
    Total Energy =                       -270.1007943713506165
  Basis Set: (AUG-CC-PVTZ AUX)
    Blend: AUG-CC-PVTZ-RI
    Molecular point group: c1

    Geometry (in Angstrom), charge = 0, multiplicity = 1:

       Center              X                  Y                   Z               Mass
    ------------   -----------------  -----------------  -----------------  -----------------
         O           -1.226951153869    -0.317672188834     1.176791278052    15.994914619570
         C           -0.667712953869    -0.457929888834    -0.086151321948    12.000000000000
         C            0.808355846131    -0.062068188834    -0.108879721948    12.000000000000
         C           -1.499476153869     0.389629811166    -1.054850721948    12.000000000000
         C            1.119511846131     1.358274811166     0.275887278052    12.000000000000
         C            1.761049846131    -0.964207188834    -0.391223721948    12.000000000000
         H           -0.714357153869    -1.514380188834    -0.453116721948     1.007825032230
         H           -1.114333153869     0.349201811166    -2.077557721948     1.007825032230
         H           -2.529103153869     0.023732811166    -1.046220721948     1.007825032230
         H           -1.503638153869     1.427131811166    -0.713554721948     1.007825032230
         H            0.558023846131     1.637084811166     1.171887278052     1.007825032230
         H            2.187174846131     1.487038811166     0.471851278052     1.007825032230
         H            0.834892846131     2.056184811166    -0.518590721948     1.007825032230
         H            1.511658846131    -1.985880188834    -0.665189721948     1.007825032230
         H            2.817152846131    -0.710211188834    -0.368460721948     1.007825032230
         H           -0.693826153869    -0.868038188834     1.777840278052     1.007825032230

  Basis Set: AUG-CC-PVTZ
    Blend: AUG-CC-PVTZ
  Basis Set: (AUG-CC-PVTZ AUX)
    Blend: AUG-CC-PVTZ-JKFIT
	 Reference Energy          =    -270.1007943713506165 [Eh]
	 Singles Energy            =      -0.0000000000000000 [Eh]
	 Same-Spin Energy          =      -0.2754641261861334 [Eh]
	 Opposite-Spin Energy      =      -0.9499465198019315 [Eh]
	 Correlation Energy        =      -1.2254106459880649 [Eh]
	 Total Energy              =    -271.3262050173386797 [Eh]

	 ================> DF-SCS-MP2 Energies <==================
	-----------------------------------------------------------
	 SCS Same-Spin Scale       =       0.3333333333333333 [-]
	 SCS Opposite-Spin Scale   =       1.2000000000000000 [-]
	 SCS Same-Spin Energy      =      -0.0918213753953778 [Eh]
	 SCS Opposite-Spin Energy  =      -1.1399358237623176 [Eh]
	 SCS Correlation Energy    =      -1.2317571991576954 [Eh]
	 SCS Total Energy          =    -271.3325515705083149 [Eh]
	-----------------------------------------------------------

  Dipole Moment: [D]
     X:     1.0206      Y:    -0.4725      Z:    -0.2178     Total:     1.1455

*** Psi4 exiting successfully. Buy a developer a beer!
