                               Psi4 1.4a3.dev225

  ==> Input File <==

--------------------------------------------------------------------------
#psi4
#
memory 32 gb

molecule  {
0 1
  O       -1.2433940    -0.3366800     1.2074370
  C       -0.6640150    -0.4819890    -0.1009900
  C        0.7919130    -0.0810760    -0.0782340
  C       -1.5159190     0.3706220    -1.0242050
  C        1.1030690     1.3392670     0.3065330
  C        1.7446070    -0.9832150    -0.3605780
  H       -0.7308000    -1.5333880    -0.4224710
  H       -1.1307760     0.3301940    -2.0469120
  H       -2.5455460     0.0047250    -1.0155750
  H       -1.5200810     1.4081240    -0.6829090
  H        0.5415810     1.6180770     1.2025330
  H        2.1707320     1.4680310     0.5024970
  H        0.8184500     2.0371770    -0.4879450
  H        1.4952160    -2.0048880    -0.6345440
  H        2.8007100    -0.7292190    -0.3378150
  H       -0.6828970    -0.9153032     1.8393454
units angstrom
no_reorient  #important for SAPT in psi4, default
symmetry c1  #important for SAPT in psi4, default
}

set PROPERTIES_ORIGIN ["COM"]
properties('MP2/aug-cc-pvtz', properties = ['dipole'])
--------------------------------------------------------------------------

    Molecular point group: c1
  Charge       = 0
  Multiplicity = 1
  Basis Set: AUG-CC-PVTZ
    Blend: AUG-CC-PVTZ
  Basis Set: (AUG-CC-PVTZ AUX)
    Blend: AUG-CC-PVTZ-JKFIT

    Orbital Energies [Eh]
    ---------------------

    Doubly Occupied:

       1A    -20.562322     2A    -11.284193     3A    -11.242384
       4A    -11.223205     5A    -11.220798     6A    -11.214372
       7A     -1.347005     8A     -1.091544     9A     -0.996983
      10A     -0.938199    11A     -0.844868    12A     -0.731178
      13A     -0.684435    14A     -0.649016    15A     -0.596038
      16A     -0.589984    17A     -0.563473    18A     -0.548373
      19A     -0.529675    20A     -0.523117    21A     -0.510313
      22A     -0.476729    23A     -0.439453    24A     -0.358733

  @DF-RHF Final Energy:  -270.09686896875405

   => Energetics <=

    Nuclear Repulsion Energy =            245.0531114393205883
    One-Electron Energy =                -851.9671811446926313
    Two-Electron Energy =                 336.8172007366180196
    Total Energy =                       -270.0968689687540518
  Basis Set: (AUG-CC-PVTZ AUX)
    Blend: AUG-CC-PVTZ-RI
    Molecular point group: c1

    Geometry (in Angstrom), charge = 0, multiplicity = 1:

       Center              X                  Y                   Z               Mass
    ------------   -----------------  -----------------  -----------------  -----------------
         O           -1.230079606122    -0.316637093708     1.182771212966    15.994914619570
         C           -0.650700606122    -0.461946093708    -0.125655787034    12.000000000000
         C            0.805227393878    -0.061033093708    -0.102899787034    12.000000000000
         C           -1.502604606122     0.390664906292    -1.048870787034    12.000000000000
         C            1.116383393878     1.359309906292     0.281867212966    12.000000000000
         C            1.757921393878    -0.963172093708    -0.385243787034    12.000000000000
         H           -0.717485606122    -1.513345093708    -0.447136787034     1.007825032230
         H           -1.117461606122     0.350236906292    -2.071577787034     1.007825032230
         H           -2.532231606122     0.024767906292    -1.040240787034     1.007825032230
         H           -1.506766606122     1.428166906292    -0.707574787034     1.007825032230
         H            0.554895393878     1.638119906292     1.177867212966     1.007825032230
         H            2.184046393878     1.488073906292     0.477831212966     1.007825032230
         H            0.831764393878     2.057219906292    -0.512610787034     1.007825032230
         H            1.508530393878    -1.984845093708    -0.659209787034     1.007825032230
         H            2.814024393878    -0.709176093708    -0.362480787034     1.007825032230
         H           -0.669582606122    -0.895260293708     1.814679612966     1.007825032230

  Basis Set: AUG-CC-PVTZ
    Blend: AUG-CC-PVTZ
  Basis Set: (AUG-CC-PVTZ AUX)
    Blend: AUG-CC-PVTZ-JKFIT
	 Reference Energy          =    -270.0968689687540518 [Eh]
	 Singles Energy            =      -0.0000000000000000 [Eh]
	 Same-Spin Energy          =      -0.2762387674909181 [Eh]
	 Opposite-Spin Energy      =      -0.9523382324537082 [Eh]
	 Correlation Energy        =      -1.2285769999446263 [Eh]
	 Total Energy              =    -271.3254459686986593 [Eh]

	 ================> DF-SCS-MP2 Energies <==================
	-----------------------------------------------------------
	 SCS Same-Spin Scale       =       0.3333333333333333 [-]
	 SCS Opposite-Spin Scale   =       1.2000000000000000 [-]
	 SCS Same-Spin Energy      =      -0.0920795891636394 [Eh]
	 SCS Opposite-Spin Energy  =      -1.1428058789444497 [Eh]
	 SCS Correlation Energy    =      -1.2348854681080892 [Eh]
	 SCS Total Energy          =    -271.3317544368621270 [Eh]
	-----------------------------------------------------------

  Dipole Moment: [D]
     X:     1.1110      Y:    -0.4890      Z:    -0.3703     Total:     1.2691

*** Psi4 exiting successfully. Buy a developer a beer!
