                               Psi4 1.3.2 release

  ==> Input File <==

--------------------------------------------------------------------------
#psi4
#
memory 32 gb

molecule  {
0 1
  O       -1.3166367    -0.3920488     1.1083188
  C       -0.6414680    -0.4631600    -0.1573930
  C        0.8126176    -0.0608958    -0.1625397
  C       -1.4810420     0.4064310    -1.0751840
  C        1.0983630     1.3493650     0.3860570
  C        1.7719920    -0.9222190    -0.3989230
  H       -0.6847220    -1.5045720    -0.5137440
  H       -1.0704880     0.4059060    -2.0885930
  H       -2.5045050     0.0256980    -1.1039840
  H       -1.5089050     1.4302280    -0.6989750
  H        0.5609280     1.5513020     1.3193640
  H        2.1701080     1.4924500     0.5529100
  H        0.7653060     2.0941260    -0.3453770
  H        1.5377490    -1.9244940    -0.7449540
  H        2.8237910    -0.6585230    -0.3492850
  H       -0.7244690    -0.9269870     1.7376420
units angstrom
no_reorient  #important for SAPT in psi4, default
symmetry c1  #important for SAPT in psi4, default
}

set PROPERTIES_ORIGIN ["COM"]
properties('MP2/aug-cc-pvtz', properties = ['dipole'])
--------------------------------------------------------------------------

    Molecular point group: c1
  Charge       = 0
  Multiplicity = 1
  Basis Set: AUG-CC-PVTZ
    Blend: AUG-CC-PVTZ
  Basis Set: (AUG-CC-PVTZ AUX)
    Blend: AUG-CC-PVTZ-JKFIT

    Orbital Energies [Eh]
    ---------------------

    Doubly Occupied:

       1A    -20.565350     2A    -11.282988     3A    -11.240991
       4A    -11.223404     5A    -11.221962     6A    -11.211373
       7A     -1.351093     8A     -1.095455     9A     -0.997057
      10A     -0.938324    11A     -0.844998    12A     -0.732764
      13A     -0.683571    14A     -0.650536    15A     -0.602918
      16A     -0.589592    17A     -0.562007    18A     -0.545585
      19A     -0.526497    20A     -0.524087    21A     -0.507334
      22A     -0.479144    23A     -0.436219    24A     -0.369170

  @DF-RHF Final Energy:  -270.09350000988724

   => Energetics <=

    Nuclear Repulsion Energy =            244.8924765574012952
    One-Electron Energy =                -851.6071150622872210
    Two-Electron Energy =                 336.6211384949986609
    Total Energy =                       -270.0935000098872365
  Basis Set: (AUG-CC-PVTZ AUX)
    Blend: AUG-CC-PVTZ-RI
    Molecular point group: c1

    Geometry (in Angstrom), charge = 0, multiplicity = 1:

       Center              X                  Y                   Z               Mass
    ------------   -----------------  -----------------  -----------------  -----------------
         O           -1.305501198559    -0.385590748347     1.124825834910    15.994914619570
         C           -0.630332498559    -0.456701948347    -0.140885965090    12.000000000000
         C            0.823753101441    -0.054437748347    -0.146032665090    12.000000000000
         C           -1.469906498559     0.412889051653    -1.058676965090    12.000000000000
         C            1.109498501441     1.355823051653     0.402564034910    12.000000000000
         C            1.783127501441    -0.915760948347    -0.382415965090    12.000000000000
         H           -0.673586498559    -1.498113948347    -0.497236965090     1.007825032230
         H           -1.059352498559     0.412364051653    -2.072085965090     1.007825032230
         H           -2.493369498559     0.032156051653    -1.087476965090     1.007825032230
         H           -1.497769498559     1.436686051653    -0.682467965090     1.007825032230
         H            0.572063501441     1.557760051653     1.335871034910     1.007825032230
         H            2.181243501441     1.498908051653     0.569417034910     1.007825032230
         H            0.776441501441     2.100584051653    -0.328869965090     1.007825032230
         H            1.548884501441    -1.918035948347    -0.728446965090     1.007825032230
         H            2.834926501441    -0.652064948347    -0.332777965090     1.007825032230
         H           -0.713333498559    -0.920528948347     1.754149034910     1.007825032230

  Basis Set: AUG-CC-PVTZ
    Blend: AUG-CC-PVTZ
  Basis Set: (AUG-CC-PVTZ AUX)
    Blend: AUG-CC-PVTZ-JKFIT
	 Reference Energy          =    -270.0935000098872365 [Eh]
	 Singles Energy            =      -0.0000000000000000 [Eh]
	 Same-Spin Energy          =      -0.2760028737194254 [Eh]
	 Opposite-Spin Energy      =      -0.9520208124065019 [Eh]
	 Correlation Energy        =      -1.2280236861259273 [Eh]
	 Total Energy              =    -271.3215236960131733 [Eh]

	 ================> DF-SCS-MP2 Energies <==================
	-----------------------------------------------------------
	 SCS Same-Spin Scale       =       0.3333333333333333 [-]
	 SCS Opposite-Spin Scale   =       1.2000000000000000 [-]
	 SCS Same-Spin Energy      =      -0.0920009579064751 [Eh]
	 SCS Opposite-Spin Energy  =      -1.1424249748878024 [Eh]
	 SCS Correlation Energy    =      -1.2344259327942775 [Eh]
	 SCS Total Energy          =    -271.3279259426815315 [Eh]
	-----------------------------------------------------------

  Dipole Moment: [D]
     X:     1.3043      Y:    -0.4448      Z:    -0.2442     Total:     1.3995

*** Psi4 exiting successfully. Buy a developer a beer!
