                               Psi4 1.3.2 release

  ==> Input File <==

--------------------------------------------------------------------------
#psi4
#
memory 32 gb

molecule  {
0 1
  O       -1.2610544    -0.3602582     1.1342958
  C       -0.6414680    -0.4631600    -0.1573930
  C        0.8068160    -0.0466880    -0.0850580
  C       -1.4889404     0.4094601    -1.0649931
  C        1.0983630     1.3493650     0.3860570
  C        1.7719920    -0.9222190    -0.3989230
  H       -0.6847220    -1.5045720    -0.5137440
  H       -1.0704880     0.4059060    -2.0885930
  H       -2.5045050     0.0256980    -1.1039840
  H       -1.5089050     1.4302280    -0.6989750
  H        0.5609280     1.5513020     1.3193640
  H        2.1701080     1.4924500     0.5529100
  H        0.7653060     2.0941260    -0.3453770
  H        1.5377490    -1.9244940    -0.7449540
  H        2.8237910    -0.6585230    -0.3492850
  H       -0.7244690    -0.9269870     1.7376420
units angstrom
no_reorient  #important for SAPT in psi4, default
symmetry c1  #important for SAPT in psi4, default
}

set PROPERTIES_ORIGIN ["COM"]
properties('MP2/aug-cc-pvtz', properties = ['dipole'])
--------------------------------------------------------------------------

    Molecular point group: c1
  Charge       = 0
  Multiplicity = 1
  Basis Set: AUG-CC-PVTZ
    Blend: AUG-CC-PVTZ
  Basis Set: (AUG-CC-PVTZ AUX)
    Blend: AUG-CC-PVTZ-JKFIT

    Orbital Energies [Eh]
    ---------------------

    Doubly Occupied:

       1A    -20.559236     2A    -11.283979     3A    -11.242124
       4A    -11.223094     5A    -11.221473     6A    -11.213673
       7A     -1.355500     8A     -1.093176     9A     -0.998205
      10A     -0.938552    11A     -0.846076    12A     -0.733648
      13A     -0.690080    14A     -0.650316    15A     -0.597987
      16A     -0.590745    17A     -0.564635    18A     -0.549443
      19A     -0.527210    20A     -0.522995    21A     -0.511492
      22A     -0.479366    23A     -0.440796    24A     -0.359327

  @DF-RHF Final Energy:  -270.10082675527269

   => Energetics <=

    Nuclear Repulsion Energy =            245.4746277224332687
    One-Electron Energy =                -852.7646541178943380
    Two-Electron Energy =                 337.1891996401883489
    Total Energy =                       -270.1008267552726920
  Basis Set: (AUG-CC-PVTZ AUX)
    Blend: AUG-CC-PVTZ-RI
    Molecular point group: c1

    Geometry (in Angstrom), charge = 0, multiplicity = 1:

       Center              X                  Y                   Z               Mass
    ------------   -----------------  -----------------  -----------------  -----------------
         O           -1.258337714613    -0.362110877169     1.133752560320    15.994914619570
         C           -0.638751314613    -0.465012677169    -0.157936239680    12.000000000000
         C            0.809532685387    -0.048540677169    -0.085601239680    12.000000000000
         C           -1.486223714613     0.407607422831    -1.065536339680    12.000000000000
         C            1.101079685387     1.347512322831     0.385513760320    12.000000000000
         C            1.774708685387    -0.924071677169    -0.399466239680    12.000000000000
         H           -0.682005314613    -1.506424677169    -0.514287239680     1.007825032230
         H           -1.067771314613     0.404053322831    -2.089136239680     1.007825032230
         H           -2.501788314613     0.023845322831    -1.104527239680     1.007825032230
         H           -1.506188314613     1.428375322831    -0.699518239680     1.007825032230
         H            0.563644685387     1.549449322831     1.318820760320     1.007825032230
         H            2.172824685387     1.490597322831     0.552366760320     1.007825032230
         H            0.768022685387     2.092273322831    -0.345920239680     1.007825032230
         H            1.540465685387    -1.926346677169    -0.745497239680     1.007825032230
         H            2.826507685387    -0.660375677169    -0.349828239680     1.007825032230
         H           -0.721752314613    -0.928839677169     1.737098760320     1.007825032230

  Basis Set: AUG-CC-PVTZ
    Blend: AUG-CC-PVTZ
  Basis Set: (AUG-CC-PVTZ AUX)
    Blend: AUG-CC-PVTZ-JKFIT
	 Reference Energy          =    -270.1008267552726920 [Eh]
	 Singles Energy            =      -0.0000000000000000 [Eh]
	 Same-Spin Energy          =      -0.2758511318018798 [Eh]
	 Opposite-Spin Energy      =      -0.9510999728118013 [Eh]
	 Correlation Energy        =      -1.2269511046136810 [Eh]
	 Total Energy              =    -271.3277778598863961 [Eh]

	 ================> DF-SCS-MP2 Energies <==================
	-----------------------------------------------------------
	 SCS Same-Spin Scale       =       0.3333333333333333 [-]
	 SCS Opposite-Spin Scale   =       1.2000000000000000 [-]
	 SCS Same-Spin Energy      =      -0.0919503772672933 [Eh]
	 SCS Opposite-Spin Energy  =      -1.1413199673741614 [Eh]
	 SCS Correlation Energy    =      -1.2332703446414546 [Eh]
	 SCS Total Energy          =    -271.3340970999141746 [Eh]
	-----------------------------------------------------------

  Dipole Moment: [D]
     X:     1.1315      Y:    -0.4509      Z:    -0.3610     Total:     1.2704

*** Psi4 exiting successfully. Buy a developer a beer!
