                               Psi4 1.4a3.dev225

  ==> Input File <==

--------------------------------------------------------------------------
#psi4
#
memory 32 gb

molecule  {
0 1
  O       -1.2433940    -0.3366800     1.2074370
  C       -0.6640150    -0.4819890    -0.1009900
  C        0.7919130    -0.0810760    -0.0782340
  C       -1.5159190     0.3706220    -1.0242050
  C        1.1030690     1.3392670     0.3065330
  C        1.7304098    -0.9697712    -0.3563705
  H       -0.7308000    -1.5333880    -0.4224710
  H       -1.1307760     0.3301940    -2.0469120
  H       -2.5455460     0.0047250    -1.0155750
  H       -1.5200810     1.4081240    -0.6829090
  H        0.5415810     1.6180770     1.2025330
  H        2.1707320     1.4680310     0.5024970
  H        0.8184500     2.0371770    -0.4879450
  H        1.4952160    -2.0048880    -0.6345440
  H        2.8007100    -0.7292190    -0.3378150
  H       -0.7102690    -0.8870460     1.8084860
units angstrom
no_reorient  #important for SAPT in psi4, default
symmetry c1  #important for SAPT in psi4, default
}

set PROPERTIES_ORIGIN ["COM"]
properties('MP2/aug-cc-pvtz', properties = ['dipole'])
--------------------------------------------------------------------------

    Molecular point group: c1
  Charge       = 0
  Multiplicity = 1
  Basis Set: AUG-CC-PVTZ
    Blend: AUG-CC-PVTZ
  Basis Set: (AUG-CC-PVTZ AUX)
    Blend: AUG-CC-PVTZ-JKFIT

    Orbital Energies [Eh]
    ---------------------

    Doubly Occupied:

       1A    -20.557806     2A    -11.284317     3A    -11.239125
       4A    -11.222643     5A    -11.220588     6A    -11.214250
       7A     -1.356685     8A     -1.095649     9A     -0.999084
      10A     -0.938892    11A     -0.845206    12A     -0.733725
      13A     -0.691313    14A     -0.650340    15A     -0.596383
      16A     -0.590855    17A     -0.564098    18A     -0.548373
      19A     -0.530644    20A     -0.522824    21A     -0.509631
      22A     -0.477941    23A     -0.439471    24A     -0.363533

  @DF-RHF Final Energy:  -270.10209267893669

   => Energetics <=

    Nuclear Repulsion Energy =            245.6925188600148715
    One-Electron Energy =                -853.2024746342474373
    Two-Electron Energy =                 337.4078630952959088
    Total Energy =                       -270.1020926789366854
  Basis Set: (AUG-CC-PVTZ AUX)
    Blend: AUG-CC-PVTZ-RI
    Molecular point group: c1

    Geometry (in Angstrom), charge = 0, multiplicity = 1:

       Center              X                  Y                   Z               Mass
    ------------   -----------------  -----------------  -----------------  -----------------
         O           -1.227779788439    -0.318842239919     1.182545949678    15.994914619570
         C           -0.648400788439    -0.464151239919    -0.125881050322    12.000000000000
         C            0.807527211561    -0.063238239919    -0.103125050322    12.000000000000
         C           -1.500304788439     0.388459760081    -1.049096050322    12.000000000000
         C            1.118683211561     1.357104760081     0.281641949678    12.000000000000
         C            1.746024011561    -0.951933439919    -0.381261550322    12.000000000000
         H           -0.715185788439    -1.515550239919    -0.447362050322     1.007825032230
         H           -1.115161788439     0.348031760081    -2.071803050322     1.007825032230
         H           -2.529931788439     0.022562760081    -1.040466050322     1.007825032230
         H           -1.504466788439     1.425961760081    -0.707800050322     1.007825032230
         H            0.557195211561     1.635914760081     1.177641949678     1.007825032230
         H            2.186346211561     1.485868760081     0.477605949678     1.007825032230
         H            0.834064211561     2.055014760081    -0.512836050322     1.007825032230
         H            1.510830211561    -1.987050239919    -0.659435050322     1.007825032230
         H            2.816324211561    -0.711381239919    -0.362706050322     1.007825032230
         H           -0.694654788439    -0.869208239919     1.783594949678     1.007825032230

  Basis Set: AUG-CC-PVTZ
    Blend: AUG-CC-PVTZ
  Basis Set: (AUG-CC-PVTZ AUX)
    Blend: AUG-CC-PVTZ-JKFIT
	 Reference Energy          =    -270.1020926789366854 [Eh]
	 Singles Energy            =      -0.0000000000000000 [Eh]
	 Same-Spin Energy          =      -0.2755177567089599 [Eh]
	 Opposite-Spin Energy      =      -0.9503247664153639 [Eh]
	 Correlation Energy        =      -1.2258425231243240 [Eh]
	 Total Energy              =    -271.3279352020609849 [Eh]

	 ================> DF-SCS-MP2 Energies <==================
	-----------------------------------------------------------
	 SCS Same-Spin Scale       =       0.3333333333333333 [-]
	 SCS Opposite-Spin Scale   =       1.2000000000000000 [-]
	 SCS Same-Spin Energy      =      -0.0918392522363200 [Eh]
	 SCS Opposite-Spin Energy  =      -1.1403897196984367 [Eh]
	 SCS Correlation Energy    =      -1.2322289719347568 [Eh]
	 SCS Total Energy          =    -271.3343216508714590 [Eh]
	-----------------------------------------------------------

  Dipole Moment: [D]
     X:     1.1102      Y:    -0.4831      Z:    -0.3987     Total:     1.2747

*** Psi4 exiting successfully. Buy a developer a beer!
