                               Psi4 1.3.2 release

  ==> Input File <==

--------------------------------------------------------------------------
#psi4
#
memory 32 gb

molecule  {
0 1
  O       -1.2523610    -0.3679540     1.1390180
  C       -0.6414680    -0.4631600    -0.1573930
  C        0.8068160    -0.0466880    -0.0850580
  C       -1.4810420     0.4064310    -1.0751840
  C        1.0983630     1.3493650     0.3860570
  C        1.7719920    -0.9222190    -0.3989230
  H       -0.6847220    -1.5045720    -0.5137440
  H       -1.0704880     0.4059060    -2.0885930
  H       -2.5045050     0.0256980    -1.1039840
  H       -1.5089050     1.4302280    -0.6989750
  H        0.5609280     1.5513020     1.3193640
  H        2.1701080     1.4924500     0.5529100
  H        0.7653060     2.0941260    -0.3453770
  H        1.5377490    -1.9244940    -0.7449540
  H        2.8237910    -0.6585230    -0.3492850
  H       -0.6161215    -1.0417260     1.8605069
units angstrom
no_reorient  #important for SAPT in psi4, default
symmetry c1  #important for SAPT in psi4, default
}

set PROPERTIES_ORIGIN ["COM"]
properties('MP2/aug-cc-pvtz', properties = ['dipole'])
--------------------------------------------------------------------------

    Molecular point group: c1
  Charge       = 0
  Multiplicity = 1
  Basis Set: AUG-CC-PVTZ
    Blend: AUG-CC-PVTZ
  Basis Set: (AUG-CC-PVTZ AUX)
    Blend: AUG-CC-PVTZ-JKFIT

    Orbital Energies [Eh]
    ---------------------

    Doubly Occupied:

       1A    -20.573085     2A    -11.282758     3A    -11.241072
       4A    -11.221676     5A    -11.220576     6A    -11.214294
       7A     -1.326894     8A     -1.089318     9A     -0.993795
      10A     -0.937527    11A     -0.842452    12A     -0.725748
      13A     -0.664973    14A     -0.647491    15A     -0.591089
      16A     -0.588052    17A     -0.561109    18A     -0.548207
      19A     -0.526539    20A     -0.521136    21A     -0.508815
      22A     -0.469302    23A     -0.437599    24A     -0.358128

  @DF-RHF Final Energy:  -270.06639556708666

   => Energetics <=

    Nuclear Repulsion Energy =            244.5057858989126771
    One-Electron Energy =                -850.9610866776273497
    Two-Electron Energy =                 336.3889052116280141
    Total Energy =                       -270.0663955670866585
  Basis Set: (AUG-CC-PVTZ AUX)
    Blend: AUG-CC-PVTZ-RI
    Molecular point group: c1

    Geometry (in Angstrom), charge = 0, multiplicity = 1:

       Center              X                  Y                   Z               Mass
    ------------   -----------------  -----------------  -----------------  -----------------
         O           -1.253629602172    -0.366610794916     1.137579397547    15.994914619570
         C           -0.642736602172    -0.461816794916    -0.158831602453    12.000000000000
         C            0.805547397828    -0.045344794916    -0.086496602453    12.000000000000
         C           -1.482310602172     0.407774205084    -1.076622602453    12.000000000000
         C            1.097094397828     1.350708205084     0.384618397547    12.000000000000
         C            1.770723397828    -0.920875794916    -0.400361602453    12.000000000000
         H           -0.685990602172    -1.503228794916    -0.515182602453     1.007825032230
         H           -1.071756602172     0.407249205084    -2.090031602453     1.007825032230
         H           -2.505773602172     0.027041205084    -1.105422602453     1.007825032230
         H           -1.510173602172     1.431571205084    -0.700413602453     1.007825032230
         H            0.559659397828     1.552645205084     1.317925397547     1.007825032230
         H            2.168839397828     1.493793205084     0.551471397547     1.007825032230
         H            0.764037397828     2.095469205084    -0.346815602453     1.007825032230
         H            1.536480397828    -1.923150794916    -0.746392602453     1.007825032230
         H            2.822522397828    -0.657179794916    -0.350723602453     1.007825032230
         H           -0.617390102172    -1.040382794916     1.859068297547     1.007825032230

  Basis Set: AUG-CC-PVTZ
    Blend: AUG-CC-PVTZ
  Basis Set: (AUG-CC-PVTZ AUX)
    Blend: AUG-CC-PVTZ-JKFIT
	 Reference Energy          =    -270.0663955670866585 [Eh]
	 Singles Energy            =      -0.0000000000000000 [Eh]
	 Same-Spin Energy          =      -0.2779219621264107 [Eh]
	 Opposite-Spin Energy      =      -0.9574934328528564 [Eh]
	 Correlation Energy        =      -1.2354153949792672 [Eh]
	 Total Energy              =    -271.3018109620659288 [Eh]

	 ================> DF-SCS-MP2 Energies <==================
	-----------------------------------------------------------
	 SCS Same-Spin Scale       =       0.3333333333333333 [-]
	 SCS Opposite-Spin Scale   =       1.2000000000000000 [-]
	 SCS Same-Spin Energy      =      -0.0926406540421369 [Eh]
	 SCS Opposite-Spin Energy  =      -1.1489921194234276 [Eh]
	 SCS Correlation Energy    =      -1.2416327734655646 [Eh]
	 SCS Total Energy          =    -271.3080283405521982 [Eh]
	-----------------------------------------------------------

  Dipole Moment: [D]
     X:     1.1440      Y:    -0.5000      Z:    -0.2933     Total:     1.2825

*** Psi4 exiting successfully. Buy a developer a beer!
