                               Psi4 1.3.2 release

  ==> Input File <==

--------------------------------------------------------------------------
#psi4
#
memory 32 gb

molecule  {
0 1
  O       -1.2523610    -0.3679540     1.1390180
  C       -0.6414680    -0.4631600    -0.1573930
  C        0.7605909    -0.0560528    -0.0221387
  C       -1.4810420     0.4064310    -1.0751840
  C        1.0983630     1.3493650     0.3860570
  C        1.7719920    -0.9222190    -0.3989230
  H       -0.6847220    -1.5045720    -0.5137440
  H       -1.0704880     0.4059060    -2.0885930
  H       -2.5045050     0.0256980    -1.1039840
  H       -1.5089050     1.4302280    -0.6989750
  H        0.5395335     1.4981363     1.3167845
  H        2.1701080     1.4924500     0.5529100
  H        0.7653060     2.0941260    -0.3453770
  H        1.5377490    -1.9244940    -0.7449540
  H        2.8237910    -0.6585230    -0.3492850
  H       -0.7244690    -0.9269870     1.7376420
units angstrom
no_reorient  #important for SAPT in psi4, default
symmetry c1  #important for SAPT in psi4, default
}

set PROPERTIES_ORIGIN ["COM"]
properties('MP2/aug-cc-pvtz', properties = ['dipole'])
--------------------------------------------------------------------------

    Molecular point group: c1
  Charge       = 0
  Multiplicity = 1
  Basis Set: AUG-CC-PVTZ
    Blend: AUG-CC-PVTZ
  Basis Set: (AUG-CC-PVTZ AUX)
    Blend: AUG-CC-PVTZ-JKFIT

    Orbital Energies [Eh]
    ---------------------

    Doubly Occupied:

       1A    -20.556826     2A    -11.282992     3A    -11.245965
       4A    -11.228124     5A    -11.221808     6A    -11.216012
       7A     -1.359315     8A     -1.092908     9A     -0.998328
      10A     -0.934497    11A     -0.853261    12A     -0.736239
      13A     -0.692828    14A     -0.648604    15A     -0.596413
      16A     -0.591818    17A     -0.568339    18A     -0.550773
      19A     -0.532369    20A     -0.522962    21A     -0.507059
      22A     -0.479987    23A     -0.445861    24A     -0.348033

  @DF-RHF Final Energy:  -270.09382677439771

   => Energetics <=

    Nuclear Repulsion Energy =            245.9138263503286055
    One-Electron Energy =                -853.5926674770455520
    Two-Electron Energy =                 337.5850143523192628
    Total Energy =                       -270.0938267743977121
  Basis Set: (AUG-CC-PVTZ AUX)
    Blend: AUG-CC-PVTZ-RI
    Molecular point group: c1

    Geometry (in Angstrom), charge = 0, multiplicity = 1:

       Center              X                  Y                   Z               Mass
    ------------   -----------------  -----------------  -----------------  -----------------
         O           -1.245665930384    -0.366026147111     1.130276243376    15.994914619570
         C           -0.634772930384    -0.461232147111    -0.166134756624    12.000000000000
         C            0.767285969616    -0.054124947111    -0.030880456624    12.000000000000
         C           -1.474346930384     0.408358852889    -1.083925756624    12.000000000000
         C            1.105058069616     1.351292852889     0.377315243376    12.000000000000
         C            1.778687069616    -0.920291147111    -0.407664756624    12.000000000000
         H           -0.678026930384    -1.502644147111    -0.522485756624     1.007825032230
         H           -1.063792930384     0.407833852889    -2.097334756624     1.007825032230
         H           -2.497809930384     0.027625852889    -1.112725756624     1.007825032230
         H           -1.502209930384     1.432155852889    -0.707716756624     1.007825032230
         H            0.546228569616     1.500064152889     1.308042743376     1.007825032230
         H            2.176803069616     1.494377852889     0.544168243376     1.007825032230
         H            0.772001069616     2.096053852889    -0.354118756624     1.007825032230
         H            1.544444069616    -1.922566147111    -0.753695756624     1.007825032230
         H            2.830486069616    -0.656595147111    -0.358026756624     1.007825032230
         H           -0.717773930384    -0.925059147111     1.728900243376     1.007825032230

  Basis Set: AUG-CC-PVTZ
    Blend: AUG-CC-PVTZ
  Basis Set: (AUG-CC-PVTZ AUX)
    Blend: AUG-CC-PVTZ-JKFIT
	 Reference Energy          =    -270.0938267743977121 [Eh]
	 Singles Energy            =      -0.0000000000000000 [Eh]
	 Same-Spin Energy          =      -0.2766285492795588 [Eh]
	 Opposite-Spin Energy      =      -0.9524291986341662 [Eh]
	 Correlation Energy        =      -1.2290577479137250 [Eh]
	 Total Energy              =    -271.3228845223114263 [Eh]

	 ================> DF-SCS-MP2 Energies <==================
	-----------------------------------------------------------
	 SCS Same-Spin Scale       =       0.3333333333333333 [-]
	 SCS Opposite-Spin Scale   =       1.2000000000000000 [-]
	 SCS Same-Spin Energy      =      -0.0922095164265196 [Eh]
	 SCS Opposite-Spin Energy  =      -1.1429150383609994 [Eh]
	 SCS Correlation Energy    =      -1.2351245547875189 [Eh]
	 SCS Total Energy          =    -271.3289513291852586 [Eh]
	-----------------------------------------------------------

  Dipole Moment: [D]
     X:     1.0869      Y:    -0.4117      Z:    -0.4690     Total:     1.2533

*** Psi4 exiting successfully. Buy a developer a beer!
