                               Psi4 1.3.2 release

  ==> Input File <==

--------------------------------------------------------------------------
#psi4
#
memory 32 gb

molecule  {
0 1
  O       -1.2523610    -0.3679540     1.1390180
  C       -0.6414680    -0.4631600    -0.1573930
  C        0.8068160    -0.0466880    -0.0850580
  C       -1.4810420     0.4064310    -1.0751840
  C        1.0983630     1.3493650     0.3860570
  C        1.8439994    -0.9875384    -0.4223390
  H       -0.6847220    -1.5045720    -0.5137440
  H       -1.0704880     0.4059060    -2.0885930
  H       -2.5045050     0.0256980    -1.1039840
  H       -1.5089050     1.4302280    -0.6989750
  H        0.5609280     1.5513020     1.3193640
  H        2.1701080     1.4924500     0.5529100
  H        0.7653060     2.0941260    -0.3453770
  H        1.5377490    -1.9244940    -0.7449540
  H        2.8237910    -0.6585230    -0.3492850
  H       -0.7244690    -0.9269870     1.7376420
units angstrom
no_reorient  #important for SAPT in psi4, default
symmetry c1  #important for SAPT in psi4, default
}

set PROPERTIES_ORIGIN ["COM"]
properties('MP2/aug-cc-pvtz', properties = ['dipole'])
--------------------------------------------------------------------------

    Molecular point group: c1
  Charge       = 0
  Multiplicity = 1
  Basis Set: AUG-CC-PVTZ
    Blend: AUG-CC-PVTZ
  Basis Set: (AUG-CC-PVTZ AUX)
    Blend: AUG-CC-PVTZ-JKFIT

    Orbital Energies [Eh]
    ---------------------

    Doubly Occupied:

       1A    -20.559272     2A    -11.286274     3A    -11.258328
       4A    -11.226853     5A    -11.223797     6A    -11.215411
       7A     -1.358660     8A     -1.082618     9A     -0.996912
      10A     -0.936804    11A     -0.851350    12A     -0.737450
      13A     -0.692666    14A     -0.647722    15A     -0.607118
      16A     -0.590655    17A     -0.565430    18A     -0.550329
      19A     -0.533203    20A     -0.526952    21A     -0.515752
      22A     -0.477828    23A     -0.443572    24A     -0.338378

  @DF-RHF Final Energy:  -270.08524453578428

   => Energetics <=

    Nuclear Repulsion Energy =            243.8075592705827432
    One-Electron Energy =                -849.3389381982045734
    Two-Electron Energy =                 335.4461343918375746
    Total Energy =                       -270.0852445357842839
  Basis Set: (AUG-CC-PVTZ AUX)
    Blend: AUG-CC-PVTZ-RI
    Molecular point group: c1

    Geometry (in Angstrom), charge = 0, multiplicity = 1:

       Center              X                  Y                   Z               Mass
    ------------   -----------------  -----------------  -----------------  -----------------
         O           -1.262399971867    -0.358847678919     1.142282586074    15.994914619570
         C           -0.651506971867    -0.454053678919    -0.154128413926    12.000000000000
         C            0.796777028133    -0.037581678919    -0.081793413926    12.000000000000
         C           -1.491080971867     0.415537321081    -1.071919413926    12.000000000000
         C            1.088324028133     1.358471321081     0.389321586074    12.000000000000
         C            1.833960428133    -0.978432078919    -0.419074413926    12.000000000000
         H           -0.694760971867    -1.495465678919    -0.510479413926     1.007825032230
         H           -1.080526971867     0.415012321081    -2.085328413926     1.007825032230
         H           -2.514543971867     0.034804321081    -1.100719413926     1.007825032230
         H           -1.518943971867     1.439334321081    -0.695710413926     1.007825032230
         H            0.550889028133     1.560408321081     1.322628586074     1.007825032230
         H            2.160069028133     1.501556321081     0.556174586074     1.007825032230
         H            0.755267028133     2.103232321081    -0.342112413926     1.007825032230
         H            1.527710028133    -1.915387678919    -0.741689413926     1.007825032230
         H            2.813752028133    -0.649416678919    -0.346020413926     1.007825032230
         H           -0.734507971867    -0.917880678919     1.740906586074     1.007825032230

  Basis Set: AUG-CC-PVTZ
    Blend: AUG-CC-PVTZ
  Basis Set: (AUG-CC-PVTZ AUX)
    Blend: AUG-CC-PVTZ-JKFIT
	 Reference Energy          =    -270.0852445357842839 [Eh]
	 Singles Energy            =      -0.0000000000000000 [Eh]
	 Same-Spin Energy          =      -0.2766742021135501 [Eh]
	 Opposite-Spin Energy      =      -0.9533410329373666 [Eh]
	 Correlation Energy        =      -1.2300152350509168 [Eh]
	 Total Energy              =    -271.3152597708352118 [Eh]

	 ================> DF-SCS-MP2 Energies <==================
	-----------------------------------------------------------
	 SCS Same-Spin Scale       =       0.3333333333333333 [-]
	 SCS Opposite-Spin Scale   =       1.2000000000000000 [-]
	 SCS Same-Spin Energy      =      -0.0922247340378500 [Eh]
	 SCS Opposite-Spin Energy  =      -1.1440092395248398 [Eh]
	 SCS Correlation Energy    =      -1.2362339735626899 [Eh]
	 SCS Total Energy          =    -271.3214785093469459 [Eh]
	-----------------------------------------------------------

  Dipole Moment: [D]
     X:     1.0682      Y:    -0.3825      Z:    -0.3637     Total:     1.1915

*** Psi4 exiting successfully. Buy a developer a beer!
