                               Psi4 1.3.2 release

  ==> Input File <==

--------------------------------------------------------------------------
#psi4
#
memory 32 gb

molecule  {
0 1
  O       -1.1992471    -0.4142607     1.1652662
  C       -0.6414680    -0.4631600    -0.1573930
  C        0.8068160    -0.0466880    -0.0850580
  C       -1.4323303     0.3868741    -1.1348346
  C        1.0983630     1.3493650     0.3860570
  C        1.7719920    -0.9222190    -0.3989230
  H       -0.6847220    -1.5045720    -0.5137440
  H       -1.0704880     0.4059060    -2.0885930
  H       -2.5045050     0.0256980    -1.1039840
  H       -1.5089050     1.4302280    -0.6989750
  H        0.5609280     1.5513020     1.3193640
  H        2.1701080     1.4924500     0.5529100
  H        0.7653060     2.0941260    -0.3453770
  H        1.5377490    -1.9244940    -0.7449540
  H        2.8237910    -0.6585230    -0.3492850
  H       -0.7244690    -0.9269870     1.7376420
units angstrom
no_reorient  #important for SAPT in psi4, default
symmetry c1  #important for SAPT in psi4, default
}

set PROPERTIES_ORIGIN ["COM"]
properties('MP2/aug-cc-pvtz', properties = ['dipole'])
--------------------------------------------------------------------------

    Molecular point group: c1
  Charge       = 0
  Multiplicity = 1
  Basis Set: AUG-CC-PVTZ
    Blend: AUG-CC-PVTZ
  Basis Set: (AUG-CC-PVTZ AUX)
    Blend: AUG-CC-PVTZ-JKFIT

    Orbital Energies [Eh]
    ---------------------

    Doubly Occupied:

       1A    -20.550687     2A    -11.286816     3A    -11.240348
       4A    -11.220700     5A    -11.220506     6A    -11.218745
       7A     -1.371952     8A     -1.095513     9A     -1.003421
      10A     -0.937297    11A     -0.851043    12A     -0.744287
      13A     -0.698949    14A     -0.647703    15A     -0.596218
      16A     -0.591180    17A     -0.571041    18A     -0.563132
      19A     -0.541866    20A     -0.518039    21A     -0.506019
      22A     -0.470824    23A     -0.437695    24A     -0.357315

  @DF-RHF Final Energy:  -270.09273525237063

   => Energetics <=

    Nuclear Repulsion Energy =            245.7949788247804008
    One-Electron Energy =                -853.2928342533391515
    Two-Electron Energy =                 337.4051201761881202
    Total Energy =                       -270.0927352523706304
  Basis Set: (AUG-CC-PVTZ AUX)
    Blend: AUG-CC-PVTZ-RI
    Molecular point group: c1

    Geometry (in Angstrom), charge = 0, multiplicity = 1:

       Center              X                  Y                   Z               Mass
    ------------   -----------------  -----------------  -----------------  -----------------
         O           -1.215908390170    -0.402929275277     1.168704794803    15.994914619570
         C           -0.658129290170    -0.451828575277    -0.153954405197    12.000000000000
         C            0.790154709830    -0.035356575277    -0.081619405197    12.000000000000
         C           -1.448991590170     0.398205524723    -1.131396005197    12.000000000000
         C            1.081701709830     1.360696424723     0.389495594803    12.000000000000
         C            1.755330709830    -0.910887575277    -0.395484405197    12.000000000000
         H           -0.701383290170    -1.493240575277    -0.510305405197     1.007825032230
         H           -1.087149290170     0.417237424723    -2.085154405197     1.007825032230
         H           -2.521166290170     0.037029424723    -1.100545405197     1.007825032230
         H           -1.525566290170     1.441559424723    -0.695536405197     1.007825032230
         H            0.544266709830     1.562633424723     1.322802594803     1.007825032230
         H            2.153446709830     1.503781424723     0.556348594803     1.007825032230
         H            0.748644709830     2.105457424723    -0.341938405197     1.007825032230
         H            1.521087709830    -1.913162575277    -0.741515405197     1.007825032230
         H            2.807129709830    -0.647191575277    -0.345846405197     1.007825032230
         H           -0.741130290170    -0.915655575277     1.741080594803     1.007825032230

  Basis Set: AUG-CC-PVTZ
    Blend: AUG-CC-PVTZ
  Basis Set: (AUG-CC-PVTZ AUX)
    Blend: AUG-CC-PVTZ-JKFIT
	 Reference Energy          =    -270.0927352523706304 [Eh]
	 Singles Energy            =      -0.0000000000000000 [Eh]
	 Same-Spin Energy          =      -0.2747499063606986 [Eh]
	 Opposite-Spin Energy      =      -0.9484169797199992 [Eh]
	 Correlation Energy        =      -1.2231668860806977 [Eh]
	 Total Energy              =    -271.3159021384513494 [Eh]

	 ================> DF-SCS-MP2 Energies <==================
	-----------------------------------------------------------
	 SCS Same-Spin Scale       =       0.3333333333333333 [-]
	 SCS Opposite-Spin Scale   =       1.2000000000000000 [-]
	 SCS Same-Spin Energy      =      -0.0915833021202329 [Eh]
	 SCS Opposite-Spin Energy  =      -1.1381003756639989 [Eh]
	 SCS Correlation Energy    =      -1.2296836777842317 [Eh]
	 SCS Total Energy          =    -271.3224189301548677 [Eh]
	-----------------------------------------------------------

  Dipole Moment: [D]
     X:     1.0084      Y:    -0.3753      Z:    -0.4607     Total:     1.1705

*** Psi4 exiting successfully. Buy a developer a beer!
