                               Psi4 1.3.2 release

  ==> Input File <==

--------------------------------------------------------------------------
#psi4
#
memory 32 gb

molecule  {
0 1
  O       -1.2523610    -0.3679540     1.1390180
  C       -0.6414680    -0.4631600    -0.1573930
  C        0.8068160    -0.0466880    -0.0850580
  C       -1.4810420     0.4064310    -1.0751840
  C        1.0983630     1.3493650     0.3860570
  C        1.7719920    -0.9222190    -0.3989230
  H       -0.6847220    -1.5045720    -0.5137440
  H       -1.0704880     0.4059060    -2.0885930
  H       -2.5045050     0.0256980    -1.1039840
  H       -1.5089050     1.4302280    -0.6989750
  H        0.5609280     1.5513020     1.3193640
  H        2.1701080     1.4924500     0.5529100
  H        0.7653060     2.0941260    -0.3453770
  H        1.4946061    -2.1090933    -0.8086861
  H        2.8237910    -0.6585230    -0.3492850
  H       -0.7244690    -0.9269870     1.7376420
units angstrom
no_reorient  #important for SAPT in psi4, default
symmetry c1  #important for SAPT in psi4, default
}

set PROPERTIES_ORIGIN ["COM"]
properties('MP2/aug-cc-pvtz', properties = ['dipole'])
--------------------------------------------------------------------------

    Molecular point group: c1
  Charge       = 0
  Multiplicity = 1
  Basis Set: AUG-CC-PVTZ
    Blend: AUG-CC-PVTZ
  Basis Set: (AUG-CC-PVTZ AUX)
    Blend: AUG-CC-PVTZ-JKFIT

    Orbital Energies [Eh]
    ---------------------

    Doubly Occupied:

       1A    -20.558209     2A    -11.284299     3A    -11.245494
       4A    -11.243695     5A    -11.223985     6A    -11.214317
       7A     -1.357666     8A     -1.093291     9A     -0.998865
      10A     -0.933575    11A     -0.844231    12A     -0.730093
      13A     -0.690575    14A     -0.635705    15A     -0.593459
      16A     -0.591226    17A     -0.565244    18A     -0.549818
      19A     -0.531351    20A     -0.519280    21A     -0.497936
      22A     -0.475435    23A     -0.440471    24A     -0.361332

  @DF-RHF Final Energy:  -270.08066593758815

   => Energetics <=

    Nuclear Repulsion Energy =            244.7652341465427526
    One-Electron Energy =                -851.3326912065631404
    Two-Electron Energy =                 336.4867911224322370
    Total Energy =                       -270.0806659375881509
  Basis Set: (AUG-CC-PVTZ AUX)
    Blend: AUG-CC-PVTZ-RI
    Molecular point group: c1

    Geometry (in Angstrom), charge = 0, multiplicity = 1:

       Center              X                  Y                   Z               Mass
    ------------   -----------------  -----------------  -----------------  -----------------
         O           -1.251855811033    -0.365792805254     1.139764249558    15.994914619570
         C           -0.640962811033    -0.460998805254    -0.156646750442    12.000000000000
         C            0.807321188967    -0.044526805254    -0.084311750442    12.000000000000
         C           -1.480536811033     0.408592194746    -1.074437750442    12.000000000000
         C            1.098868188967     1.351526194746     0.386803249558    12.000000000000
         C            1.772497188967    -0.920057805254    -0.398176750442    12.000000000000
         H           -0.684216811033    -1.502410805254    -0.512997750442     1.007825032230
         H           -1.069982811033     0.408067194746    -2.087846750442     1.007825032230
         H           -2.503999811033     0.027859194746    -1.103237750442     1.007825032230
         H           -1.508399811033     1.432389194746    -0.698228750442     1.007825032230
         H            0.561433188967     1.553463194746     1.320110249558     1.007825032230
         H            2.170613188967     1.494611194746     0.553656249558     1.007825032230
         H            0.765811188967     2.096287194746    -0.344630750442     1.007825032230
         H            1.495111288967    -2.106932105254    -0.807939850442     1.007825032230
         H            2.824296188967    -0.656361805254    -0.348538750442     1.007825032230
         H           -0.723963811033    -0.924825805254     1.738388249558     1.007825032230

  Basis Set: AUG-CC-PVTZ
    Blend: AUG-CC-PVTZ
  Basis Set: (AUG-CC-PVTZ AUX)
    Blend: AUG-CC-PVTZ-JKFIT
	 Reference Energy          =    -270.0806659375881509 [Eh]
	 Singles Energy            =      -0.0000000000000000 [Eh]
	 Same-Spin Energy          =      -0.2760288071822872 [Eh]
	 Opposite-Spin Energy      =      -0.9526463586144404 [Eh]
	 Correlation Energy        =      -1.2286751657967274 [Eh]
	 Total Energy              =    -271.3093411033848952 [Eh]

	 ================> DF-SCS-MP2 Energies <==================
	-----------------------------------------------------------
	 SCS Same-Spin Scale       =       0.3333333333333333 [-]
	 SCS Opposite-Spin Scale   =       1.2000000000000000 [-]
	 SCS Same-Spin Energy      =      -0.0920096023940957 [Eh]
	 SCS Opposite-Spin Energy  =      -1.1431756303373284 [Eh]
	 SCS Correlation Energy    =      -1.2351852327314241 [Eh]
	 SCS Total Energy          =    -271.3158511703195472 [Eh]
	-----------------------------------------------------------

  Dipole Moment: [D]
     X:     1.1187      Y:    -0.3259      Z:    -0.3405     Total:     1.2139

*** Psi4 exiting successfully. Buy a developer a beer!
