                               Psi4 1.3.2 release

  ==> Input File <==

--------------------------------------------------------------------------
#psi4
#
memory 32 gb

molecule  {
0 1
  O       -1.2523610    -0.3679540     1.1390180
  C       -0.6242065    -0.4786493    -0.1478792
  C        0.8068160    -0.0466880    -0.0850580
  C       -1.4810420     0.4064310    -1.0751840
  C        1.0983630     1.3493650     0.3860570
  C        1.7719920    -0.9222190    -0.3989230
  H       -0.6847220    -1.5045720    -0.5137440
  H       -1.0704880     0.4059060    -2.0885930
  H       -2.5045050     0.0256980    -1.1039840
  H       -1.5089050     1.4302280    -0.6989750
  H        0.5609280     1.5513020     1.3193640
  H        2.1701080     1.4924500     0.5529100
  H        0.7653060     2.0941260    -0.3453770
  H        1.5377490    -1.9244940    -0.7449540
  H        2.8237910    -0.6585230    -0.3492850
  H       -0.7142504    -0.9309909     1.7246502
units angstrom
no_reorient  #important for SAPT in psi4, default
symmetry c1  #important for SAPT in psi4, default
}

set PROPERTIES_ORIGIN ["COM"]
properties('MP2/aug-cc-pvtz', properties = ['dipole'])
--------------------------------------------------------------------------

    Molecular point group: c1
  Charge       = 0
  Multiplicity = 1
  Basis Set: AUG-CC-PVTZ
    Blend: AUG-CC-PVTZ
  Basis Set: (AUG-CC-PVTZ AUX)
    Blend: AUG-CC-PVTZ-JKFIT

    Orbital Energies [Eh]
    ---------------------

    Doubly Occupied:

       1A    -20.559019     2A    -11.283375     3A    -11.241693
       4A    -11.223255     5A    -11.221906     6A    -11.214315
       7A     -1.358760     8A     -1.094695     9A     -0.993849
      10A     -0.939232    11A     -0.848244    12A     -0.735071
      13A     -0.691943    14A     -0.650486    15A     -0.598999
      16A     -0.590047    17A     -0.564227    18A     -0.548498
      19A     -0.528760    20A     -0.523778    21A     -0.511569
      22A     -0.476048    23A     -0.444693    24A     -0.359033

  @DF-RHF Final Energy:  -270.10113744080650

   => Energetics <=

    Nuclear Repulsion Energy =            245.5240816689587859
    One-Electron Energy =                -852.8474500026130727
    Two-Electron Energy =                 337.2222308928478469
    Total Energy =                       -270.1011374408064967
  Basis Set: (AUG-CC-PVTZ AUX)
    Blend: AUG-CC-PVTZ-RI
    Molecular point group: c1

    Geometry (in Angstrom), charge = 0, multiplicity = 1:

       Center              X                  Y                   Z               Mass
    ------------   -----------------  -----------------  -----------------  -----------------
         O           -1.254887151355    -0.365747924423     1.137843756166    15.994914619570
         C           -0.626732651355    -0.476443224423    -0.149053443834    12.000000000000
         C            0.804289848645    -0.044481924423    -0.086232243834    12.000000000000
         C           -1.483568151355     0.408637075577    -1.076358243834    12.000000000000
         C            1.095836848645     1.351571075577     0.384882756166    12.000000000000
         C            1.769465848645    -0.920012924423    -0.400097243834    12.000000000000
         H           -0.687248151355    -1.502365924423    -0.514918243834     1.007825032230
         H           -1.073014151355     0.408112075577    -2.089767243834     1.007825032230
         H           -2.507031151355     0.027904075577    -1.105158243834     1.007825032230
         H           -1.511431151355     1.432434075577    -0.700149243834     1.007825032230
         H            0.558401848645     1.553508075577     1.318189756166     1.007825032230
         H            2.167581848645     1.494656075577     0.551735756166     1.007825032230
         H            0.762779848645     2.096332075577    -0.346551243834     1.007825032230
         H            1.535222848645    -1.922287924423    -0.746128243834     1.007825032230
         H            2.821264848645    -0.656316924423    -0.350459243834     1.007825032230
         H           -0.716776551355    -0.928784824423     1.723475956166     1.007825032230

  Basis Set: AUG-CC-PVTZ
    Blend: AUG-CC-PVTZ
  Basis Set: (AUG-CC-PVTZ AUX)
    Blend: AUG-CC-PVTZ-JKFIT
	 Reference Energy          =    -270.1011374408064967 [Eh]
	 Singles Energy            =      -0.0000000000000000 [Eh]
	 Same-Spin Energy          =      -0.2757294229531878 [Eh]
	 Opposite-Spin Energy      =      -0.9508371568811900 [Eh]
	 Correlation Energy        =      -1.2265665798343779 [Eh]
	 Total Energy              =    -271.3277040206408515 [Eh]

	 ================> DF-SCS-MP2 Energies <==================
	-----------------------------------------------------------
	 SCS Same-Spin Scale       =       0.3333333333333333 [-]
	 SCS Opposite-Spin Scale   =       1.2000000000000000 [-]
	 SCS Same-Spin Energy      =      -0.0919098076510626 [Eh]
	 SCS Opposite-Spin Energy  =      -1.1410045882574280 [Eh]
	 SCS Correlation Energy    =      -1.2329143959084905 [Eh]
	 SCS Total Energy          =    -271.3340518367149912 [Eh]
	-----------------------------------------------------------

  Dipole Moment: [D]
     X:     1.1583      Y:    -0.4633      Z:    -0.3668     Total:     1.3003

*** Psi4 exiting successfully. Buy a developer a beer!
