                               Psi4 1.4a3.dev225

  ==> Input File <==

--------------------------------------------------------------------------
#psi4
#
memory 32 gb

molecule  {
0 1
  O       -1.2433940    -0.3366800     1.2074370
  C       -0.6640150    -0.4819890    -0.1009900
  C        0.7437127    -0.0943487    -0.0789874
  C       -1.5159190     0.3706220    -1.0242050
  C        1.1030690     1.3392670     0.3065330
  C        1.7446070    -0.9832150    -0.3605780
  H       -0.7308000    -1.5333880    -0.4224710
  H       -1.1307760     0.3301940    -2.0469120
  H       -2.5455460     0.0047250    -1.0155750
  H       -1.5200810     1.4081240    -0.6829090
  H        0.5415810     1.6180770     1.2025330
  H        2.1707320     1.4680310     0.5024970
  H        0.8184500     2.0371770    -0.4879450
  H        1.4952160    -2.0048880    -0.6345440
  H        2.8007100    -0.7292190    -0.3378150
  H       -0.7102690    -0.8870460     1.8084860
units angstrom
no_reorient  #important for SAPT in psi4, default
symmetry c1  #important for SAPT in psi4, default
}

set PROPERTIES_ORIGIN ["COM"]
properties('MP2/aug-cc-pvtz', properties = ['dipole'])
--------------------------------------------------------------------------

    Molecular point group: c1
  Charge       = 0
  Multiplicity = 1
  Basis Set: AUG-CC-PVTZ
    Blend: AUG-CC-PVTZ
  Basis Set: (AUG-CC-PVTZ AUX)
    Blend: AUG-CC-PVTZ-JKFIT

    Orbital Energies [Eh]
    ---------------------

    Doubly Occupied:

       1A    -20.558457     2A    -11.282726     3A    -11.245446
       4A    -11.227643     5A    -11.221859     6A    -11.215285
       7A     -1.358580     8A     -1.093510     9A     -0.997490
      10A     -0.934270    11A     -0.853965    12A     -0.736637
      13A     -0.692724    14A     -0.648465    15A     -0.597271
      16A     -0.592341    17A     -0.563347    18A     -0.548390
      19A     -0.531768    20A     -0.522671    21A     -0.504611
      22A     -0.483129    23A     -0.445951    24A     -0.353077

  @DF-RHF Final Energy:  -270.09758854573158

   => Energetics <=

    Nuclear Repulsion Energy =            245.6224149154744794
    One-Electron Energy =                -853.0207821108873532
    Two-Electron Energy =                 337.3007786496813196
    Total Energy =                       -270.0975885457315826
  Basis Set: (AUG-CC-PVTZ AUX)
    Blend: AUG-CC-PVTZ-RI
    Molecular point group: c1

    Geometry (in Angstrom), charge = 0, multiplicity = 1:

       Center              X                  Y                   Z               Mass
    ------------   -----------------  -----------------  -----------------  -----------------
         O           -1.223039202912    -0.315117525018     1.183237579874    15.994914619570
         C           -0.643660202912    -0.460426525018    -0.125189420126    12.000000000000
         C            0.764067497088    -0.072786225018    -0.103186820126    12.000000000000
         C           -1.495564202912     0.392184474982    -1.048404420126    12.000000000000
         C            1.123423797088     1.360829474982     0.282333579874    12.000000000000
         C            1.764961797088    -0.961652525018    -0.384777420126    12.000000000000
         H           -0.710445202912    -1.511825525018    -0.446670420126     1.007825032230
         H           -1.110421202912     0.351756474982    -2.071111420126     1.007825032230
         H           -2.525191202912     0.026287474982    -1.039774420126     1.007825032230
         H           -1.499726202912     1.429686474982    -0.707108420126     1.007825032230
         H            0.561935797088     1.639639474982     1.178333579874     1.007825032230
         H            2.191086797088     1.489593474982     0.478297579874     1.007825032230
         H            0.838804797088     2.058739474982    -0.512144420126     1.007825032230
         H            1.515570797088    -1.983325525018    -0.658743420126     1.007825032230
         H            2.821064797088    -0.707656525018    -0.362014420126     1.007825032230
         H           -0.689914202912    -0.865483525018     1.784286579874     1.007825032230

  Basis Set: AUG-CC-PVTZ
    Blend: AUG-CC-PVTZ
  Basis Set: (AUG-CC-PVTZ AUX)
    Blend: AUG-CC-PVTZ-JKFIT
	 Reference Energy          =    -270.0975885457315826 [Eh]
	 Singles Energy            =      -0.0000000000000000 [Eh]
	 Same-Spin Energy          =      -0.2762054367305734 [Eh]
	 Opposite-Spin Energy      =      -0.9518246204713192 [Eh]
	 Correlation Energy        =      -1.2280300572018925 [Eh]
	 Total Energy              =    -271.3256186029335026 [Eh]

	 ================> DF-SCS-MP2 Energies <==================
	-----------------------------------------------------------
	 SCS Same-Spin Scale       =       0.3333333333333333 [-]
	 SCS Opposite-Spin Scale   =       1.2000000000000000 [-]
	 SCS Same-Spin Energy      =      -0.0920684789101911 [Eh]
	 SCS Opposite-Spin Energy  =      -1.1421895445655830 [Eh]
	 SCS Correlation Energy    =      -1.2342580234757741 [Eh]
	 SCS Total Energy          =    -271.3318465692073573 [Eh]
	-----------------------------------------------------------

  Dipole Moment: [D]
     X:     1.1027      Y:    -0.4818      Z:    -0.4097     Total:     1.2712

*** Psi4 exiting successfully. Buy a developer a beer!
