                               Psi4 1.3.2 release

  ==> Input File <==

--------------------------------------------------------------------------
#psi4
#
memory 32 gb

molecule  {
0 1
  O       -1.2523610    -0.3679540     1.1390180
  C       -0.6414680    -0.4631600    -0.1573930
  C        0.8155606    -0.0862662    -0.0514380
  C       -1.5231981     0.3766154    -1.0633414
  C        1.0983630     1.3493650     0.3860570
  C        1.7719920    -0.9222190    -0.3989230
  H       -0.6847220    -1.5045720    -0.5137440
  H       -1.0704880     0.4059060    -2.0885930
  H       -2.5045050     0.0256980    -1.1039840
  H       -1.5089050     1.4302280    -0.6989750
  H        0.5609280     1.5513020     1.3193640
  H        2.1701080     1.4924500     0.5529100
  H        0.7653060     2.0941260    -0.3453770
  H        1.5377490    -1.9244940    -0.7449540
  H        2.8237910    -0.6585230    -0.3492850
  H       -0.7244690    -0.9269870     1.7376420
units angstrom
no_reorient  #important for SAPT in psi4, default
symmetry c1  #important for SAPT in psi4, default
}

set PROPERTIES_ORIGIN ["COM"]
properties('MP2/aug-cc-pvtz', properties = ['dipole'])
--------------------------------------------------------------------------

    Molecular point group: c1
  Charge       = 0
  Multiplicity = 1
  Basis Set: AUG-CC-PVTZ
    Blend: AUG-CC-PVTZ
  Basis Set: (AUG-CC-PVTZ AUX)
    Blend: AUG-CC-PVTZ-JKFIT

    Orbital Energies [Eh]
    ---------------------

    Doubly Occupied:

       1A    -20.556177     2A    -11.283933     3A    -11.240222
       4A    -11.221716     5A    -11.221378     6A    -11.215326
       7A     -1.356809     8A     -1.093409     9A     -0.999730
      10A     -0.937926    11A     -0.848627    12A     -0.733217
      13A     -0.690403    14A     -0.651110    15A     -0.601587
      16A     -0.593948    17A     -0.560814    18A     -0.551524
      19A     -0.525580    20A     -0.518264    21A     -0.508107
      22A     -0.481315    23A     -0.436344    24A     -0.366663

  @DF-RHF Final Energy:  -270.09794255184374

   => Energetics <=

    Nuclear Repulsion Energy =            245.3666646441897115
    One-Electron Energy =                -852.5409545869200656
    Two-Electron Energy =                 337.0763473908866672
    Total Energy =                       -270.0979425518437438
  Basis Set: (AUG-CC-PVTZ AUX)
    Blend: AUG-CC-PVTZ-RI
    Molecular point group: c1

    Geometry (in Angstrom), charge = 0, multiplicity = 1:

       Center              X                  Y                   Z               Mass
    ------------   -----------------  -----------------  -----------------  -----------------
         O           -1.247702861555    -0.358279641250     1.132679788261    15.994914619570
         C           -0.636809861555    -0.453485641250    -0.163731211739    12.000000000000
         C            0.820218738445    -0.076591841250    -0.057776211739    12.000000000000
         C           -1.518539961555     0.386289758750    -1.069679611739    12.000000000000
         C            1.103021138445     1.359039358750     0.379718788261    12.000000000000
         C            1.776650138445    -0.912544641250    -0.405261211739    12.000000000000
         H           -0.680063861555    -1.494897641250    -0.520082211739     1.007825032230
         H           -1.065829861555     0.415580358750    -2.094931211739     1.007825032230
         H           -2.499846861555     0.035372358750    -1.110322211739     1.007825032230
         H           -1.504246861555     1.439902358750    -0.705313211739     1.007825032230
         H            0.565586138445     1.560976358750     1.313025788261     1.007825032230
         H            2.174766138445     1.502124358750     0.546571788261     1.007825032230
         H            0.769964138445     2.103800358750    -0.351715211739     1.007825032230
         H            1.542407138445    -1.914819641250    -0.751292211739     1.007825032230
         H            2.828449138445    -0.648848641250    -0.355623211739     1.007825032230
         H           -0.719810861555    -0.917312641250     1.731303788261     1.007825032230

  Basis Set: AUG-CC-PVTZ
    Blend: AUG-CC-PVTZ
  Basis Set: (AUG-CC-PVTZ AUX)
    Blend: AUG-CC-PVTZ-JKFIT
	 Reference Energy          =    -270.0979425518437438 [Eh]
	 Singles Energy            =      -0.0000000000000000 [Eh]
	 Same-Spin Energy          =      -0.2753072568705697 [Eh]
	 Opposite-Spin Energy      =      -0.9501220231162153 [Eh]
	 Correlation Energy        =      -1.2254292799867850 [Eh]
	 Total Energy              =    -271.3233718318305137 [Eh]

	 ================> DF-SCS-MP2 Energies <==================
	-----------------------------------------------------------
	 SCS Same-Spin Scale       =       0.3333333333333333 [-]
	 SCS Opposite-Spin Scale   =       1.2000000000000000 [-]
	 SCS Same-Spin Energy      =      -0.0917690856235232 [Eh]
	 SCS Opposite-Spin Energy  =      -1.1401464277394584 [Eh]
	 SCS Correlation Energy    =      -1.2319155133629816 [Eh]
	 SCS Total Energy          =    -271.3298580652067358 [Eh]
	-----------------------------------------------------------

  Dipole Moment: [D]
     X:     1.1369      Y:    -0.4724      Z:    -0.4344     Total:     1.3055

*** Psi4 exiting successfully. Buy a developer a beer!
