                               Psi4 1.3.2 release

  ==> Input File <==

--------------------------------------------------------------------------
#psi4
#
memory 32 gb

molecule  {
0 1
  O       -1.2523610    -0.3679540     1.1390180
  C       -0.6414680    -0.4631600    -0.1573930
  C        0.7749473    -0.0791397    -0.0960212
  C       -1.4810420     0.4064310    -1.0751840
  C        1.0983630     1.3493650     0.3860570
  C        1.7719920    -0.9222190    -0.3989230
  H       -0.6847220    -1.5045720    -0.5137440
  H       -1.0704880     0.4059060    -2.0885930
  H       -2.5045050     0.0256980    -1.1039840
  H       -1.5089050     1.4302280    -0.6989750
  H        0.5609280     1.5513020     1.3193640
  H        2.1701080     1.4924500     0.5529100
  H        0.7653060     2.0941260    -0.3453770
  H        1.5008885    -1.9162749    -0.7417321
  H        2.8237910    -0.6585230    -0.3492850
  H       -0.7244690    -0.9269870     1.7376420
units angstrom
no_reorient  #important for SAPT in psi4, default
symmetry c1  #important for SAPT in psi4, default
}

set PROPERTIES_ORIGIN ["COM"]
properties('MP2/aug-cc-pvtz', properties = ['dipole'])
--------------------------------------------------------------------------

    Molecular point group: c1
  Charge       = 0
  Multiplicity = 1
  Basis Set: AUG-CC-PVTZ
    Blend: AUG-CC-PVTZ
  Basis Set: (AUG-CC-PVTZ AUX)
    Blend: AUG-CC-PVTZ-JKFIT

    Orbital Energies [Eh]
    ---------------------

    Doubly Occupied:

       1A    -20.558791     2A    -11.282734     3A    -11.241530
       4A    -11.223782     5A    -11.221932     6A    -11.214968
       7A     -1.358882     8A     -1.094644     9A     -0.998520
      10A     -0.934755    11A     -0.853108    12A     -0.735122
      13A     -0.692603    14A     -0.647666    15A     -0.602385
      16A     -0.591426    17A     -0.562427    18A     -0.546170
      19A     -0.531712    20A     -0.522301    21A     -0.502164
      22A     -0.484983    23A     -0.442403    24A     -0.359993

  @DF-RHF Final Energy:  -270.09947206972276

   => Energetics <=

    Nuclear Repulsion Energy =            245.7714946585831512
    One-Electron Energy =                -853.3319281007612744
    Two-Electron Energy =                 337.4609613724553583
    Total Energy =                       -270.0994720697227649
  Basis Set: (AUG-CC-PVTZ AUX)
    Blend: AUG-CC-PVTZ-RI
    Molecular point group: c1

    Geometry (in Angstrom), charge = 0, multiplicity = 1:

       Center              X                  Y                   Z               Mass
    ------------   -----------------  -----------------  -----------------  -----------------
         O           -1.247486355812    -0.363526208110     1.140508738074    15.994914619570
         C           -0.636593355812    -0.458732208110    -0.155902261926    12.000000000000
         C            0.779821944188    -0.074711908110    -0.094530461926    12.000000000000
         C           -1.476167355812     0.410858791890    -1.073693261926    12.000000000000
         C            1.103237644188     1.353792791890     0.387547738074    12.000000000000
         C            1.776866644188    -0.917791208110    -0.397432261926    12.000000000000
         H           -0.679847355812    -1.500144208110    -0.512253261926     1.007825032230
         H           -1.065613355812     0.410333791890    -2.087102261926     1.007825032230
         H           -2.499630355812     0.030125791890    -1.102493261926     1.007825032230
         H           -1.504030355812     1.434655791890    -0.697484261926     1.007825032230
         H            0.565802644188     1.555729791890     1.320854738074     1.007825032230
         H            2.174982644188     1.496877791890     0.554400738074     1.007825032230
         H            0.770180644188     2.098553791890    -0.343886261926     1.007825032230
         H            1.505763144188    -1.911847108110    -0.740241361926     1.007825032230
         H            2.828665644188    -0.654095208110    -0.347794261926     1.007825032230
         H           -0.719594355812    -0.922559208110     1.739132738074     1.007825032230

  Basis Set: AUG-CC-PVTZ
    Blend: AUG-CC-PVTZ
  Basis Set: (AUG-CC-PVTZ AUX)
    Blend: AUG-CC-PVTZ-JKFIT
	 Reference Energy          =    -270.0994720697227649 [Eh]
	 Singles Energy            =      -0.0000000000000000 [Eh]
	 Same-Spin Energy          =      -0.2758322329285888 [Eh]
	 Opposite-Spin Energy      =      -0.9509786682280870 [Eh]
	 Correlation Energy        =      -1.2268109011566759 [Eh]
	 Total Energy              =    -271.3262829708794470 [Eh]

	 ================> DF-SCS-MP2 Energies <==================
	-----------------------------------------------------------
	 SCS Same-Spin Scale       =       0.3333333333333333 [-]
	 SCS Opposite-Spin Scale   =       1.2000000000000000 [-]
	 SCS Same-Spin Energy      =      -0.0919440776428629 [Eh]
	 SCS Opposite-Spin Energy  =      -1.1411744018737042 [Eh]
	 SCS Correlation Energy    =      -1.2331184795165671 [Eh]
	 SCS Total Energy          =    -271.3325905492393417 [Eh]
	-----------------------------------------------------------

  Dipole Moment: [D]
     X:     1.1167      Y:    -0.4647      Z:    -0.3888     Total:     1.2705

*** Psi4 exiting successfully. Buy a developer a beer!
