                               Psi4 1.3.2 release

  ==> Input File <==

--------------------------------------------------------------------------
#psi4
#
memory 32 gb

molecule  {
0 1
  O       -1.2436211    -0.3756571     1.1436415
  C       -0.6414680    -0.4631600    -0.1573930
  C        0.8068160    -0.0466880    -0.0850580
  C       -1.4730797     0.4033357    -1.0853050
  C        1.0983630     1.3493650     0.3860570
  C        1.7719920    -0.9222190    -0.3989230
  H       -0.6847220    -1.5045720    -0.5137440
  H       -1.0704880     0.4059060    -2.0885930
  H       -2.5045050     0.0256980    -1.1039840
  H       -1.5089050     1.4302280    -0.6989750
  H        0.5609280     1.5513020     1.3193640
  H        2.1701080     1.4924500     0.5529100
  H        0.7653060     2.0941260    -0.3453770
  H        1.5377490    -1.9244940    -0.7449540
  H        2.8237910    -0.6585230    -0.3492850
  H       -0.7244690    -0.9269870     1.7376420
units angstrom
no_reorient  #important for SAPT in psi4, default
symmetry c1  #important for SAPT in psi4, default
}

set PROPERTIES_ORIGIN ["COM"]
properties('MP2/aug-cc-pvtz', properties = ['dipole'])
--------------------------------------------------------------------------

    Molecular point group: c1
  Charge       = 0
  Multiplicity = 1
  Basis Set: AUG-CC-PVTZ
    Blend: AUG-CC-PVTZ
  Basis Set: (AUG-CC-PVTZ AUX)
    Blend: AUG-CC-PVTZ-JKFIT

    Orbital Energies [Eh]
    ---------------------

    Doubly Occupied:

       1A    -20.556825     2A    -11.284509     3A    -11.241564
       4A    -11.222325     5A    -11.221220     6A    -11.214741
       7A     -1.359599     8A     -1.093680     9A     -0.999585
      10A     -0.938156    11A     -0.846719    12A     -0.736030
      13A     -0.693188    14A     -0.649424    15A     -0.597490
      16A     -0.590769    17A     -0.564161    18A     -0.549143
      19A     -0.536207    20A     -0.522611    21A     -0.510538
      22A     -0.477333    23A     -0.439974    24A     -0.358738

  @DF-RHF Final Energy:  -270.10269536201378

   => Energetics <=

    Nuclear Repulsion Energy =            245.5461460700090015
    One-Electron Energy =                -852.8886258240972893
    Two-Electron Energy =                 337.2397843920745686
    Total Energy =                       -270.1026953620137760
  Basis Set: (AUG-CC-PVTZ AUX)
    Blend: AUG-CC-PVTZ-RI
    Molecular point group: c1

    Geometry (in Angstrom), charge = 0, multiplicity = 1:

       Center              X                  Y                   Z               Mass
    ------------   -----------------  -----------------  -----------------  -----------------
         O           -1.246355271978    -0.373794369574     1.144193365008    15.994914619570
         C           -0.644202171978    -0.461297269574    -0.156841134992    12.000000000000
         C            0.804081828022    -0.044825269574    -0.084506134992    12.000000000000
         C           -1.475813871978     0.405198430426    -1.084753134992    12.000000000000
         C            1.095628828022     1.351227730426     0.386608865008    12.000000000000
         C            1.769257828022    -0.920356269574    -0.398371134992    12.000000000000
         H           -0.687456171978    -1.502709269574    -0.513192134992     1.007825032230
         H           -1.073222171978     0.407768730426    -2.088041134992     1.007825032230
         H           -2.507239171978     0.027560730426    -1.103432134992     1.007825032230
         H           -1.511639171978     1.432090730426    -0.698423134992     1.007825032230
         H            0.558193828022     1.553164730426     1.319915865008     1.007825032230
         H            2.167373828022     1.494312730426     0.553461865008     1.007825032230
         H            0.762571828022     2.095988730426    -0.344825134992     1.007825032230
         H            1.535014828022    -1.922631269574    -0.744402134992     1.007825032230
         H            2.821056828022    -0.656660269574    -0.348733134992     1.007825032230
         H           -0.727203171978    -0.925124269574     1.738193865008     1.007825032230

  Basis Set: AUG-CC-PVTZ
    Blend: AUG-CC-PVTZ
  Basis Set: (AUG-CC-PVTZ AUX)
    Blend: AUG-CC-PVTZ-JKFIT
	 Reference Energy          =    -270.1026953620137760 [Eh]
	 Singles Energy            =      -0.0000000000000000 [Eh]
	 Same-Spin Energy          =      -0.2754726892883159 [Eh]
	 Opposite-Spin Energy      =      -0.9501542350063905 [Eh]
	 Correlation Energy        =      -1.2256269242947064 [Eh]
	 Total Energy              =    -271.3283222863084916 [Eh]

	 ================> DF-SCS-MP2 Energies <==================
	-----------------------------------------------------------
	 SCS Same-Spin Scale       =       0.3333333333333333 [-]
	 SCS Opposite-Spin Scale   =       1.2000000000000000 [-]
	 SCS Same-Spin Energy      =      -0.0918242297627720 [Eh]
	 SCS Opposite-Spin Energy  =      -1.1401850820076687 [Eh]
	 SCS Correlation Energy    =      -1.2320093117704407 [Eh]
	 SCS Total Energy          =    -271.3347046737842447 [Eh]
	-----------------------------------------------------------

  Dipole Moment: [D]
     X:     1.0968      Y:    -0.4295      Z:    -0.3921     Total:     1.2414

*** Psi4 exiting successfully. Buy a developer a beer!
