                               Psi4 1.3.2 release

  ==> Input File <==

--------------------------------------------------------------------------
#psi4
#
memory 32 gb

molecule  {
0 1
  O       -1.2523610    -0.3679540     1.1390180
  C       -0.6551265    -0.4153415    -0.1400713
  C        0.8068160    -0.0466880    -0.0850580
  C       -1.4810420     0.4064310    -1.0751840
  C        1.0468241     1.3573364     0.3914128
  C        1.7719920    -0.9222190    -0.3989230
  H       -0.6847220    -1.5045720    -0.5137440
  H       -1.0704880     0.4059060    -2.0885930
  H       -2.5045050     0.0256980    -1.1039840
  H       -1.5089050     1.4302280    -0.6989750
  H        0.5609280     1.5513020     1.3193640
  H        2.1701080     1.4924500     0.5529100
  H        0.7653060     2.0941260    -0.3453770
  H        1.5377490    -1.9244940    -0.7449540
  H        2.8237910    -0.6585230    -0.3492850
  H       -0.7244690    -0.9269870     1.7376420
units angstrom
no_reorient  #important for SAPT in psi4, default
symmetry c1  #important for SAPT in psi4, default
}

set PROPERTIES_ORIGIN ["COM"]
properties('MP2/aug-cc-pvtz', properties = ['dipole'])
--------------------------------------------------------------------------

    Molecular point group: c1
  Charge       = 0
  Multiplicity = 1
  Basis Set: AUG-CC-PVTZ
    Blend: AUG-CC-PVTZ
  Basis Set: (AUG-CC-PVTZ AUX)
    Blend: AUG-CC-PVTZ-JKFIT

    Orbital Energies [Eh]
    ---------------------

    Doubly Occupied:

       1A    -20.560106     2A    -11.285219     3A    -11.241966
       4A    -11.224593     5A    -11.220861     6A    -11.213580
       7A     -1.366689     8A     -1.093723     9A     -1.002549
      10A     -0.939549    11A     -0.844308    12A     -0.738098
      13A     -0.689707    14A     -0.649738    15A     -0.599642
      16A     -0.599237    17A     -0.573376    18A     -0.542821
      19A     -0.537321    20A     -0.519618    21A     -0.513798
      22A     -0.476067    23A     -0.426993    24A     -0.361357

  @DF-RHF Final Energy:  -270.09575457127539

   => Energetics <=

    Nuclear Repulsion Energy =            246.1679215879764513
    One-Electron Energy =                -854.0855225059463010
    Two-Electron Energy =                 337.8218463466944286
    Total Energy =                       -270.0957545712753927
  Basis Set: (AUG-CC-PVTZ AUX)
    Blend: AUG-CC-PVTZ-RI
    Molecular point group: c1

    Geometry (in Angstrom), charge = 0, multiplicity = 1:

       Center              X                  Y                   Z               Mass
    ------------   -----------------  -----------------  -----------------  -----------------
         O           -1.243271389792    -0.375732286346     1.135856402020    15.994914619570
         C           -0.646036889792    -0.423119786346    -0.143232897980    12.000000000000
         C            0.815905610208    -0.054466286346    -0.088219597980    12.000000000000
         C           -1.471952389792     0.398652713654    -1.078345597980    12.000000000000
         C            1.055913710208     1.349558113654     0.388251202020    12.000000000000
         C            1.781081610208    -0.929997286346    -0.402084597980    12.000000000000
         H           -0.675632389792    -1.512350286346    -0.516905597980     1.007825032230
         H           -1.061398389792     0.398127713654    -2.091754597980     1.007825032230
         H           -2.495415389792     0.017919713654    -1.107145597980     1.007825032230
         H           -1.499815389792     1.422449713654    -0.702136597980     1.007825032230
         H            0.570017610208     1.543523713654     1.316202402020     1.007825032230
         H            2.179197610208     1.484671713654     0.549748402020     1.007825032230
         H            0.774395610208     2.086347713654    -0.348538597980     1.007825032230
         H            1.546838610208    -1.932272286346    -0.748115597980     1.007825032230
         H            2.832880610208    -0.666301286346    -0.352446597980     1.007825032230
         H           -0.715379389792    -0.934765286346     1.734480402020     1.007825032230

  Basis Set: AUG-CC-PVTZ
    Blend: AUG-CC-PVTZ
  Basis Set: (AUG-CC-PVTZ AUX)
    Blend: AUG-CC-PVTZ-JKFIT
	 Reference Energy          =    -270.0957545712753927 [Eh]
	 Singles Energy            =      -0.0000000000000000 [Eh]
	 Same-Spin Energy          =      -0.2759581844220943 [Eh]
	 Opposite-Spin Energy      =      -0.9509152192971748 [Eh]
	 Correlation Energy        =      -1.2268734037192690 [Eh]
	 Total Energy              =    -271.3226279749946457 [Eh]

	 ================> DF-SCS-MP2 Energies <==================
	-----------------------------------------------------------
	 SCS Same-Spin Scale       =       0.3333333333333333 [-]
	 SCS Opposite-Spin Scale   =       1.2000000000000000 [-]
	 SCS Same-Spin Energy      =      -0.0919860614740314 [Eh]
	 SCS Opposite-Spin Energy  =      -1.1410982631566098 [Eh]
	 SCS Correlation Energy    =      -1.2330843246306413 [Eh]
	 SCS Total Energy          =    -271.3288388959060171 [Eh]
	-----------------------------------------------------------

  Dipole Moment: [D]
     X:     1.0770      Y:    -0.3906      Z:    -0.3248     Total:     1.1908

*** Psi4 exiting successfully. Buy a developer a beer!
