                               Psi4 1.3.2 release

  ==> Input File <==

--------------------------------------------------------------------------
#psi4
#
memory 32 gb

molecule  {
0 1
  O       -1.2523610    -0.3679540     1.1390180
  C       -0.5902628    -0.5095221    -0.1276786
  C        0.8068160    -0.0466880    -0.0850580
  C       -1.4810420     0.4064310    -1.0751840
  C        1.0983630     1.3493650     0.3860570
  C        1.7719920    -0.9222190    -0.3989230
  H       -0.6847220    -1.5045720    -0.5137440
  H       -1.0704880     0.4059060    -2.0885930
  H       -2.5045050     0.0256980    -1.1039840
  H       -1.5089050     1.4302280    -0.6989750
  H        0.5609280     1.5513020     1.3193640
  H        2.1701080     1.4924500     0.5529100
  H        0.7653060     2.0941260    -0.3453770
  H        1.5377490    -1.9244940    -0.7449540
  H        2.8237910    -0.6585230    -0.3492850
  H       -0.6943080    -0.9384829     1.6981353
units angstrom
no_reorient  #important for SAPT in psi4, default
symmetry c1  #important for SAPT in psi4, default
}

set PROPERTIES_ORIGIN ["COM"]
properties('MP2/aug-cc-pvtz', properties = ['dipole'])
--------------------------------------------------------------------------

    Molecular point group: c1
  Charge       = 0
  Multiplicity = 1
  Basis Set: AUG-CC-PVTZ
    Blend: AUG-CC-PVTZ
  Basis Set: (AUG-CC-PVTZ AUX)
    Blend: AUG-CC-PVTZ-JKFIT

    Orbital Energies [Eh]
    ---------------------

    Doubly Occupied:

       1A    -20.561026     2A    -11.282359     3A    -11.241557
       4A    -11.224289     5A    -11.223063     6A    -11.214473
       7A     -1.361551     8A     -1.097684     9A     -0.984532
      10A     -0.940974    11A     -0.851830    12A     -0.736440
      13A     -0.691796    14A     -0.651984    15A     -0.602716
      16A     -0.588553    17A     -0.564242    18A     -0.547691
      19A     -0.527408    20A     -0.522724    21A     -0.512686
      22A     -0.468074    23A     -0.452546    24A     -0.358360

  @DF-RHF Final Energy:  -270.09471247201037

   => Energetics <=

    Nuclear Repulsion Energy =            245.5614131793858803
    One-Electron Energy =                -852.8951386896219446
    Two-Electron Energy =                 337.2390130382256643
    Total Energy =                       -270.0947124720103716
  Basis Set: (AUG-CC-PVTZ AUX)
    Blend: AUG-CC-PVTZ-RI
    Molecular point group: c1

    Geometry (in Angstrom), charge = 0, multiplicity = 1:

       Center              X                  Y                   Z               Mass
    ------------   -----------------  -----------------  -----------------  -----------------
         O           -1.259852959806    -0.361356030324     1.135337924991    15.994914619570
         C           -0.597754759806    -0.502924130324    -0.131358675009    12.000000000000
         C            0.799324040194    -0.040090030324    -0.088738075009    12.000000000000
         C           -1.488533959806     0.413028969676    -1.078864075009    12.000000000000
         C            1.090871040194     1.355962969676     0.382376924991    12.000000000000
         C            1.764500040194    -0.915621030324    -0.402603075009    12.000000000000
         H           -0.692213959806    -1.497974030324    -0.517424075009     1.007825032230
         H           -1.077979959806     0.412503969676    -2.092273075009     1.007825032230
         H           -2.511996959806     0.032295969676    -1.107664075009     1.007825032230
         H           -1.516396959806     1.436825969676    -0.702655075009     1.007825032230
         H            0.553436040194     1.557899969676     1.315683924991     1.007825032230
         H            2.162616040194     1.499047969676     0.549229924991     1.007825032230
         H            0.757814040194     2.100723969676    -0.349057075009     1.007825032230
         H            1.530257040194    -1.917896030324    -0.748634075009     1.007825032230
         H            2.816299040194    -0.651925030324    -0.352965075009     1.007825032230
         H           -0.701799959806    -0.931884930324     1.694455224991     1.007825032230

  Basis Set: AUG-CC-PVTZ
    Blend: AUG-CC-PVTZ
  Basis Set: (AUG-CC-PVTZ AUX)
    Blend: AUG-CC-PVTZ-JKFIT
	 Reference Energy          =    -270.0947124720103716 [Eh]
	 Singles Energy            =      -0.0000000000000000 [Eh]
	 Same-Spin Energy          =      -0.2760785468346639 [Eh]
	 Opposite-Spin Energy      =      -0.9516398552774687 [Eh]
	 Correlation Energy        =      -1.2277184021121328 [Eh]
	 Total Energy              =    -271.3224308741225173 [Eh]

	 ================> DF-SCS-MP2 Energies <==================
	-----------------------------------------------------------
	 SCS Same-Spin Scale       =       0.3333333333333333 [-]
	 SCS Opposite-Spin Scale   =       1.2000000000000000 [-]
	 SCS Same-Spin Energy      =      -0.0920261822782213 [Eh]
	 SCS Opposite-Spin Energy  =      -1.1419678263329625 [Eh]
	 SCS Correlation Energy    =      -1.2339940086111838 [Eh]
	 SCS Total Energy          =    -271.3287064806215767 [Eh]
	-----------------------------------------------------------

  Dipole Moment: [D]
     X:     1.2410      Y:    -0.5047      Z:    -0.3453     Total:     1.3835

*** Psi4 exiting successfully. Buy a developer a beer!
