                               Psi4 1.3.2 release

  ==> Input File <==

--------------------------------------------------------------------------
#psi4
#
memory 32 gb

molecule  {
0 1
  O       -1.2523610    -0.3679540     1.1390180
  C       -0.6414680    -0.4631600    -0.1573930
  C        0.8068160    -0.0466880    -0.0850580
  C       -1.4840719     0.3957629    -1.0824246
  C        1.0983630     1.3493650     0.3860570
  C        1.7719920    -0.9222190    -0.3989230
  H       -0.6904713    -1.5018259    -0.5209419
  H       -1.0704880     0.4059060    -2.0885930
  H       -2.5045050     0.0256980    -1.1039840
  H       -1.5089050     1.4302280    -0.6989750
  H        0.5609280     1.5513020     1.3193640
  H        2.1701080     1.4924500     0.5529100
  H        0.7653060     2.0941260    -0.3453770
  H        1.5377490    -1.9244940    -0.7449540
  H        2.8237910    -0.6585230    -0.3492850
  H       -0.7244690    -0.9269870     1.7376420
units angstrom
no_reorient  #important for SAPT in psi4, default
symmetry c1  #important for SAPT in psi4, default
}

set PROPERTIES_ORIGIN ["COM"]
properties('MP2/aug-cc-pvtz', properties = ['dipole'])
--------------------------------------------------------------------------

    Molecular point group: c1
  Charge       = 0
  Multiplicity = 1
  Basis Set: AUG-CC-PVTZ
    Blend: AUG-CC-PVTZ
  Basis Set: (AUG-CC-PVTZ AUX)
    Blend: AUG-CC-PVTZ-JKFIT

    Orbital Energies [Eh]
    ---------------------

    Doubly Occupied:

       1A    -20.558285     2A    -11.284182     3A    -11.242013
       4A    -11.222792     5A    -11.221329     6A    -11.214094
       7A     -1.357529     8A     -1.093378     9A     -0.999144
      10A     -0.938269    11A     -0.846130    12A     -0.734851
      13A     -0.691592    14A     -0.649870    15A     -0.597779
      16A     -0.591284    17A     -0.563326    18A     -0.550371
      19A     -0.531985    20A     -0.523119    21A     -0.510617
      22A     -0.477417    23A     -0.440537    24A     -0.359080

  @DF-RHF Final Energy:  -270.10192912152968

   => Energetics <=

    Nuclear Repulsion Energy =            245.4542724631627664
    One-Electron Energy =                -852.7144636116853462
    Two-Electron Energy =                 337.1582620269929293
    Total Energy =                       -270.1019291215296789
  Basis Set: (AUG-CC-PVTZ AUX)
    Blend: AUG-CC-PVTZ-RI
    Molecular point group: c1

    Geometry (in Angstrom), charge = 0, multiplicity = 1:

       Center              X                  Y                   Z               Mass
    ------------   -----------------  -----------------  -----------------  -----------------
         O           -1.251871232868    -0.366499113472     1.140111751803    15.994914619570
         C           -0.640978232868    -0.461705113472    -0.156299248197    12.000000000000
         C            0.807305767132    -0.045233113472    -0.083964248197    12.000000000000
         C           -1.483582132868     0.397217786528    -1.081330848197    12.000000000000
         C            1.098852767132     1.350819886528     0.387150751803    12.000000000000
         C            1.772481767132    -0.920764113472    -0.397829248197    12.000000000000
         H           -0.689981532868    -1.500371013472    -0.519848148197     1.007825032230
         H           -1.069998232868     0.407360886528    -2.087499248197     1.007825032230
         H           -2.504015232868     0.027152886528    -1.102890248197     1.007825032230
         H           -1.508415232868     1.431682886528    -0.697881248197     1.007825032230
         H            0.561417767132     1.552756886528     1.320457751803     1.007825032230
         H            2.170597767132     1.493904886528     0.554003751803     1.007825032230
         H            0.765795767132     2.095580886528    -0.344283248197     1.007825032230
         H            1.538238767132    -1.923039113472    -0.743860248197     1.007825032230
         H            2.824280767132    -0.657068113472    -0.348191248197     1.007825032230
         H           -0.723979232868    -0.925532113472     1.738735751803     1.007825032230

  Basis Set: AUG-CC-PVTZ
    Blend: AUG-CC-PVTZ
  Basis Set: (AUG-CC-PVTZ AUX)
    Blend: AUG-CC-PVTZ-JKFIT
	 Reference Energy          =    -270.1019291215296789 [Eh]
	 Singles Energy            =      -0.0000000000000000 [Eh]
	 Same-Spin Energy          =      -0.2756501525026903 [Eh]
	 Opposite-Spin Energy      =      -0.9506089542873565 [Eh]
	 Correlation Energy        =      -1.2262591067900468 [Eh]
	 Total Energy              =    -271.3281882283197319 [Eh]

	 ================> DF-SCS-MP2 Energies <==================
	-----------------------------------------------------------
	 SCS Same-Spin Scale       =       0.3333333333333333 [-]
	 SCS Opposite-Spin Scale   =       1.2000000000000000 [-]
	 SCS Same-Spin Energy      =      -0.0918833841675634 [Eh]
	 SCS Opposite-Spin Energy  =      -1.1407307451448276 [Eh]
	 SCS Correlation Energy    =      -1.2326141293123911 [Eh]
	 SCS Total Energy          =    -271.3345432508420458 [Eh]
	-----------------------------------------------------------

  Dipole Moment: [D]
     X:     1.1147      Y:    -0.4458      Z:    -0.3791     Total:     1.2590

*** Psi4 exiting successfully. Buy a developer a beer!
