                               Psi4 1.4a3.dev225

  ==> Input File <==

--------------------------------------------------------------------------
#psi4
#
memory 32 gb

molecule  {
0 1
  O       -1.2433940    -0.3366800     1.2074370
  C       -0.6640150    -0.4819890    -0.1009900
  C        0.8401133    -0.0678033    -0.0774806
  C       -1.5159190     0.3706220    -1.0242050
  C        1.1030690     1.3392670     0.3065330
  C        1.7446070    -0.9832150    -0.3605780
  H       -0.7308000    -1.5333880    -0.4224710
  H       -1.1307760     0.3301940    -2.0469120
  H       -2.5455460     0.0047250    -1.0155750
  H       -1.5200810     1.4081240    -0.6829090
  H        0.5415810     1.6180770     1.2025330
  H        2.1707320     1.4680310     0.5024970
  H        0.8184500     2.0371770    -0.4879450
  H        1.4952160    -2.0048880    -0.6345440
  H        2.8007100    -0.7292190    -0.3378150
  H       -0.7102690    -0.8870460     1.8084860
units angstrom
no_reorient  #important for SAPT in psi4, default
symmetry c1  #important for SAPT in psi4, default
}

set PROPERTIES_ORIGIN ["COM"]
properties('MP2/aug-cc-pvtz', properties = ['dipole'])
--------------------------------------------------------------------------

    Molecular point group: c1
  Charge       = 0
  Multiplicity = 1
  Basis Set: AUG-CC-PVTZ
    Blend: AUG-CC-PVTZ
  Basis Set: (AUG-CC-PVTZ AUX)
    Blend: AUG-CC-PVTZ-JKFIT

    Orbital Energies [Eh]
    ---------------------

    Doubly Occupied:

       1A    -20.557551     2A    -11.285993     3A    -11.240020
       4A    -11.220412     5A    -11.219685     6A    -11.213660
       7A     -1.355286     8A     -1.093613     9A     -0.999017
      10A     -0.943094    11A     -0.838862    12A     -0.732225
      13A     -0.690398    14A     -0.650370    15A     -0.598160
      16A     -0.589591    17A     -0.565109    18A     -0.549386
      19A     -0.530887    20A     -0.527499    21A     -0.514196
      22A     -0.474546    23A     -0.431454    24A     -0.364768

  @DF-RHF Final Energy:  -270.10055126006773

   => Energetics <=

    Nuclear Repulsion Energy =            245.0668930604383888
    One-Electron Energy =                -851.9633255551806315
    Two-Electron Energy =                 336.7958812346745390
    Total Energy =                       -270.1005512600677321
  Basis Set: (AUG-CC-PVTZ AUX)
    Blend: AUG-CC-PVTZ-RI
    Molecular point group: c1

    Geometry (in Angstrom), charge = 0, multiplicity = 1:

       Center              X                  Y                   Z               Mass
    ------------   -----------------  -----------------  -----------------  -----------------
         O           -1.236479015434    -0.318818385794     1.183027507432    15.994914619570
         C           -0.657100015434    -0.464127385794    -0.125399492568    12.000000000000
         C            0.847028284566    -0.049941685794    -0.101890092568    12.000000000000
         C           -1.509004015434     0.388483614206    -1.048614492568    12.000000000000
         C            1.109983984566     1.357128614206     0.282123507432    12.000000000000
         C            1.751521984566    -0.965353385794    -0.384987492568    12.000000000000
         H           -0.723885015434    -1.515526385794    -0.446880492568     1.007825032230
         H           -1.123861015434     0.348055614206    -2.071321492568     1.007825032230
         H           -2.538631015434     0.022586614206    -1.039984492568     1.007825032230
         H           -1.513166015434     1.425985614206    -0.707318492568     1.007825032230
         H            0.548495984566     1.635938614206     1.178123507432     1.007825032230
         H            2.177646984566     1.485892614206     0.478087507432     1.007825032230
         H            0.825364984566     2.055038614206    -0.512354492568     1.007825032230
         H            1.502130984566    -1.987026385794    -0.658953492568     1.007825032230
         H            2.807624984566    -0.711357385794    -0.362224492568     1.007825032230
         H           -0.703354015434    -0.869184385794     1.784076507432     1.007825032230

  Basis Set: AUG-CC-PVTZ
    Blend: AUG-CC-PVTZ
  Basis Set: (AUG-CC-PVTZ AUX)
    Blend: AUG-CC-PVTZ-JKFIT
	 Reference Energy          =    -270.1005512600677321 [Eh]
	 Singles Energy            =      -0.0000000000000000 [Eh]
	 Same-Spin Energy          =      -0.2753572182195277 [Eh]
	 Opposite-Spin Energy      =      -0.9500967192139601 [Eh]
	 Correlation Energy        =      -1.2254539374334878 [Eh]
	 Total Energy              =    -271.3260051975012175 [Eh]

	 ================> DF-SCS-MP2 Energies <==================
	-----------------------------------------------------------
	 SCS Same-Spin Scale       =       0.3333333333333333 [-]
	 SCS Opposite-Spin Scale   =       1.2000000000000000 [-]
	 SCS Same-Spin Energy      =      -0.0917857394065092 [Eh]
	 SCS Opposite-Spin Energy  =      -1.1401160630567522 [Eh]
	 SCS Correlation Energy    =      -1.2319018024632613 [Eh]
	 SCS Total Energy          =    -271.3324530625309876 [Eh]
	-----------------------------------------------------------

  Dipole Moment: [D]
     X:     1.1030      Y:    -0.4611      Z:    -0.3835     Total:     1.2555

*** Psi4 exiting successfully. Buy a developer a beer!
