                               Psi4 1.4a3.dev225

  ==> Input File <==

--------------------------------------------------------------------------
#psi4
#
memory 32 gb

molecule  {
0 1
  O       -1.2433940    -0.3366800     1.2074370
  C       -0.6640150    -0.4819890    -0.1009900
  C        0.7919130    -0.0810760    -0.0782340
  C       -1.5159190     0.3706220    -1.0242050
  C        1.1134128     1.3864835     0.3193238
  C        1.7446070    -0.9832150    -0.3605780
  H       -0.7308000    -1.5333880    -0.4224710
  H       -1.1307760     0.3301940    -2.0469120
  H       -2.5455460     0.0047250    -1.0155750
  H       -1.5200810     1.4081240    -0.6829090
  H        0.5415810     1.6180770     1.2025330
  H        2.1707320     1.4680310     0.5024970
  H        0.8184500     2.0371770    -0.4879450
  H        1.4952160    -2.0048880    -0.6345440
  H        2.8007100    -0.7292190    -0.3378150
  H       -0.7102690    -0.8870460     1.8084860
units angstrom
no_reorient  #important for SAPT in psi4, default
symmetry c1  #important for SAPT in psi4, default
}

set PROPERTIES_ORIGIN ["COM"]
properties('MP2/aug-cc-pvtz', properties = ['dipole'])
--------------------------------------------------------------------------

    Molecular point group: c1
  Charge       = 0
  Multiplicity = 1
  Basis Set: AUG-CC-PVTZ
    Blend: AUG-CC-PVTZ
  Basis Set: (AUG-CC-PVTZ AUX)
    Blend: AUG-CC-PVTZ-JKFIT

    Orbital Energies [Eh]
    ---------------------

    Doubly Occupied:

       1A    -20.557956     2A    -11.284647     3A    -11.244598
       4A    -11.223313     5A    -11.219908     6A    -11.214477
       7A     -1.356711     8A     -1.087666     9A     -0.997457
      10A     -0.939705    11A     -0.845767    12A     -0.733475
      13A     -0.690384    14A     -0.648027    15A     -0.595773
      16A     -0.591687    17A     -0.568315    18A     -0.551559
      19A     -0.531374    20A     -0.526349    21A     -0.505293
      22A     -0.479205    23A     -0.437937    24A     -0.360270

  @DF-RHF Final Energy:  -270.10048337379476

   => Energetics <=

    Nuclear Repulsion Energy =            244.5953720274594616
    One-Electron Energy =                -851.0079993635247320
    Two-Electron Energy =                 336.3121439622705111
    Total Energy =                       -270.1004833737947592
  Basis Set: (AUG-CC-PVTZ AUX)
    Blend: AUG-CC-PVTZ-RI
    Molecular point group: c1

    Geometry (in Angstrom), charge = 0, multiplicity = 1:

       Center              X                  Y                   Z               Mass
    ------------   -----------------  -----------------  -----------------  -----------------
         O           -1.231201203234    -0.323550703936     1.181349297968    15.994914619570
         C           -0.651822203234    -0.468859703936    -0.127077702032    12.000000000000
         C            0.804105796766    -0.067946703936    -0.104321702032    12.000000000000
         C           -1.503726203234     0.383751296064    -1.050292702032    12.000000000000
         C            1.125605596766     1.399612796064     0.293236097968    12.000000000000
         C            1.756799796766    -0.970085703936    -0.386665702032    12.000000000000
         H           -0.718607203234    -1.520258703936    -0.448558702032     1.007825032230
         H           -1.118583203234     0.343323296064    -2.072999702032     1.007825032230
         H           -2.533353203234     0.017854296064    -1.041662702032     1.007825032230
         H           -1.507888203234     1.421253296064    -0.708996702032     1.007825032230
         H            0.553773796766     1.631206296064     1.176445297968     1.007825032230
         H            2.182924796766     1.481160296064     0.476409297968     1.007825032230
         H            0.830642796766     2.050306296064    -0.514032702032     1.007825032230
         H            1.507408796766    -1.991758703936    -0.660631702032     1.007825032230
         H            2.812902796766    -0.716089703936    -0.363902702032     1.007825032230
         H           -0.698076203234    -0.873916703936     1.782398297968     1.007825032230

  Basis Set: AUG-CC-PVTZ
    Blend: AUG-CC-PVTZ
  Basis Set: (AUG-CC-PVTZ AUX)
    Blend: AUG-CC-PVTZ-JKFIT
	 Reference Energy          =    -270.1004833737947592 [Eh]
	 Singles Energy            =      -0.0000000000000000 [Eh]
	 Same-Spin Energy          =      -0.2752814292720118 [Eh]
	 Opposite-Spin Energy      =      -0.9504784537649129 [Eh]
	 Correlation Energy        =      -1.2257598830369247 [Eh]
	 Total Energy              =    -271.3262432568316740 [Eh]

	 ================> DF-SCS-MP2 Energies <==================
	-----------------------------------------------------------
	 SCS Same-Spin Scale       =       0.3333333333333333 [-]
	 SCS Opposite-Spin Scale   =       1.2000000000000000 [-]
	 SCS Same-Spin Energy      =      -0.0917604764240039 [Eh]
	 SCS Opposite-Spin Energy  =      -1.1405741445178954 [Eh]
	 SCS Correlation Energy    =      -1.2323346209418993 [Eh]
	 SCS Total Energy          =    -271.3328179947366721 [Eh]
	-----------------------------------------------------------

  Dipole Moment: [D]
     X:     1.1041      Y:    -0.4923      Z:    -0.4043     Total:     1.2747

*** Psi4 exiting successfully. Buy a developer a beer!
