                               Psi4 1.3.2 release

  ==> Input File <==

--------------------------------------------------------------------------
#psi4
#
memory 32 gb

molecule  {
0 1
  O       -1.2547750    -0.3802498     1.1387229
  C       -0.6414680    -0.4631600    -0.1573930
  C        0.8068160    -0.0466880    -0.0850580
  C       -1.4810420     0.4064310    -1.0751840
  C        1.0983630     1.3493650     0.3860570
  C        1.7719920    -0.9222190    -0.3989230
  H       -0.6892000    -1.5071187    -0.5056282
  H       -1.0704880     0.4059060    -2.0885930
  H       -2.5045050     0.0256980    -1.1039840
  H       -1.5089050     1.4302280    -0.6989750
  H        0.5609280     1.5513020     1.3193640
  H        2.1701080     1.4924500     0.5529100
  H        0.7653060     2.0941260    -0.3453770
  H        1.5377490    -1.9244940    -0.7449540
  H        2.8237910    -0.6585230    -0.3492850
  H       -0.7244690    -0.9269870     1.7376420
units angstrom
no_reorient  #important for SAPT in psi4, default
symmetry c1  #important for SAPT in psi4, default
}

set PROPERTIES_ORIGIN ["COM"]
properties('MP2/aug-cc-pvtz', properties = ['dipole'])
--------------------------------------------------------------------------

    Molecular point group: c1
  Charge       = 0
  Multiplicity = 1
  Basis Set: AUG-CC-PVTZ
    Blend: AUG-CC-PVTZ
  Basis Set: (AUG-CC-PVTZ AUX)
    Blend: AUG-CC-PVTZ-JKFIT

    Orbital Energies [Eh]
    ---------------------

    Doubly Occupied:

       1A    -20.556943     2A    -11.284197     3A    -11.242045
       4A    -11.222878     5A    -11.221616     6A    -11.214374
       7A     -1.358131     8A     -1.093636     9A     -0.999095
      10A     -0.938511    11A     -0.846527    12A     -0.735812
      13A     -0.691419    14A     -0.650135    15A     -0.597827
      16A     -0.590841    17A     -0.564387    18A     -0.549176
      19A     -0.531858    20A     -0.523817    21A     -0.511423
      22A     -0.477911    23A     -0.440175    24A     -0.359192

  @DF-RHF Final Energy:  -270.10257492928201

   => Energetics <=

    Nuclear Repulsion Energy =            245.4632777712158429
    One-Electron Energy =                -852.7278560120157636
    Two-Electron Energy =                 337.1620033115178785
    Total Energy =                       -270.1025749292820137
  Basis Set: (AUG-CC-PVTZ AUX)
    Blend: AUG-CC-PVTZ-RI
    Molecular point group: c1

    Geometry (in Angstrom), charge = 0, multiplicity = 1:

       Center              X                  Y                   Z               Mass
    ------------   -----------------  -----------------  -----------------  -----------------
         O           -1.254273943915    -0.377935327473     1.138682725440    15.994914619570
         C           -0.640966943915    -0.460845527473    -0.157433174560    12.000000000000
         C            0.807317056085    -0.044373527473    -0.085098174560    12.000000000000
         C           -1.480540943915     0.408745472527    -1.075224174560    12.000000000000
         C            1.098864056085     1.351679472527     0.386016825440    12.000000000000
         C            1.772493056085    -0.919904527473    -0.398963174560    12.000000000000
         H           -0.688698943915    -1.504804227473    -0.505668374560     1.007825032230
         H           -1.069986943915     0.408220472527    -2.088633174560     1.007825032230
         H           -2.504003943915     0.028012472527    -1.104024174560     1.007825032230
         H           -1.508403943915     1.432542472527    -0.699015174560     1.007825032230
         H            0.561429056085     1.553616472527     1.319323825440     1.007825032230
         H            2.170609056085     1.494764472527     0.552869825440     1.007825032230
         H            0.765807056085     2.096440472527    -0.345417174560     1.007825032230
         H            1.538250056085    -1.922179527473    -0.744994174560     1.007825032230
         H            2.824292056085    -0.656208527473    -0.349325174560     1.007825032230
         H           -0.723967943915    -0.924672527473     1.737601825440     1.007825032230

  Basis Set: AUG-CC-PVTZ
    Blend: AUG-CC-PVTZ
  Basis Set: (AUG-CC-PVTZ AUX)
    Blend: AUG-CC-PVTZ-JKFIT
	 Reference Energy          =    -270.1025749292820137 [Eh]
	 Singles Energy            =      -0.0000000000000000 [Eh]
	 Same-Spin Energy          =      -0.2755398155702650 [Eh]
	 Opposite-Spin Energy      =      -0.9503664033037053 [Eh]
	 Correlation Energy        =      -1.2259062188739702 [Eh]
	 Total Energy              =    -271.3284811481559586 [Eh]

	 ================> DF-SCS-MP2 Energies <==================
	-----------------------------------------------------------
	 SCS Same-Spin Scale       =       0.3333333333333333 [-]
	 SCS Opposite-Spin Scale   =       1.2000000000000000 [-]
	 SCS Same-Spin Energy      =      -0.0918466051900883 [Eh]
	 SCS Opposite-Spin Energy  =      -1.1404396839644462 [Eh]
	 SCS Correlation Energy    =      -1.2322862891545345 [Eh]
	 SCS Total Energy          =    -271.3348612184365720 [Eh]
	-----------------------------------------------------------

  Dipole Moment: [D]
     X:     1.1294      Y:    -0.4157      Z:    -0.3813     Total:     1.2625

*** Psi4 exiting successfully. Buy a developer a beer!
