                               Psi4 1.4a3.dev225

  ==> Input File <==

--------------------------------------------------------------------------
#psi4
#
memory 32 gb

molecule  {
0 1
  O       -1.2433940    -0.3366800     1.2074370
  C       -0.6720713    -0.4799685    -0.0827962
  C        0.7919130    -0.0810760    -0.0782340
  C       -1.5159190     0.3706220    -1.0242050
  C        1.1030690     1.3392670     0.3065330
  C        1.7446070    -0.9832150    -0.3605780
  H       -0.7308000    -1.5333880    -0.4224710
  H       -1.1307760     0.3301940    -2.0469120
  H       -2.5455460     0.0047250    -1.0155750
  H       -1.5200810     1.4081240    -0.6829090
  H        0.5415810     1.6180770     1.2025330
  H        2.1707320     1.4680310     0.5024970
  H        0.8184500     2.0371770    -0.4879450
  H        1.4952160    -2.0048880    -0.6345440
  H        2.8007100    -0.7292190    -0.3378150
  H       -0.7102690    -0.8870460     1.8084860
units angstrom
no_reorient  #important for SAPT in psi4, default
symmetry c1  #important for SAPT in psi4, default
}

set PROPERTIES_ORIGIN ["COM"]
properties('MP2/aug-cc-pvtz', properties = ['dipole'])
--------------------------------------------------------------------------

    Molecular point group: c1
  Charge       = 0
  Multiplicity = 1
  Basis Set: AUG-CC-PVTZ
    Blend: AUG-CC-PVTZ
  Basis Set: (AUG-CC-PVTZ AUX)
    Blend: AUG-CC-PVTZ-JKFIT

    Orbital Energies [Eh]
    ---------------------

    Doubly Occupied:

       1A    -20.560416     2A    -11.284860     3A    -11.242159
       4A    -11.222895     5A    -11.220640     6A    -11.214129
       7A     -1.365025     8A     -1.091126     9A     -0.997110
      10A     -0.937783    11A     -0.845141    12A     -0.736215
      13A     -0.693845    14A     -0.649555    15A     -0.597793
      16A     -0.591792    17A     -0.565814    18A     -0.548559
      19A     -0.532956    20A     -0.523753    21A     -0.512080
      22A     -0.476040    23A     -0.437374    24A     -0.358542

  @DF-RHF Final Energy:  -270.10210315675016

   => Energetics <=

    Nuclear Repulsion Energy =            245.4207625847596717
    One-Electron Energy =                -852.6345239315287472
    Two-Electron Energy =                 337.1116581900188862
    Total Energy =                       -270.1021031567501609
  Basis Set: (AUG-CC-PVTZ AUX)
    Blend: AUG-CC-PVTZ-RI
    Molecular point group: c1

    Geometry (in Angstrom), charge = 0, multiplicity = 1:

       Center              X                  Y                   Z               Mass
    ------------   -----------------  -----------------  -----------------  -----------------
         O           -1.228635929840    -0.317249645989     1.180596031836    15.994914619570
         C           -0.657313229840    -0.460538145989    -0.109637168164    12.000000000000
         C            0.806671070160    -0.061645645989    -0.105074968164    12.000000000000
         C           -1.501160929840     0.390052354011    -1.051045968164    12.000000000000
         C            1.117827070160     1.358697354011     0.279692031836    12.000000000000
         C            1.759365070160    -0.963784645989    -0.387418968164    12.000000000000
         H           -0.716041929840    -1.513957645989    -0.449311968164     1.007825032230
         H           -1.116017929840     0.349624354011    -2.073752968164     1.007825032230
         H           -2.530787929840     0.024155354011    -1.042415968164     1.007825032230
         H           -1.505322929840     1.427554354011    -0.709749968164     1.007825032230
         H            0.556339070160     1.637507354011     1.175692031836     1.007825032230
         H            2.185490070160     1.487461354011     0.475656031836     1.007825032230
         H            0.833208070160     2.056607354011    -0.514785968164     1.007825032230
         H            1.509974070160    -1.985457645989    -0.661384968164     1.007825032230
         H            2.815468070160    -0.709788645989    -0.364655968164     1.007825032230
         H           -0.695510929840    -0.867615645989     1.781645031836     1.007825032230

  Basis Set: AUG-CC-PVTZ
    Blend: AUG-CC-PVTZ
  Basis Set: (AUG-CC-PVTZ AUX)
    Blend: AUG-CC-PVTZ-JKFIT
	 Reference Energy          =    -270.1021031567501609 [Eh]
	 Singles Energy            =      -0.0000000000000000 [Eh]
	 Same-Spin Energy          =      -0.2755473725434244 [Eh]
	 Opposite-Spin Energy      =      -0.9503690279839819 [Eh]
	 Correlation Energy        =      -1.2259164005274064 [Eh]
	 Total Energy              =    -271.3280195572775710 [Eh]

	 ================> DF-SCS-MP2 Energies <==================
	-----------------------------------------------------------
	 SCS Same-Spin Scale       =       0.3333333333333333 [-]
	 SCS Opposite-Spin Scale   =       1.2000000000000000 [-]
	 SCS Same-Spin Energy      =      -0.0918491241811415 [Eh]
	 SCS Opposite-Spin Energy  =      -1.1404428335807784 [Eh]
	 SCS Correlation Energy    =      -1.2322919577619198 [Eh]
	 SCS Total Energy          =    -271.3343951145120627 [Eh]
	-----------------------------------------------------------

  Dipole Moment: [D]
     X:     1.0707      Y:    -0.4733      Z:    -0.3268     Total:     1.2154

*** Psi4 exiting successfully. Buy a developer a beer!
