                               Psi4 1.3.2 release

  ==> Input File <==

--------------------------------------------------------------------------
#psi4
#
memory 32 gb

molecule  {
0 1
  O       -1.2305548    -0.3599771     1.1484653
  C       -0.6414680    -0.4631600    -0.1573930
  C        0.8039989    -0.0422039    -0.0592644
  C       -1.4810420     0.4064310    -1.0751840
  C        1.0983630     1.3493650     0.3860570
  C        1.7719920    -0.9222190    -0.3989230
  H       -0.6847220    -1.5045720    -0.5137440
  H       -1.0704880     0.4059060    -2.0885930
  H       -2.5045050     0.0256980    -1.1039840
  H       -1.5089050     1.4302280    -0.6989750
  H        0.5609280     1.5513020     1.3193640
  H        2.1701080     1.4924500     0.5529100
  H        0.7653060     2.0941260    -0.3453770
  H        1.5377490    -1.9244940    -0.7449540
  H        2.8237910    -0.6585230    -0.3492850
  H       -0.7244690    -0.9269870     1.7376420
units angstrom
no_reorient  #important for SAPT in psi4, default
symmetry c1  #important for SAPT in psi4, default
}

set PROPERTIES_ORIGIN ["COM"]
properties('MP2/aug-cc-pvtz', properties = ['dipole'])
--------------------------------------------------------------------------

    Molecular point group: c1
  Charge       = 0
  Multiplicity = 1
  Basis Set: AUG-CC-PVTZ
    Blend: AUG-CC-PVTZ
  Basis Set: (AUG-CC-PVTZ AUX)
    Blend: AUG-CC-PVTZ-JKFIT

    Orbital Energies [Eh]
    ---------------------

    Doubly Occupied:

       1A    -20.555713     2A    -11.284729     3A    -11.242428
       4A    -11.223186     5A    -11.220641     6A    -11.215094
       7A     -1.359833     8A     -1.092829     9A     -0.999607
      10A     -0.937906    11A     -0.846924    12A     -0.735333
      13A     -0.694446    14A     -0.649467    15A     -0.595947
      16A     -0.591234    17A     -0.565406    18A     -0.550115
      19A     -0.532899    20A     -0.522870    21A     -0.512564
      22A     -0.477647    23A     -0.441059    24A     -0.355335

  @DF-RHF Final Energy:  -270.10173939508275

   => Energetics <=

    Nuclear Repulsion Energy =            245.7140203341050153
    One-Electron Energy =                -853.2250991599061081
    Two-Electron Energy =                 337.4093394307183189
    Total Energy =                       -270.1017393950827454
  Basis Set: (AUG-CC-PVTZ AUX)
    Blend: AUG-CC-PVTZ-RI
    Molecular point group: c1

    Geometry (in Angstrom), charge = 0, multiplicity = 1:

       Center              X                  Y                   Z               Mass
    ------------   -----------------  -----------------  -----------------  -----------------
         O           -1.234214249362    -0.362084864460     1.143113681971    15.994914619570
         C           -0.645127449362    -0.465267764460    -0.162744618029    12.000000000000
         C            0.800339450638    -0.044311664460    -0.064616018029    12.000000000000
         C           -1.484701449362     0.404323235540    -1.080535618029    12.000000000000
         C            1.094703550638     1.347257235540     0.380705381971    12.000000000000
         C            1.768332550638    -0.924326764460    -0.404274618029    12.000000000000
         H           -0.688381449362    -1.506679764460    -0.519095618029     1.007825032230
         H           -1.074147449362     0.403798235540    -2.093944618029     1.007825032230
         H           -2.508164449362     0.023590235540    -1.109335618029     1.007825032230
         H           -1.512564449362     1.428120235540    -0.704326618029     1.007825032230
         H            0.557268550638     1.549194235540     1.314012381971     1.007825032230
         H            2.166448550638     1.490342235540     0.547558381971     1.007825032230
         H            0.761646550638     2.092018235540    -0.350728618029     1.007825032230
         H            1.534089550638    -1.926601764460    -0.750305618029     1.007825032230
         H            2.820131550638    -0.660630764460    -0.354636618029     1.007825032230
         H           -0.728128449362    -0.929094764460     1.732290381971     1.007825032230

  Basis Set: AUG-CC-PVTZ
    Blend: AUG-CC-PVTZ
  Basis Set: (AUG-CC-PVTZ AUX)
    Blend: AUG-CC-PVTZ-JKFIT
	 Reference Energy          =    -270.1017393950827454 [Eh]
	 Singles Energy            =      -0.0000000000000000 [Eh]
	 Same-Spin Energy          =      -0.2756747750887416 [Eh]
	 Opposite-Spin Energy      =      -0.9504610446204842 [Eh]
	 Correlation Energy        =      -1.2261358197092258 [Eh]
	 Total Energy              =    -271.3278752147919590 [Eh]

	 ================> DF-SCS-MP2 Energies <==================
	-----------------------------------------------------------
	 SCS Same-Spin Scale       =       0.3333333333333333 [-]
	 SCS Opposite-Spin Scale   =       1.2000000000000000 [-]
	 SCS Same-Spin Energy      =      -0.0918915916962472 [Eh]
	 SCS Opposite-Spin Energy  =      -1.1405532535445810 [Eh]
	 SCS Correlation Energy    =      -1.2324448452408283 [Eh]
	 SCS Total Energy          =    -271.3341842403235660 [Eh]
	-----------------------------------------------------------

  Dipole Moment: [D]
     X:     1.0461      Y:    -0.4416      Z:    -0.4202     Total:     1.2107

*** Psi4 exiting successfully. Buy a developer a beer!
