                               Psi4 1.4a3.dev225

  ==> Input File <==

--------------------------------------------------------------------------
#psi4
#
memory 32 gb

molecule  {
0 1
  O       -1.2433940    -0.3366800     1.2074370
  C       -0.6640150    -0.4819890    -0.1009900
  C        0.7919130    -0.0810760    -0.0782340
  C       -1.5159190     0.3706220    -1.0242050
  C        1.1030690     1.3392670     0.3065330
  C        1.7801000    -1.0168245    -0.3710968
  H       -0.7308000    -1.5333880    -0.4224710
  H       -1.1307760     0.3301940    -2.0469120
  H       -2.5455460     0.0047250    -1.0155750
  H       -1.5200810     1.4081240    -0.6829090
  H        0.5415810     1.6180770     1.2025330
  H        2.1707320     1.4680310     0.5024970
  H        0.8184500     2.0371770    -0.4879450
  H        1.4952160    -2.0048880    -0.6345440
  H        2.8007100    -0.7292190    -0.3378150
  H       -0.7102690    -0.8870460     1.8084860
units angstrom
no_reorient  #important for SAPT in psi4, default
symmetry c1  #important for SAPT in psi4, default
}

set PROPERTIES_ORIGIN ["COM"]
properties('MP2/aug-cc-pvtz', properties = ['dipole'])
--------------------------------------------------------------------------

    Molecular point group: c1
  Charge       = 0
  Multiplicity = 1
  Basis Set: AUG-CC-PVTZ
    Blend: AUG-CC-PVTZ
  Basis Set: (AUG-CC-PVTZ AUX)
    Blend: AUG-CC-PVTZ-JKFIT

    Orbital Energies [Eh]
    ---------------------

    Doubly Occupied:

       1A    -20.558524     2A    -11.285597     3A    -11.251045
       4A    -11.225550     5A    -11.222147     6A    -11.215008
       7A     -1.357356     8A     -1.086743     9A     -0.997383
      10A     -0.937453    11A     -0.848546    12A     -0.736058
      13A     -0.691741    14A     -0.647868    15A     -0.601787
      16A     -0.590446    17A     -0.564765    18A     -0.549277
      19A     -0.531759    20A     -0.525632    21A     -0.513795
      22A     -0.479190    23A     -0.442106    24A     -0.348208

  @DF-RHF Final Energy:  -270.09668204406699

   => Energetics <=

    Nuclear Repulsion Energy =            244.4616717184936761
    One-Electron Energy =                -850.7007413173103032
    Two-Electron Energy =                 336.1423875547496323
    Total Energy =                       -270.0966820440669949
  Basis Set: (AUG-CC-PVTZ AUX)
    Blend: AUG-CC-PVTZ-RI
    Molecular point group: c1

    Geometry (in Angstrom), charge = 0, multiplicity = 1:

       Center              X                  Y                   Z               Mass
    ------------   -----------------  -----------------  -----------------  -----------------
         O           -1.234707411008    -0.312282244125     1.184599035562    15.994914619570
         C           -0.655328411008    -0.457591244125    -0.123827964438    12.000000000000
         C            0.800599588992    -0.056678244125    -0.101071964438    12.000000000000
         C           -1.507232411008     0.395019755875    -1.047042964438    12.000000000000
         C            1.111755588992     1.363664755875     0.283695035562    12.000000000000
         C            1.788786588992    -0.992426744125    -0.393934764438    12.000000000000
         H           -0.722113411008    -1.508990244125    -0.445308964438     1.007825032230
         H           -1.122089411008     0.354591755875    -2.069749964438     1.007825032230
         H           -2.536859411008     0.029122755875    -1.038412964438     1.007825032230
         H           -1.511394411008     1.432521755875    -0.705746964438     1.007825032230
         H            0.550267588992     1.642474755875     1.179695035562     1.007825032230
         H            2.179418588992     1.492428755875     0.479659035562     1.007825032230
         H            0.827136588992     2.061574755875    -0.510782964438     1.007825032230
         H            1.503902588992    -1.980490244125    -0.657381964438     1.007825032230
         H            2.809396588992    -0.704821244125    -0.360652964438     1.007825032230
         H           -0.701582411008    -0.862648244125     1.785648035562     1.007825032230

  Basis Set: AUG-CC-PVTZ
    Blend: AUG-CC-PVTZ
  Basis Set: (AUG-CC-PVTZ AUX)
    Blend: AUG-CC-PVTZ-JKFIT
	 Reference Energy          =    -270.0966820440669949 [Eh]
	 Singles Energy            =      -0.0000000000000000 [Eh]
	 Same-Spin Energy          =      -0.2760657331905798 [Eh]
	 Opposite-Spin Energy      =      -0.9519150689952010 [Eh]
	 Correlation Energy        =      -1.2279808021857808 [Eh]
	 Total Energy              =    -271.3246628462527497 [Eh]

	 ================> DF-SCS-MP2 Energies <==================
	-----------------------------------------------------------
	 SCS Same-Spin Scale       =       0.3333333333333333 [-]
	 SCS Opposite-Spin Scale   =       1.2000000000000000 [-]
	 SCS Same-Spin Energy      =      -0.0920219110635266 [Eh]
	 SCS Opposite-Spin Energy  =      -1.1422980827942411 [Eh]
	 SCS Correlation Energy    =      -1.2343199938577676 [Eh]
	 SCS Total Energy          =    -271.3310020379247476 [Eh]
	-----------------------------------------------------------

  Dipole Moment: [D]
     X:     1.0825      Y:    -0.4440      Z:    -0.3918     Total:     1.2338

*** Psi4 exiting successfully. Buy a developer a beer!
