                               Psi4 1.3.2 release

  ==> Input File <==

--------------------------------------------------------------------------
#psi4
#
memory 32 gb

molecule  {
0 1
  O       -1.2523610    -0.3679540     1.1390180
  C       -0.6840006    -0.4565314    -0.0671321
  C        0.8068160    -0.0466880    -0.0850580
  C       -1.4810420     0.4064310    -1.0751840
  C        1.0983630     1.3493650     0.3860570
  C        1.7719920    -0.9222190    -0.3989230
  H       -0.6847220    -1.5045720    -0.5137440
  H       -1.0704880     0.4059060    -2.0885930
  H       -2.5045050     0.0256980    -1.1039840
  H       -1.5089050     1.4302280    -0.6989750
  H        0.5609280     1.5513020     1.3193640
  H        2.1701080     1.4924500     0.5529100
  H        0.7653060     2.0941260    -0.3453770
  H        1.5377490    -1.9244940    -0.7449540
  H        2.8237910    -0.6585230    -0.3492850
  H       -0.7244690    -0.9269870     1.7376420
units angstrom
no_reorient  #important for SAPT in psi4, default
symmetry c1  #important for SAPT in psi4, default
}

set PROPERTIES_ORIGIN ["COM"]
properties('MP2/aug-cc-pvtz', properties = ['dipole'])
--------------------------------------------------------------------------

    Molecular point group: c1
  Charge       = 0
  Multiplicity = 1
  Basis Set: AUG-CC-PVTZ
    Blend: AUG-CC-PVTZ
  Basis Set: (AUG-CC-PVTZ AUX)
    Blend: AUG-CC-PVTZ-JKFIT

    Orbital Energies [Eh]
    ---------------------

    Doubly Occupied:

       1A    -20.570185     2A    -11.286726     3A    -11.239569
       4A    -11.219825     5A    -11.219593     6A    -11.212846
       7A     -1.402819     8A     -1.085231     9A     -0.991622
      10A     -0.935251    11A     -0.842327    12A     -0.749874
      13A     -0.700238    14A     -0.651540    15A     -0.610364
      16A     -0.590908    17A     -0.570810    18A     -0.549334
      19A     -0.538882    20A     -0.526205    21A     -0.514171
      22A     -0.462454    23A     -0.422913    24A     -0.356211

  @DF-RHF Final Energy:  -270.09422574265568

   => Energetics <=

    Nuclear Repulsion Energy =            245.9918077181191904
    One-Electron Energy =                -853.6722694779390395
    Two-Electron Energy =                 337.5862360171641967
    Total Energy =                       -270.0942257426556807
  Basis Set: (AUG-CC-PVTZ AUX)
    Blend: AUG-CC-PVTZ-RI
    Molecular point group: c1

    Geometry (in Angstrom), charge = 0, multiplicity = 1:

       Center              X                  Y                   Z               Mass
    ------------   -----------------  -----------------  -----------------  -----------------
         O           -1.246431231773    -0.368878401045     1.126434176167    15.994914619570
         C           -0.678070831773    -0.457455801045    -0.079715923833    12.000000000000
         C            0.812745768227    -0.047612401045    -0.097641823833    12.000000000000
         C           -1.475112231773     0.405506598955    -1.087767823833    12.000000000000
         C            1.104292768227     1.348440598955     0.373473176167    12.000000000000
         C            1.777921768227    -0.923143401045    -0.411506823833    12.000000000000
         H           -0.678792231773    -1.505496401045    -0.526327823833     1.007825032230
         H           -1.064558231773     0.404981598955    -2.101176823833     1.007825032230
         H           -2.498575231773     0.024773598955    -1.116567823833     1.007825032230
         H           -1.502975231773     1.429303598955    -0.711558823833     1.007825032230
         H            0.566857768227     1.550377598955     1.306780176167     1.007825032230
         H            2.176037768227     1.491525598955     0.540326176167     1.007825032230
         H            0.771235768227     2.093201598955    -0.357960823833     1.007825032230
         H            1.543678768227    -1.925418401045    -0.757537823833     1.007825032230
         H            2.829720768227    -0.659447401045    -0.361868823833     1.007825032230
         H           -0.718539231773    -0.927911401045     1.725058176167     1.007825032230

  Basis Set: AUG-CC-PVTZ
    Blend: AUG-CC-PVTZ
  Basis Set: (AUG-CC-PVTZ AUX)
    Blend: AUG-CC-PVTZ-JKFIT
	 Reference Energy          =    -270.0942257426556807 [Eh]
	 Singles Energy            =      -0.0000000000000000 [Eh]
	 Same-Spin Energy          =      -0.2755018288737407 [Eh]
	 Opposite-Spin Energy      =      -0.9494029581604466 [Eh]
	 Correlation Energy        =      -1.2249047870341874 [Eh]
	 Total Energy              =    -271.3191305296898577 [Eh]

	 ================> DF-SCS-MP2 Energies <==================
	-----------------------------------------------------------
	 SCS Same-Spin Scale       =       0.3333333333333333 [-]
	 SCS Opposite-Spin Scale   =       1.2000000000000000 [-]
	 SCS Same-Spin Energy      =      -0.0918339429579136 [Eh]
	 SCS Opposite-Spin Energy  =      -1.1392835497925360 [Eh]
	 SCS Correlation Energy    =      -1.2311174927504496 [Eh]
	 SCS Total Energy          =    -271.3253432354061374 [Eh]
	-----------------------------------------------------------

  Dipole Moment: [D]
     X:     0.9349      Y:    -0.4475      Z:    -0.0081     Total:     1.0365

*** Psi4 exiting successfully. Buy a developer a beer!
