                               Psi4 1.3.2 release

  ==> Input File <==

--------------------------------------------------------------------------
#psi4
#
memory 32 gb

molecule  {
0 1
  O       -1.2523610    -0.3679540     1.1390180
  C       -0.6414680    -0.4631600    -0.1573930
  C        0.7963069    -0.0076172    -0.1187662
  C       -1.4378630     0.4351871    -1.0859084
  C        1.0983630     1.3493650     0.3860570
  C        1.7719920    -0.9222190    -0.3989230
  H       -0.6847220    -1.5045720    -0.5137440
  H       -1.0704880     0.4059060    -2.0885930
  H       -2.5045050     0.0256980    -1.1039840
  H       -1.5089050     1.4302280    -0.6989750
  H        0.5609280     1.5513020     1.3193640
  H        2.1701080     1.4924500     0.5529100
  H        0.7653060     2.0941260    -0.3453770
  H        1.5377490    -1.9244940    -0.7449540
  H        2.8237910    -0.6585230    -0.3492850
  H       -0.7244690    -0.9269870     1.7376420
units angstrom
no_reorient  #important for SAPT in psi4, default
symmetry c1  #important for SAPT in psi4, default
}

set PROPERTIES_ORIGIN ["COM"]
properties('MP2/aug-cc-pvtz', properties = ['dipole'])
--------------------------------------------------------------------------

    Molecular point group: c1
  Charge       = 0
  Multiplicity = 1
  Basis Set: AUG-CC-PVTZ
    Blend: AUG-CC-PVTZ
  Basis Set: (AUG-CC-PVTZ AUX)
    Blend: AUG-CC-PVTZ-JKFIT

    Orbital Energies [Eh]
    ---------------------

    Doubly Occupied:

       1A    -20.559989     2A    -11.285105     3A    -11.244206
       4A    -11.224744     5A    -11.221150     6A    -11.214134
       7A     -1.358360     8A     -1.094283     9A     -0.998859
      10A     -0.937916    11A     -0.844966    12A     -0.736599
      13A     -0.693399    14A     -0.648847    15A     -0.594271
      16A     -0.591460    17A     -0.569165    18A     -0.547900
      19A     -0.543222    20A     -0.520993    21A     -0.509779
      22A     -0.474734    23A     -0.441890    24A     -0.351118

  @DF-RHF Final Energy:  -270.09536077151586

   => Energetics <=

    Nuclear Repulsion Energy =            245.6501205287052017
    One-Electron Energy =                -853.0767796412525286
    Two-Electron Energy =                 337.3312983410314700
    Total Energy =                       -270.0953607715158569
  Basis Set: (AUG-CC-PVTZ AUX)
    Blend: AUG-CC-PVTZ-RI
    Molecular point group: c1

    Geometry (in Angstrom), charge = 0, multiplicity = 1:

       Center              X                  Y                   Z               Mass
    ------------   -----------------  -----------------  -----------------  -----------------
         O           -1.256915684164    -0.377410440043     1.145212642151    15.994914619570
         C           -0.646022684164    -0.472616440043    -0.151198357849    12.000000000000
         C            0.791752215836    -0.017073640043    -0.112571557849    12.000000000000
         C           -1.442417684164     0.425730659957    -1.079713757849    12.000000000000
         C            1.093808315836     1.339908559957     0.392251642151    12.000000000000
         C            1.767437315836    -0.931675440043    -0.392728357849    12.000000000000
         H           -0.689276684164    -1.514028440043    -0.507549357849     1.007825032230
         H           -1.075042684164     0.396449559957    -2.082398357849     1.007825032230
         H           -2.509059684164     0.016241559957    -1.097789357849     1.007825032230
         H           -1.513459684164     1.420771559957    -0.692780357849     1.007825032230
         H            0.556373315836     1.541845559957     1.325558642151     1.007825032230
         H            2.165553315836     1.482993559957     0.559104642151     1.007825032230
         H            0.760751315836     2.084669559957    -0.339182357849     1.007825032230
         H            1.533194315836    -1.933950440043    -0.738759357849     1.007825032230
         H            2.819236315836    -0.667979440043    -0.343090357849     1.007825032230
         H           -0.729023684164    -0.936443440043     1.743836642151     1.007825032230

  Basis Set: AUG-CC-PVTZ
    Blend: AUG-CC-PVTZ
  Basis Set: (AUG-CC-PVTZ AUX)
    Blend: AUG-CC-PVTZ-JKFIT
	 Reference Energy          =    -270.0953607715158569 [Eh]
	 Singles Energy            =      -0.0000000000000000 [Eh]
	 Same-Spin Energy          =      -0.2763229191594748 [Eh]
	 Opposite-Spin Energy      =      -0.9518855247288985 [Eh]
	 Correlation Energy        =      -1.2282084438883734 [Eh]
	 Total Energy              =    -271.3235692154042340 [Eh]

	 ================> DF-SCS-MP2 Energies <==================
	-----------------------------------------------------------
	 SCS Same-Spin Scale       =       0.3333333333333333 [-]
	 SCS Opposite-Spin Scale   =       1.2000000000000000 [-]
	 SCS Same-Spin Energy      =      -0.0921076397198249 [Eh]
	 SCS Opposite-Spin Energy  =      -1.1422626296746783 [Eh]
	 SCS Correlation Energy    =      -1.2343702693945031 [Eh]
	 SCS Total Energy          =    -271.3297310409103602 [Eh]
	-----------------------------------------------------------

  Dipole Moment: [D]
     X:     1.1078      Y:    -0.4153      Z:    -0.3138     Total:     1.2240

*** Psi4 exiting successfully. Buy a developer a beer!
