                               Psi4 1.3.2 release

  ==> Input File <==

--------------------------------------------------------------------------
#psi4
#
memory 32 gb

molecule  {
0 1
  O       -1.2523610    -0.3679540     1.1390180
  C       -0.6414680    -0.4631600    -0.1573930
  C        0.8068160    -0.0466880    -0.0850580
  C       -1.4810420     0.4064310    -1.0751840
  C        1.1177740     1.4423131     0.4174235
  C        1.7719920    -0.9222190    -0.3989230
  H       -0.6847220    -1.5045720    -0.5137440
  H       -1.0704880     0.4059060    -2.0885930
  H       -2.5045050     0.0256980    -1.1039840
  H       -1.5089050     1.4302280    -0.6989750
  H        0.5609280     1.5513020     1.3193640
  H        2.1701080     1.4924500     0.5529100
  H        0.7653060     2.0941260    -0.3453770
  H        1.5377490    -1.9244940    -0.7449540
  H        2.8237910    -0.6585230    -0.3492850
  H       -0.7244690    -0.9269870     1.7376420
units angstrom
no_reorient  #important for SAPT in psi4, default
symmetry c1  #important for SAPT in psi4, default
}

set PROPERTIES_ORIGIN ["COM"]
properties('MP2/aug-cc-pvtz', properties = ['dipole'])
--------------------------------------------------------------------------

    Molecular point group: c1
  Charge       = 0
  Multiplicity = 1
  Basis Set: AUG-CC-PVTZ
    Blend: AUG-CC-PVTZ
  Basis Set: (AUG-CC-PVTZ AUX)
    Blend: AUG-CC-PVTZ-JKFIT

    Orbital Energies [Eh]
    ---------------------

    Doubly Occupied:

       1A    -20.557986     2A    -11.284242     3A    -11.245484
       4A    -11.222415     5A    -11.219952     6A    -11.214234
       7A     -1.357221     8A     -1.084009     9A     -0.996783
      10A     -0.941026    11A     -0.845664    12A     -0.732869
      13A     -0.689769    14A     -0.647160    15A     -0.595598
      16A     -0.592699    17A     -0.571955    18A     -0.557619
      19A     -0.532410    20A     -0.526947    21A     -0.497840
      22A     -0.479201    23A     -0.434565    24A     -0.361266

  @DF-RHF Final Energy:  -270.09534431510679

   => Energetics <=

    Nuclear Repulsion Energy =            244.0515876898414263
    One-Electron Energy =                -849.9160363950854844
    Two-Electron Energy =                 335.7691043901372723
    Total Energy =                       -270.0953443151067859
  Basis Set: (AUG-CC-PVTZ AUX)
    Blend: AUG-CC-PVTZ-RI
    Molecular point group: c1

    Geometry (in Angstrom), charge = 0, multiplicity = 1:

       Center              X                  Y                   Z               Mass
    ------------   -----------------  -----------------  -----------------  -----------------
         O           -1.255067177721    -0.380912744161     1.134645014010    15.994914619570
         C           -0.644174177721    -0.476118744161    -0.161765985990    12.000000000000
         C            0.804109822279    -0.059646744161    -0.089430985990    12.000000000000
         C           -1.483748177721     0.393472255839    -1.079556985990    12.000000000000
         C            1.115067822279     1.429354355839     0.413050514010    12.000000000000
         C            1.769285822279    -0.935177744161    -0.403295985990    12.000000000000
         H           -0.687428177721    -1.517530744161    -0.518116985990     1.007825032230
         H           -1.073194177721     0.392947255839    -2.092965985990     1.007825032230
         H           -2.507211177721     0.012739255839    -1.108356985990     1.007825032230
         H           -1.511611177721     1.417269255839    -0.703347985990     1.007825032230
         H            0.558221822279     1.538343255839     1.314991014010     1.007825032230
         H            2.167401822279     1.479491255839     0.548537014010     1.007825032230
         H            0.762599822279     2.081167255839    -0.349749985990     1.007825032230
         H            1.535042822279    -1.937452744161    -0.749326985990     1.007825032230
         H            2.821084822279    -0.671481744161    -0.353657985990     1.007825032230
         H           -0.727175177721    -0.939945744161     1.733269014010     1.007825032230

  Basis Set: AUG-CC-PVTZ
    Blend: AUG-CC-PVTZ
  Basis Set: (AUG-CC-PVTZ AUX)
    Blend: AUG-CC-PVTZ-JKFIT
	 Reference Energy          =    -270.0953443151067859 [Eh]
	 Singles Energy            =      -0.0000000000000000 [Eh]
	 Same-Spin Energy          =      -0.2751258691905495 [Eh]
	 Opposite-Spin Energy      =      -0.9504505464575060 [Eh]
	 Correlation Energy        =      -1.2255764156480555 [Eh]
	 Total Energy              =    -271.3209207307548354 [Eh]

	 ================> DF-SCS-MP2 Energies <==================
	-----------------------------------------------------------
	 SCS Same-Spin Scale       =       0.3333333333333333 [-]
	 SCS Opposite-Spin Scale   =       1.2000000000000000 [-]
	 SCS Same-Spin Energy      =      -0.0917086230635165 [Eh]
	 SCS Opposite-Spin Energy  =      -1.1405406557490072 [Eh]
	 SCS Correlation Energy    =      -1.2322492788125237 [Eh]
	 SCS Total Energy          =    -271.3275935939192891 [Eh]
	-----------------------------------------------------------

  Dipole Moment: [D]
     X:     1.1150      Y:    -0.4806      Z:    -0.3945     Total:     1.2767

*** Psi4 exiting successfully. Buy a developer a beer!
