                               Psi4 1.3.2 release

  ==> Input File <==

--------------------------------------------------------------------------
#psi4
#
memory 32 gb

molecule  {
0 1
  O       -1.2523610    -0.3679540     1.1390180
  C       -0.6414680    -0.4631600    -0.1573930
  C        0.9028108    -0.0190835    -0.0802635
  C       -1.4810420     0.4064310    -1.0751840
  C        1.0983630     1.3493650     0.3860570
  C        1.7719920    -0.9222190    -0.3989230
  H       -0.6847220    -1.5045720    -0.5137440
  H       -1.0704880     0.4059060    -2.0885930
  H       -2.5045050     0.0256980    -1.1039840
  H       -1.5089050     1.4302280    -0.6989750
  H        0.5609280     1.5513020     1.3193640
  H        2.1701080     1.4924500     0.5529100
  H        0.7653060     2.0941260    -0.3453770
  H        1.5377490    -1.9244940    -0.7449540
  H        2.8237910    -0.6585230    -0.3492850
  H       -0.7244690    -0.9269870     1.7376420
units angstrom
no_reorient  #important for SAPT in psi4, default
symmetry c1  #important for SAPT in psi4, default
}

set PROPERTIES_ORIGIN ["COM"]
properties('MP2/aug-cc-pvtz', properties = ['dipole'])
--------------------------------------------------------------------------

    Molecular point group: c1
  Charge       = 0
  Multiplicity = 1
  Basis Set: AUG-CC-PVTZ
    Blend: AUG-CC-PVTZ
  Basis Set: (AUG-CC-PVTZ AUX)
    Blend: AUG-CC-PVTZ-JKFIT

    Orbital Energies [Eh]
    ---------------------

    Doubly Occupied:

       1A    -20.557182     2A    -11.286298     3A    -11.237054
       4A    -11.220429     5A    -11.215713     6A    -11.212603
       7A     -1.354453     8A     -1.096350     9A     -0.999256
      10A     -0.948244    11A     -0.832556    12A     -0.730133
      13A     -0.690069    14A     -0.651281    15A     -0.599315
      16A     -0.589118    17A     -0.566002    18A     -0.551587
      19A     -0.535305    20A     -0.528943    21A     -0.514672
      22A     -0.470909    23A     -0.419773    24A     -0.370550

  @DF-RHF Final Energy:  -270.09375259409609

   => Energetics <=

    Nuclear Repulsion Energy =            244.9998028063451443
    One-Electron Energy =                -851.8315197411076269
    Two-Electron Energy =                 336.7379643406663376
    Total Energy =                       -270.0937525940960882
  Basis Set: (AUG-CC-PVTZ AUX)
    Blend: AUG-CC-PVTZ-RI
    Molecular point group: c1

    Geometry (in Angstrom), charge = 0, multiplicity = 1:

       Center              X                  Y                   Z               Mass
    ------------   -----------------  -----------------  -----------------  -----------------
         O           -1.265744205812    -0.371802782879     1.138349583259    15.994914619570
         C           -0.654851205812    -0.467008782879    -0.158061416741    12.000000000000
         C            0.889427594188    -0.022932282879    -0.080931916741    12.000000000000
         C           -1.494425205812     0.402582217121    -1.075852416741    12.000000000000
         C            1.084979794188     1.345516217121     0.385388583259    12.000000000000
         C            1.758608794188    -0.926067782879    -0.399591416741    12.000000000000
         H           -0.698105205812    -1.508420782879    -0.514412416741     1.007825032230
         H           -1.083871205812     0.402057217121    -2.089261416741     1.007825032230
         H           -2.517888205812     0.021849217121    -1.104652416741     1.007825032230
         H           -1.522288205812     1.426379217121    -0.699643416741     1.007825032230
         H            0.547544794188     1.547453217121     1.318695583259     1.007825032230
         H            2.156724794188     1.488601217121     0.552241583259     1.007825032230
         H            0.751922794188     2.090277217121    -0.346045416741     1.007825032230
         H            1.524365794188    -1.928342782879    -0.745622416741     1.007825032230
         H            2.810407794188    -0.662371782879    -0.349953416741     1.007825032230
         H           -0.737852205812    -0.930835782879     1.736973583259     1.007825032230

  Basis Set: AUG-CC-PVTZ
    Blend: AUG-CC-PVTZ
  Basis Set: (AUG-CC-PVTZ AUX)
    Blend: AUG-CC-PVTZ-JKFIT
	 Reference Energy          =    -270.0937525940960882 [Eh]
	 Singles Energy            =      -0.0000000000000000 [Eh]
	 Same-Spin Energy          =      -0.2753691573360491 [Eh]
	 Opposite-Spin Energy      =      -0.9498737879742920 [Eh]
	 Correlation Energy        =      -1.2252429453103411 [Eh]
	 Total Energy              =    -271.3189955394064441 [Eh]

	 ================> DF-SCS-MP2 Energies <==================
	-----------------------------------------------------------
	 SCS Same-Spin Scale       =       0.3333333333333333 [-]
	 SCS Opposite-Spin Scale   =       1.2000000000000000 [-]
	 SCS Same-Spin Energy      =      -0.0917897191120163 [Eh]
	 SCS Opposite-Spin Energy  =      -1.1398485455691503 [Eh]
	 SCS Correlation Energy    =      -1.2316382646811666 [Eh]
	 SCS Total Energy          =    -271.3253908587772685 [Eh]
	-----------------------------------------------------------

  Dipole Moment: [D]
     X:     1.1141      Y:    -0.4170      Z:    -0.3464     Total:     1.2390

*** Psi4 exiting successfully. Buy a developer a beer!
