                               Psi4 1.3.2 release

  ==> Input File <==

--------------------------------------------------------------------------
#psi4
#
memory 32 gb

molecule  {
0 1
  O       -1.2523610    -0.3679540     1.1390180
  C       -0.6414680    -0.4631600    -0.1573930
  C        0.8068160    -0.0466880    -0.0850580
  C       -1.4779482     0.4170328    -1.0678735
  C        1.0983630     1.3493650     0.3860570
  C        1.7719920    -0.9222190    -0.3989230
  H       -0.6789694    -1.5072388    -0.5065190
  H       -1.0704880     0.4059060    -2.0885930
  H       -2.5045050     0.0256980    -1.1039840
  H       -1.5089050     1.4302280    -0.6989750
  H        0.5609280     1.5513020     1.3193640
  H        2.1701080     1.4924500     0.5529100
  H        0.7653060     2.0941260    -0.3453770
  H        1.5377490    -1.9244940    -0.7449540
  H        2.8237910    -0.6585230    -0.3492850
  H       -0.7244690    -0.9269870     1.7376420
units angstrom
no_reorient  #important for SAPT in psi4, default
symmetry c1  #important for SAPT in psi4, default
}

set PROPERTIES_ORIGIN ["COM"]
properties('MP2/aug-cc-pvtz', properties = ['dipole'])
--------------------------------------------------------------------------

    Molecular point group: c1
  Charge       = 0
  Multiplicity = 1
  Basis Set: AUG-CC-PVTZ
    Blend: AUG-CC-PVTZ
  Basis Set: (AUG-CC-PVTZ AUX)
    Blend: AUG-CC-PVTZ-JKFIT

    Orbital Energies [Eh]
    ---------------------

    Doubly Occupied:

       1A    -20.557788     2A    -11.284282     3A    -11.241673
       4A    -11.222628     5A    -11.221360     6A    -11.214308
       7A     -1.357459     8A     -1.093460     9A     -0.998663
      10A     -0.938438    11A     -0.846590    12A     -0.734699
      13A     -0.691773    14A     -0.649861    15A     -0.597732
      16A     -0.590402    17A     -0.565611    18A     -0.547807
      19A     -0.530893    20A     -0.523180    21A     -0.511399
      22A     -0.479293    23A     -0.440154    24A     -0.358984

  @DF-RHF Final Energy:  -270.10191863679347

   => Energetics <=

    Nuclear Repulsion Energy =            245.5636235078895027
    One-Electron Energy =                -852.9342130359215162
    Two-Electron Energy =                 337.2686708912385711
    Total Energy =                       -270.1019186367934708
  Basis Set: (AUG-CC-PVTZ AUX)
    Blend: AUG-CC-PVTZ-RI
    Molecular point group: c1

    Geometry (in Angstrom), charge = 0, multiplicity = 1:

       Center              X                  Y                   Z               Mass
    ------------   -----------------  -----------------  -----------------  -----------------
         O           -1.252859651300    -0.369401104401     1.137914214862    15.994914619570
         C           -0.641966651300    -0.464607104401    -0.158496785138    12.000000000000
         C            0.806317348700    -0.048135104401    -0.086161785138    12.000000000000
         C           -1.478446851300     0.415585695599    -1.068977285138    12.000000000000
         C            1.097864348700     1.347917895599     0.384953214862    12.000000000000
         C            1.771493348700    -0.923666104401    -0.400026785138    12.000000000000
         H           -0.679468051300    -1.508685904401    -0.507622785138     1.007825032230
         H           -1.070986651300     0.404458895599    -2.089696785138     1.007825032230
         H           -2.505003651300     0.024250895599    -1.105087785138     1.007825032230
         H           -1.509403651300     1.428780895599    -0.700078785138     1.007825032230
         H            0.560429348700     1.549854895599     1.318260214862     1.007825032230
         H            2.169609348700     1.491002895599     0.551806214862     1.007825032230
         H            0.764807348700     2.092678895599    -0.346480785138     1.007825032230
         H            1.537250348700    -1.925941104401    -0.746057785138     1.007825032230
         H            2.823292348700    -0.659970104401    -0.350388785138     1.007825032230
         H           -0.724967651300    -0.928434104401     1.736538214862     1.007825032230

  Basis Set: AUG-CC-PVTZ
    Blend: AUG-CC-PVTZ
  Basis Set: (AUG-CC-PVTZ AUX)
    Blend: AUG-CC-PVTZ-JKFIT
	 Reference Energy          =    -270.1019186367934708 [Eh]
	 Singles Energy            =      -0.0000000000000000 [Eh]
	 Same-Spin Energy          =      -0.2756702015846982 [Eh]
	 Opposite-Spin Energy      =      -0.9506323405482731 [Eh]
	 Correlation Energy        =      -1.2263025421329714 [Eh]
	 Total Energy              =    -271.3282211789264693 [Eh]

	 ================> DF-SCS-MP2 Energies <==================
	-----------------------------------------------------------
	 SCS Same-Spin Scale       =       0.3333333333333333 [-]
	 SCS Opposite-Spin Scale   =       1.2000000000000000 [-]
	 SCS Same-Spin Energy      =      -0.0918900671948994 [Eh]
	 SCS Opposite-Spin Energy  =      -1.1407588086579277 [Eh]
	 SCS Correlation Energy    =      -1.2326488758528271 [Eh]
	 SCS Total Energy          =    -271.3345675126462879 [Eh]
	-----------------------------------------------------------

  Dipole Moment: [D]
     X:     1.1140      Y:    -0.4352      Z:    -0.3744     Total:     1.2533

*** Psi4 exiting successfully. Buy a developer a beer!
