                               Psi4 1.3.2 release

  ==> Input File <==

--------------------------------------------------------------------------
#psi4
#
memory 32 gb

molecule  {
0 1
  O       -1.2523610    -0.3679540     1.1390180
  C       -0.6414680    -0.4631600    -0.1573930
  C        0.8068160    -0.0466880    -0.0850580
  C       -1.4810420     0.4064310    -1.0751840
  C        1.0983630     1.3493650     0.3860570
  C        1.7719920    -0.9222190    -0.3989230
  H       -0.6847220    -1.5045720    -0.5137440
  H       -1.0704880     0.4059060    -2.0885930
  H       -2.5045050     0.0256980    -1.1039840
  H       -1.5089050     1.4302280    -0.6989750
  H        0.5609280     1.5513020     1.3193640
  H        2.1701080     1.4924500     0.5529100
  H        0.7653060     2.0941260    -0.3453770
  H        1.5161775    -2.0167937    -0.7768200
  H        2.8237910    -0.6585230    -0.3492850
  H       -0.7244690    -0.9269870     1.7376420
units angstrom
no_reorient  #important for SAPT in psi4, default
symmetry c1  #important for SAPT in psi4, default
}

set PROPERTIES_ORIGIN ["COM"]
properties('MP2/aug-cc-pvtz', properties = ['dipole'])
--------------------------------------------------------------------------

    Molecular point group: c1
  Charge       = 0
  Multiplicity = 1
  Basis Set: AUG-CC-PVTZ
    Blend: AUG-CC-PVTZ
  Basis Set: (AUG-CC-PVTZ AUX)
    Blend: AUG-CC-PVTZ-JKFIT

    Orbital Energies [Eh]
    ---------------------

    Doubly Occupied:

       1A    -20.558072     2A    -11.284208     3A    -11.242931
       4A    -11.234218     5A    -11.222544     6A    -11.214201
       7A     -1.357529     8A     -1.093053     9A     -0.998716
      10A     -0.935267    11A     -0.844944    12A     -0.731724
      13A     -0.690963    14A     -0.641380    15A     -0.595575
      16A     -0.591052    17A     -0.564732    18A     -0.549294
      19A     -0.531235    20A     -0.520484    21A     -0.505824
      22A     -0.477565    23A     -0.440449    24A     -0.360007

  @DF-RHF Final Energy:  -270.09513900345650

   => Energetics <=

    Nuclear Repulsion Energy =            245.1156792087056715
    One-Electron Energy =                -852.0497024038062364
    Two-Electron Energy =                 336.8388841916440128
    Total Energy =                       -270.0951390034564952
  Basis Set: (AUG-CC-PVTZ AUX)
    Blend: AUG-CC-PVTZ-RI
    Molecular point group: c1

    Geometry (in Angstrom), charge = 0, multiplicity = 1:

       Center              X                  Y                   Z               Mass
    ------------   -----------------  -----------------  -----------------  -----------------
         O           -1.252108389138    -0.366873535205     1.139391131487    15.994914619570
         C           -0.641215389138    -0.462079535205    -0.157019868513    12.000000000000
         C            0.807068610862    -0.045607535205    -0.084684868513    12.000000000000
         C           -1.480789389138     0.407511464795    -1.074810868513    12.000000000000
         C            1.098615610862     1.350445464795     0.386430131487    12.000000000000
         C            1.772244610862    -0.921138535205    -0.398549868513    12.000000000000
         H           -0.684469389138    -1.503491535205    -0.513370868513     1.007825032230
         H           -1.070235389138     0.406986464795    -2.088219868513     1.007825032230
         H           -2.504252389138     0.026778464795    -1.103610868513     1.007825032230
         H           -1.508652389138     1.431308464795    -0.698601868513     1.007825032230
         H            0.561180610862     1.552382464795     1.319737131487     1.007825032230
         H            2.170360610862     1.493530464795     0.553283131487     1.007825032230
         H            0.765558610862     2.095206464795    -0.345003868513     1.007825032230
         H            1.516430110862    -2.015713235205    -0.776446868513     1.007825032230
         H            2.824043610862    -0.657442535205    -0.348911868513     1.007825032230
         H           -0.724216389138    -0.925906535205     1.738015131487     1.007825032230

  Basis Set: AUG-CC-PVTZ
    Blend: AUG-CC-PVTZ
  Basis Set: (AUG-CC-PVTZ AUX)
    Blend: AUG-CC-PVTZ-JKFIT
	 Reference Energy          =    -270.0951390034564952 [Eh]
	 Singles Energy            =      -0.0000000000000000 [Eh]
	 Same-Spin Energy          =      -0.2758289527659284 [Eh]
	 Opposite-Spin Energy      =      -0.9514929639428965 [Eh]
	 Correlation Energy        =      -1.2273219167088250 [Eh]
	 Total Energy              =    -271.3224609201653266 [Eh]

	 ================> DF-SCS-MP2 Energies <==================
	-----------------------------------------------------------
	 SCS Same-Spin Scale       =       0.3333333333333333 [-]
	 SCS Opposite-Spin Scale   =       1.2000000000000000 [-]
	 SCS Same-Spin Energy      =      -0.0919429842553095 [Eh]
	 SCS Opposite-Spin Energy  =      -1.1417915567314758 [Eh]
	 SCS Correlation Energy    =      -1.2337345409867853 [Eh]
	 SCS Total Energy          =    -271.3288735444432973 [Eh]
	-----------------------------------------------------------

  Dipole Moment: [D]
     X:     1.1174      Y:    -0.3898      Z:    -0.3610     Total:     1.2373

*** Psi4 exiting successfully. Buy a developer a beer!
