                               Psi4 1.3.2 release

  ==> Input File <==

--------------------------------------------------------------------------
#psi4
#
memory 32 gb

molecule  {
0 1
  O       -1.2523610    -0.3679540     1.1390180
  C       -0.6414680    -0.4631600    -0.1573930
  C        0.8091680    -0.0565369    -0.0766431
  C       -1.4916790     0.3990750    -1.0723276
  C        1.0983630     1.3493650     0.3860570
  C        1.7719920    -0.9222190    -0.3989230
  H       -0.6847220    -1.5045720    -0.5137440
  H       -1.0704880     0.4059060    -2.0885930
  H       -2.5045050     0.0256980    -1.1039840
  H       -1.5089050     1.4302280    -0.6989750
  H        0.5609280     1.5513020     1.3193640
  H        2.1701080     1.4924500     0.5529100
  H        0.7653060     2.0941260    -0.3453770
  H        1.5377490    -1.9244940    -0.7449540
  H        2.8237910    -0.6585230    -0.3492850
  H       -0.7244690    -0.9269870     1.7376420
units angstrom
no_reorient  #important for SAPT in psi4, default
symmetry c1  #important for SAPT in psi4, default
}

set PROPERTIES_ORIGIN ["COM"]
properties('MP2/aug-cc-pvtz', properties = ['dipole'])
--------------------------------------------------------------------------

    Molecular point group: c1
  Charge       = 0
  Multiplicity = 1
  Basis Set: AUG-CC-PVTZ
    Blend: AUG-CC-PVTZ
  Basis Set: (AUG-CC-PVTZ AUX)
    Blend: AUG-CC-PVTZ-JKFIT

    Orbital Energies [Eh]
    ---------------------

    Doubly Occupied:

       1A    -20.557558     2A    -11.284087     3A    -11.241363
       4A    -11.222306     5A    -11.221420     6A    -11.214354
       7A     -1.357299     8A     -1.093333     9A     -0.999019
      10A     -0.938322    11A     -0.846812    12A     -0.734340
      13A     -0.691321    14A     -0.650149    15A     -0.598666
      16A     -0.591136    17A     -0.563389    18A     -0.549591
      19A     -0.528149    20A     -0.524064    21A     -0.510618
      22A     -0.479256    23A     -0.439557    24A     -0.360970

  @DF-RHF Final Energy:  -270.10215666867498

   => Energetics <=

    Nuclear Repulsion Energy =            245.4729862816194839
    One-Electron Energy =                -852.7561253757733084
    Two-Electron Energy =                 337.1809824254788737
    Total Energy =                       -270.1021566686749793
  Basis Set: (AUG-CC-PVTZ AUX)
    Blend: AUG-CC-PVTZ-RI
    Molecular point group: c1

    Geometry (in Angstrom), charge = 0, multiplicity = 1:

       Center              X                  Y                   Z               Mass
    ------------   -----------------  -----------------  -----------------  -----------------
         O           -1.251205904579    -0.365555623264     1.137446611931    15.994914619570
         C           -0.640312904579    -0.460761623264    -0.158964388069    12.000000000000
         C            0.810323095421    -0.054138523264    -0.078214488069    12.000000000000
         C           -1.490523904579     0.401473376736    -1.073898988069    12.000000000000
         C            1.099518095421     1.351763376736     0.384485611931    12.000000000000
         C            1.773147095421    -0.919820623264    -0.400494388069    12.000000000000
         H           -0.683566904579    -1.502173623264    -0.515315388069     1.007825032230
         H           -1.069332904579     0.408304376736    -2.090164388069     1.007825032230
         H           -2.503349904579     0.028096376736    -1.105555388069     1.007825032230
         H           -1.507749904579     1.432626376736    -0.700546388069     1.007825032230
         H            0.562083095421     1.553700376736     1.317792611931     1.007825032230
         H            2.171263095421     1.494848376736     0.551338611931     1.007825032230
         H            0.766461095421     2.096524376736    -0.346948388069     1.007825032230
         H            1.538904095421    -1.922095623264    -0.746525388069     1.007825032230
         H            2.824946095421    -0.656124623264    -0.350856388069     1.007825032230
         H           -0.723313904579    -0.924588623264     1.736070611931     1.007825032230

  Basis Set: AUG-CC-PVTZ
    Blend: AUG-CC-PVTZ
  Basis Set: (AUG-CC-PVTZ AUX)
    Blend: AUG-CC-PVTZ-JKFIT
	 Reference Energy          =    -270.1021566686749793 [Eh]
	 Singles Energy            =      -0.0000000000000000 [Eh]
	 Same-Spin Energy          =      -0.2755389037114027 [Eh]
	 Opposite-Spin Energy      =      -0.9504136733112054 [Eh]
	 Correlation Energy        =      -1.2259525770226081 [Eh]
	 Total Energy              =    -271.3281092456975898 [Eh]

	 ================> DF-SCS-MP2 Energies <==================
	-----------------------------------------------------------
	 SCS Same-Spin Scale       =       0.3333333333333333 [-]
	 SCS Opposite-Spin Scale   =       1.2000000000000000 [-]
	 SCS Same-Spin Energy      =      -0.0918463012371342 [Eh]
	 SCS Opposite-Spin Energy  =      -1.1404964079734465 [Eh]
	 SCS Correlation Energy    =      -1.2323427092105808 [Eh]
	 SCS Total Energy          =    -271.3344993778855496 [Eh]
	-----------------------------------------------------------

  Dipole Moment: [D]
     X:     1.1184      Y:    -0.4476      Z:    -0.3918     Total:     1.2667

*** Psi4 exiting successfully. Buy a developer a beer!
