                               Psi4 1.3.2 release

  ==> Input File <==

--------------------------------------------------------------------------
#psi4
#
memory 32 gb

molecule  {
0 1
  O       -1.2523610    -0.3679540     1.1390180
  C       -0.6414680    -0.4631600    -0.1573930
  C        0.8068160    -0.0466880    -0.0850580
  C       -1.4982544     0.3414578    -1.1175599
  C        1.0983630     1.3493650     0.3860570
  C        1.7719920    -0.9222190    -0.3989230
  H       -0.7191529    -1.4869131    -0.5565051
  H       -1.0704880     0.4059060    -2.0885930
  H       -2.5045050     0.0256980    -1.1039840
  H       -1.5089050     1.4302280    -0.6989750
  H        0.5609280     1.5513020     1.3193640
  H        2.1701080     1.4924500     0.5529100
  H        0.7653060     2.0941260    -0.3453770
  H        1.5377490    -1.9244940    -0.7449540
  H        2.8237910    -0.6585230    -0.3492850
  H       -0.7244690    -0.9269870     1.7376420
units angstrom
no_reorient  #important for SAPT in psi4, default
symmetry c1  #important for SAPT in psi4, default
}

set PROPERTIES_ORIGIN ["COM"]
properties('MP2/aug-cc-pvtz', properties = ['dipole'])
--------------------------------------------------------------------------

    Molecular point group: c1
  Charge       = 0
  Multiplicity = 1
  Basis Set: AUG-CC-PVTZ
    Blend: AUG-CC-PVTZ
  Basis Set: (AUG-CC-PVTZ AUX)
    Blend: AUG-CC-PVTZ-JKFIT

    Orbital Energies [Eh]
    ---------------------

    Doubly Occupied:

       1A    -20.559670     2A    -11.284435     3A    -11.242982
       4A    -11.223303     5A    -11.221275     6A    -11.214772
       7A     -1.357905     8A     -1.093393     9A     -1.001025
      10A     -0.937955    11A     -0.845849    12A     -0.735694
      13A     -0.691201    14A     -0.650293    15A     -0.598553
      16A     -0.595387    17A     -0.561682    18A     -0.558770
      19A     -0.534473    20A     -0.519896    21A     -0.506180
      22A     -0.471119    23A     -0.439306    24A     -0.359336

  @DF-RHF Final Energy:  -270.09473518200241

   => Energetics <=

    Nuclear Repulsion Energy =            245.1979865697867353
    One-Electron Energy =                -852.1765366566266948
    Two-Electron Energy =                 336.8838149048375499
    Total Energy =                       -270.0947351820024096
  Basis Set: (AUG-CC-PVTZ AUX)
    Blend: AUG-CC-PVTZ-RI
    Molecular point group: c1

    Geometry (in Angstrom), charge = 0, multiplicity = 1:

       Center              X                  Y                   Z               Mass
    ------------   -----------------  -----------------  -----------------  -----------------
         O           -1.249558130584    -0.359102711733     1.145426591609    15.994914619570
         C           -0.638665130584    -0.454308711733    -0.150984408391    12.000000000000
         C            0.809618869416    -0.037836711733    -0.078649408391    12.000000000000
         C           -1.495451530584     0.350309088267    -1.111151308391    12.000000000000
         C            1.101165869416     1.358216288267     0.392465591609    12.000000000000
         C            1.774794869416    -0.913367711733    -0.392514408391    12.000000000000
         H           -0.716350030584    -1.478061811733    -0.550096508391     1.007825032230
         H           -1.067685130584     0.414757288267    -2.082184408391     1.007825032230
         H           -2.501702130584     0.034549288267    -1.097575408391     1.007825032230
         H           -1.506102130584     1.439079288267    -0.692566408391     1.007825032230
         H            0.563730869416     1.560153288267     1.325772591609     1.007825032230
         H            2.172910869416     1.501301288267     0.559318591609     1.007825032230
         H            0.768108869416     2.102977288267    -0.338968408391     1.007825032230
         H            1.540551869416    -1.915642711733    -0.738545408391     1.007825032230
         H            2.826593869416    -0.649671711733    -0.342876408391     1.007825032230
         H           -0.721666130584    -0.918135711733     1.744050591609     1.007825032230

  Basis Set: AUG-CC-PVTZ
    Blend: AUG-CC-PVTZ
  Basis Set: (AUG-CC-PVTZ AUX)
    Blend: AUG-CC-PVTZ-JKFIT
	 Reference Energy          =    -270.0947351820024096 [Eh]
	 Singles Energy            =      -0.0000000000000000 [Eh]
	 Same-Spin Energy          =      -0.2757566780843956 [Eh]
	 Opposite-Spin Energy      =      -0.9509269129355502 [Eh]
	 Correlation Energy        =      -1.2266835910199458 [Eh]
	 Total Energy              =    -271.3214187730223443 [Eh]

	 ================> DF-SCS-MP2 Energies <==================
	-----------------------------------------------------------
	 SCS Same-Spin Scale       =       0.3333333333333333 [-]
	 SCS Opposite-Spin Scale   =       1.2000000000000000 [-]
	 SCS Same-Spin Energy      =      -0.0919188926947985 [Eh]
	 SCS Opposite-Spin Energy  =      -1.1411122955226602 [Eh]
	 SCS Correlation Energy    =      -1.2330311882174587 [Eh]
	 SCS Total Energy          =    -271.3277663702198765 [Eh]
	-----------------------------------------------------------

  Dipole Moment: [D]
     X:     1.1221      Y:    -0.4820      Z:    -0.3884     Total:     1.2815

*** Psi4 exiting successfully. Buy a developer a beer!
