                               Psi4 1.3.2 release

  ==> Input File <==

--------------------------------------------------------------------------
#psi4
#
memory 32 gb

molecule  {
0 1
  O       -1.2661407    -0.4418046     1.1357674
  C       -0.6414680    -0.4631600    -0.1573930
  C        0.8068160    -0.0466880    -0.0850580
  C       -1.4810420     0.4064310    -1.0751840
  C        1.0983630     1.3493650     0.3860570
  C        1.7719920    -0.9222190    -0.3989230
  H       -0.7115288    -1.5186561    -0.4646638
  H       -1.0704880     0.4059060    -2.0885930
  H       -2.5045050     0.0256980    -1.1039840
  H       -1.5089050     1.4302280    -0.6989750
  H        0.5609280     1.5513020     1.3193640
  H        2.1701080     1.4924500     0.5529100
  H        0.7653060     2.0941260    -0.3453770
  H        1.5377490    -1.9244940    -0.7449540
  H        2.8237910    -0.6585230    -0.3492850
  H       -0.7244690    -0.9269870     1.7376420
units angstrom
no_reorient  #important for SAPT in psi4, default
symmetry c1  #important for SAPT in psi4, default
}

set PROPERTIES_ORIGIN ["COM"]
properties('MP2/aug-cc-pvtz', properties = ['dipole'])
--------------------------------------------------------------------------

    Molecular point group: c1
  Charge       = 0
  Multiplicity = 1
  Basis Set: AUG-CC-PVTZ
    Blend: AUG-CC-PVTZ
  Basis Set: (AUG-CC-PVTZ AUX)
    Blend: AUG-CC-PVTZ-JKFIT

    Orbital Energies [Eh]
    ---------------------

    Doubly Occupied:

       1A    -20.551718     2A    -11.284026     3A    -11.243054
       4A    -11.223729     5A    -11.222951     6A    -11.215371
       7A     -1.361339     8A     -1.094690     9A     -1.000093
      10A     -0.939310    11A     -0.847594    12A     -0.741205
      13A     -0.689379    14A     -0.651489    15A     -0.598296
      16A     -0.591183    17A     -0.564676    18A     -0.550095
      19A     -0.534818    20A     -0.525532    21A     -0.513054
      22A     -0.475205    23A     -0.438359    24A     -0.359984

  @DF-RHF Final Energy:  -270.10242442504494

   => Energetics <=

    Nuclear Repulsion Energy =            245.2485580505957898
    One-Electron Energy =                -852.2676677211425158
    Two-Electron Energy =                 336.9166852455018102
    Total Energy =                       -270.1024244250449442
  Basis Set: (AUG-CC-PVTZ AUX)
    Blend: AUG-CC-PVTZ-RI
    Molecular point group: c1

    Geometry (in Angstrom), charge = 0, multiplicity = 1:

       Center              X                  Y                   Z               Mass
    ------------   -----------------  -----------------  -----------------  -----------------
         O           -1.263266117569    -0.427916352399     1.135796794422    15.994914619570
         C           -0.638593417569    -0.449271752399    -0.157363605578    12.000000000000
         C            0.809690582431    -0.032799752399    -0.085028605578    12.000000000000
         C           -1.478167417569     0.420319247601    -1.075154605578    12.000000000000
         C            1.101237582431     1.363253247601     0.386086394422    12.000000000000
         C            1.774866582431    -0.908330752399    -0.398893605578    12.000000000000
         H           -0.708654217569    -1.504767852399    -0.464634405578     1.007825032230
         H           -1.067613417569     0.419794247601    -2.088563605578     1.007825032230
         H           -2.501630417569     0.039586247601    -1.103954605578     1.007825032230
         H           -1.506030417569     1.444116247601    -0.698945605578     1.007825032230
         H            0.563802582431     1.565190247601     1.319393394422     1.007825032230
         H            2.172982582431     1.506338247601     0.552939394422     1.007825032230
         H            0.768180582431     2.108014247601    -0.345347605578     1.007825032230
         H            1.540623582431    -1.910605752399    -0.744924605578     1.007825032230
         H            2.826665582431    -0.644634752399    -0.349255605578     1.007825032230
         H           -0.721594417569    -0.913098752399     1.737671394422     1.007825032230

  Basis Set: AUG-CC-PVTZ
    Blend: AUG-CC-PVTZ
  Basis Set: (AUG-CC-PVTZ AUX)
    Blend: AUG-CC-PVTZ-JKFIT
	 Reference Energy          =    -270.1024244250449442 [Eh]
	 Singles Energy            =      -0.0000000000000000 [Eh]
	 Same-Spin Energy          =      -0.2750616322838128 [Eh]
	 Opposite-Spin Energy      =      -0.9493649461922276 [Eh]
	 Correlation Energy        =      -1.2244265784760402 [Eh]
	 Total Energy              =    -271.3268510035209715 [Eh]

	 ================> DF-SCS-MP2 Energies <==================
	-----------------------------------------------------------
	 SCS Same-Spin Scale       =       0.3333333333333333 [-]
	 SCS Opposite-Spin Scale   =       1.2000000000000000 [-]
	 SCS Same-Spin Energy      =      -0.0916872107612709 [Eh]
	 SCS Opposite-Spin Energy  =      -1.1392379354306730 [Eh]
	 SCS Correlation Energy    =      -1.2309251461919439 [Eh]
	 SCS Total Energy          =    -271.3333495712369086 [Eh]
	-----------------------------------------------------------

  Dipole Moment: [D]
     X:     1.2035      Y:    -0.2886      Z:    -0.3989     Total:     1.3003

*** Psi4 exiting successfully. Buy a developer a beer!
