                               Psi4 1.4a3.dev225

  ==> Input File <==

--------------------------------------------------------------------------
#psi4
#
memory 32 gb

molecule  {
0 1
  O       -1.2433940    -0.3366800     1.2074370
  C       -0.6559587    -0.4840095    -0.1191838
  C        0.7919130    -0.0810760    -0.0782340
  C       -1.5159190     0.3706220    -1.0242050
  C        1.1030690     1.3392670     0.3065330
  C        1.7446070    -0.9832150    -0.3605780
  H       -0.7308000    -1.5333880    -0.4224710
  H       -1.1307760     0.3301940    -2.0469120
  H       -2.5455460     0.0047250    -1.0155750
  H       -1.5200810     1.4081240    -0.6829090
  H        0.5415810     1.6180770     1.2025330
  H        2.1707320     1.4680310     0.5024970
  H        0.8184500     2.0371770    -0.4879450
  H        1.4952160    -2.0048880    -0.6345440
  H        2.8007100    -0.7292190    -0.3378150
  H       -0.7102690    -0.8870460     1.8084860
units angstrom
no_reorient  #important for SAPT in psi4, default
symmetry c1  #important for SAPT in psi4, default
}

set PROPERTIES_ORIGIN ["COM"]
properties('MP2/aug-cc-pvtz', properties = ['dipole'])
--------------------------------------------------------------------------

    Molecular point group: c1
  Charge       = 0
  Multiplicity = 1
  Basis Set: AUG-CC-PVTZ
    Blend: AUG-CC-PVTZ
  Basis Set: (AUG-CC-PVTZ AUX)
    Blend: AUG-CC-PVTZ-JKFIT

    Orbital Energies [Eh]
    ---------------------

    Doubly Occupied:

       1A    -20.555514     2A    -11.284575     3A    -11.243062
       4A    -11.224075     5A    -11.221360     6A    -11.214785
       7A     -1.349037     8A     -1.094458     9A     -0.999975
      10A     -0.939059    11A     -0.847113    12A     -0.733389
      13A     -0.688591    14A     -0.649640    15A     -0.598047
      16A     -0.589439    17A     -0.562803    18A     -0.548730
      19A     -0.528518    20A     -0.523662    21A     -0.509820
      22A     -0.480959    23A     -0.442982    24A     -0.359344

  @DF-RHF Final Energy:  -270.10127027106125

   => Energetics <=

    Nuclear Repulsion Energy =            245.2443645536736199
    One-Electron Energy =                -852.3133931933007261
    Two-Electron Energy =                 336.9677583685657964
    Total Energy =                       -270.1012702710612530
  Basis Set: (AUG-CC-PVTZ AUX)
    Blend: AUG-CC-PVTZ-RI
    Molecular point group: c1

    Geometry (in Angstrom), charge = 0, multiplicity = 1:

       Center              X                  Y                   Z               Mass
    ------------   -----------------  -----------------  -----------------  -----------------
         O           -1.230882288506    -0.316686264823     1.185669055470    15.994914619570
         C           -0.643446988506    -0.464015764823    -0.140951744530    12.000000000000
         C            0.804424711494    -0.061082264823    -0.100001944530    12.000000000000
         C           -1.503407288506     0.390615735177    -1.045972944530    12.000000000000
         C            1.115580711494     1.359260735177     0.284765055470    12.000000000000
         C            1.757118711494    -0.963221264823    -0.382345944530    12.000000000000
         H           -0.718288288506    -1.513394264823    -0.444238944530     1.007825032230
         H           -1.118264288506     0.350187735177    -2.068679944530     1.007825032230
         H           -2.533034288506     0.024718735177    -1.037342944530     1.007825032230
         H           -1.507569288506     1.428117735177    -0.704676944530     1.007825032230
         H            0.554092711494     1.638070735177     1.180765055470     1.007825032230
         H            2.183243711494     1.488024735177     0.480729055470     1.007825032230
         H            0.830961711494     2.057170735177    -0.509712944530     1.007825032230
         H            1.507727711494    -1.984894264823    -0.656311944530     1.007825032230
         H            2.813221711494    -0.709225264823    -0.359582944530     1.007825032230
         H           -0.697757288506    -0.867052264823     1.786718055470     1.007825032230

  Basis Set: AUG-CC-PVTZ
    Blend: AUG-CC-PVTZ
  Basis Set: (AUG-CC-PVTZ AUX)
    Blend: AUG-CC-PVTZ-JKFIT
	 Reference Energy          =    -270.1012702710612530 [Eh]
	 Singles Energy            =      -0.0000000000000000 [Eh]
	 Same-Spin Energy          =      -0.2757569501820480 [Eh]
	 Opposite-Spin Energy      =      -0.9510948128782970 [Eh]
	 Correlation Energy        =      -1.2268517630603450 [Eh]
	 Total Energy              =    -271.3281220341215771 [Eh]

	 ================> DF-SCS-MP2 Energies <==================
	-----------------------------------------------------------
	 SCS Same-Spin Scale       =       0.3333333333333333 [-]
	 SCS Opposite-Spin Scale   =       1.2000000000000000 [-]
	 SCS Same-Spin Energy      =      -0.0919189833940160 [Eh]
	 SCS Opposite-Spin Energy  =      -1.1413137754539564 [Eh]
	 SCS Correlation Energy    =      -1.2332327588479723 [Eh]
	 SCS Total Energy          =    -271.3345030299092286 [Eh]
	-----------------------------------------------------------

  Dipole Moment: [D]
     X:     1.1354      Y:    -0.4709      Z:    -0.4656     Total:     1.3144

*** Psi4 exiting successfully. Buy a developer a beer!
