                               Psi4 1.3.2 release

  ==> Input File <==

--------------------------------------------------------------------------
#psi4
#
memory 32 gb

molecule  {
0 1
  O       -1.2523610    -0.3679540     1.1390180
  C       -0.6414680    -0.4631600    -0.1573930
  C        0.8068160    -0.0466880    -0.0850580
  C       -1.4810420     0.4064310    -1.0751840
  C        1.0983630     1.3493650     0.3860570
  C        1.9160068    -1.0528578    -0.4457551
  H       -0.6847220    -1.5045720    -0.5137440
  H       -1.0704880     0.4059060    -2.0885930
  H       -2.5045050     0.0256980    -1.1039840
  H       -1.5089050     1.4302280    -0.6989750
  H        0.5609280     1.5513020     1.3193640
  H        2.1701080     1.4924500     0.5529100
  H        0.7653060     2.0941260    -0.3453770
  H        1.5377490    -1.9244940    -0.7449540
  H        2.8237910    -0.6585230    -0.3492850
  H       -0.7244690    -0.9269870     1.7376420
units angstrom
no_reorient  #important for SAPT in psi4, default
symmetry c1  #important for SAPT in psi4, default
}

set PROPERTIES_ORIGIN ["COM"]
properties('MP2/aug-cc-pvtz', properties = ['dipole'])
--------------------------------------------------------------------------

    Molecular point group: c1
  Charge       = 0
  Multiplicity = 1
  Basis Set: AUG-CC-PVTZ
    Blend: AUG-CC-PVTZ
  Basis Set: (AUG-CC-PVTZ AUX)
    Blend: AUG-CC-PVTZ-JKFIT

    Orbital Energies [Eh]
    ---------------------

    Doubly Occupied:

       1A    -20.561071     2A    -11.288830     3A    -11.273056
       4A    -11.231077     5A    -11.226754     6A    -11.217088
       7A     -1.360374     8A     -1.076679     9A     -0.996091
      10A     -0.936562    11A     -0.856555    12A     -0.739161
      13A     -0.694792    14A     -0.654447    15A     -0.615719
      16A     -0.591424    17A     -0.567005    18A     -0.551979
      19A     -0.534909    20A     -0.526983    21A     -0.518542
      22A     -0.470661    23A     -0.446035    24A     -0.321097

  @DF-RHF Final Energy:  -270.04709394493500

   => Energetics <=

    Nuclear Repulsion Energy =            242.2566855350637809
    One-Electron Energy =                -846.0937772970223705
    Two-Electron Energy =                 333.7899978170236182
    Total Energy =                       -270.0470939449349999
  Basis Set: (AUG-CC-PVTZ AUX)
    Blend: AUG-CC-PVTZ-RI
    Molecular point group: c1

    Geometry (in Angstrom), charge = 0, multiplicity = 1:

       Center              X                  Y                   Z               Mass
    ------------   -----------------  -----------------  -----------------  -----------------
         O           -1.272438975319    -0.349741091512     1.145547171501    15.994914619570
         C           -0.661545975319    -0.444947091512    -0.150863828499    12.000000000000
         C            0.786738024681    -0.028475091512    -0.078528828499    12.000000000000
         C           -1.501119975319     0.424643908488    -1.068654828499    12.000000000000
         C            1.078285024681     1.367577908488     0.392586171501    12.000000000000
         C            1.895928824681    -1.034644891512    -0.439225928499    12.000000000000
         H           -0.704799975319    -1.486359091512    -0.507214828499     1.007825032230
         H           -1.090565975319     0.424118908488    -2.082063828499     1.007825032230
         H           -2.524582975319     0.043910908488    -1.097454828499     1.007825032230
         H           -1.528982975319     1.448440908488    -0.692445828499     1.007825032230
         H            0.540850024681     1.569514908488     1.325893171501     1.007825032230
         H            2.150030024681     1.510662908488     0.559439171501     1.007825032230
         H            0.745228024681     2.112338908488    -0.338847828499     1.007825032230
         H            1.517671024681    -1.906281091512    -0.738424828499     1.007825032230
         H            2.803713024681    -0.640310091512    -0.342755828499     1.007825032230
         H           -0.744546975319    -0.908774091512     1.744171171501     1.007825032230

  Basis Set: AUG-CC-PVTZ
    Blend: AUG-CC-PVTZ
  Basis Set: (AUG-CC-PVTZ AUX)
    Blend: AUG-CC-PVTZ-JKFIT
	 Reference Energy          =    -270.0470939449349999 [Eh]
	 Singles Energy            =      -0.0000000000000000 [Eh]
	 Same-Spin Energy          =      -0.2783457273264931 [Eh]
	 Opposite-Spin Energy      =      -0.9573612346593225 [Eh]
	 Correlation Energy        =      -1.2357069619858156 [Eh]
	 Total Energy              =    -271.2828009069208406 [Eh]

	 ================> DF-SCS-MP2 Energies <==================
	-----------------------------------------------------------
	 SCS Same-Spin Scale       =       0.3333333333333333 [-]
	 SCS Opposite-Spin Scale   =       1.2000000000000000 [-]
	 SCS Same-Spin Energy      =      -0.0927819091088310 [Eh]
	 SCS Opposite-Spin Energy  =      -1.1488334815911869 [Eh]
	 SCS Correlation Energy    =      -1.2416153907000180 [Eh]
	 SCS Total Energy          =    -271.2887093356350192 [Eh]
	-----------------------------------------------------------

  Dipole Moment: [D]
     X:     1.0266      Y:    -0.3334      Z:    -0.3517     Total:     1.1352

*** Psi4 exiting successfully. Buy a developer a beer!
