                               Psi4 1.3.2 release

  ==> Input File <==

--------------------------------------------------------------------------
#psi4
#
memory 32 gb

molecule  {
0 1
  O       -1.2523610    -0.3679540     1.1390180
  C       -0.6414680    -0.4631600    -0.1573930
  C        0.8192678    -0.1062305    -0.0346738
  C       -1.5438765     0.3613216    -1.0570053
  C        1.0983630     1.3493650     0.3860570
  C        1.7719920    -0.9222190    -0.3989230
  H       -0.6847220    -1.5045720    -0.5137440
  H       -1.0704880     0.4059060    -2.0885930
  H       -2.5045050     0.0256980    -1.1039840
  H       -1.5089050     1.4302280    -0.6989750
  H        0.5609280     1.5513020     1.3193640
  H        2.1701080     1.4924500     0.5529100
  H        0.7653060     2.0941260    -0.3453770
  H        1.5377490    -1.9244940    -0.7449540
  H        2.8237910    -0.6585230    -0.3492850
  H       -0.7244690    -0.9269870     1.7376420
units angstrom
no_reorient  #important for SAPT in psi4, default
symmetry c1  #important for SAPT in psi4, default
}

set PROPERTIES_ORIGIN ["COM"]
properties('MP2/aug-cc-pvtz', properties = ['dipole'])
--------------------------------------------------------------------------

    Molecular point group: c1
  Charge       = 0
  Multiplicity = 1
  Basis Set: AUG-CC-PVTZ
    Blend: AUG-CC-PVTZ
  Basis Set: (AUG-CC-PVTZ AUX)
    Blend: AUG-CC-PVTZ-JKFIT

    Orbital Energies [Eh]
    ---------------------

    Doubly Occupied:

       1A    -20.555294     2A    -11.284034     3A    -11.239705
       4A    -11.221960     5A    -11.221006     6A    -11.216308
       7A     -1.356551     8A     -1.093711     9A     -1.000447
      10A     -0.937421    11A     -0.850174    12A     -0.732625
      13A     -0.689935    14A     -0.651795    15A     -0.603766
      16A     -0.597191    17A     -0.559297    18A     -0.552468
      19A     -0.526174    20A     -0.511537    21A     -0.505824
      22A     -0.482190    23A     -0.433731    24A     -0.370332

  @DF-RHF Final Energy:  -270.09147920657176

   => Energetics <=

    Nuclear Repulsion Energy =            245.2956874758292258
    One-Electron Energy =                -852.3873787011474406
    Two-Electron Energy =                 337.0002120187464243
    Total Energy =                       -270.0914792065717620
  Basis Set: (AUG-CC-PVTZ AUX)
    Blend: AUG-CC-PVTZ-RI
    Molecular point group: c1

    Geometry (in Angstrom), charge = 0, multiplicity = 1:

       Center              X                  Y                   Z               Mass
    ------------   -----------------  -----------------  -----------------  -----------------
         O           -1.245336800076    -0.353364088298     1.129459230493    15.994914619570
         C           -0.634443800076    -0.448570088298    -0.166951769507    12.000000000000
         C            0.826291999924    -0.091640588298    -0.044232569507    12.000000000000
         C           -1.536852300076     0.375911511702    -1.066564069507    12.000000000000
         C            1.105387199924     1.363954911702     0.376498230493    12.000000000000
         C            1.779016199924    -0.907629088298    -0.408481769507    12.000000000000
         H           -0.677697800076    -1.489982088298    -0.523302769507     1.007825032230
         H           -1.063463800076     0.420495911702    -2.098151769507     1.007825032230
         H           -2.497480800076     0.040287911702    -1.113542769507     1.007825032230
         H           -1.501880800076     1.444817911702    -0.708533769507     1.007825032230
         H            0.567952199924     1.565891911702     1.309805230493     1.007825032230
         H            2.177132199924     1.507039911702     0.543351230493     1.007825032230
         H            0.772330199924     2.108715911702    -0.354935769507     1.007825032230
         H            1.544773199924    -1.909904088298    -0.754512769507     1.007825032230
         H            2.830815199924    -0.643933088298    -0.358843769507     1.007825032230
         H           -0.717444800076    -0.912397088298     1.728083230493     1.007825032230

  Basis Set: AUG-CC-PVTZ
    Blend: AUG-CC-PVTZ
  Basis Set: (AUG-CC-PVTZ AUX)
    Blend: AUG-CC-PVTZ-JKFIT
	 Reference Energy          =    -270.0914792065717620 [Eh]
	 Singles Energy            =      -0.0000000000000000 [Eh]
	 Same-Spin Energy          =      -0.2752510141258335 [Eh]
	 Opposite-Spin Energy      =      -0.9501750280894599 [Eh]
	 Correlation Energy        =      -1.2254260422152934 [Eh]
	 Total Energy              =    -271.3169052487870658 [Eh]

	 ================> DF-SCS-MP2 Energies <==================
	-----------------------------------------------------------
	 SCS Same-Spin Scale       =       0.3333333333333333 [-]
	 SCS Opposite-Spin Scale   =       1.2000000000000000 [-]
	 SCS Same-Spin Energy      =      -0.0917503380419445 [Eh]
	 SCS Opposite-Spin Energy  =      -1.1402100337073517 [Eh]
	 SCS Correlation Energy    =      -1.2319603717492962 [Eh]
	 SCS Total Energy          =    -271.3234395783210857 [Eh]
	-----------------------------------------------------------

  Dipole Moment: [D]
     X:     1.1542      Y:    -0.4912      Z:    -0.4609     Total:     1.3364

*** Psi4 exiting successfully. Buy a developer a beer!
