                               Psi4 1.3.2 release

  ==> Input File <==

--------------------------------------------------------------------------
#psi4
#
memory 32 gb

molecule  {
0 1
  O       -1.2523610    -0.3679540     1.1390180
  C       -0.6414680    -0.4631600    -0.1573930
  C        0.8103989    -0.0586121    -0.0893382
  C       -1.4810420     0.4064310    -1.0751840
  C        1.0983630     1.3493650     0.3860570
  C        1.7719920    -0.9222190    -0.3989230
  H       -0.6751254    -1.5047448    -0.5142741
  H       -1.0704880     0.4059060    -2.0885930
  H       -2.5045050     0.0256980    -1.1039840
  H       -1.5089050     1.4302280    -0.6989750
  H        0.5609280     1.5513020     1.3193640
  H        2.1701080     1.4924500     0.5529100
  H        0.7653060     2.0941260    -0.3453770
  H        1.5377490    -1.9244940    -0.7449540
  H        2.8237910    -0.6585230    -0.3492850
  H       -0.7244690    -0.9269870     1.7376420
units angstrom
no_reorient  #important for SAPT in psi4, default
symmetry c1  #important for SAPT in psi4, default
}

set PROPERTIES_ORIGIN ["COM"]
properties('MP2/aug-cc-pvtz', properties = ['dipole'])
--------------------------------------------------------------------------

    Molecular point group: c1
  Charge       = 0
  Multiplicity = 1
  Basis Set: AUG-CC-PVTZ
    Blend: AUG-CC-PVTZ
  Basis Set: (AUG-CC-PVTZ AUX)
    Blend: AUG-CC-PVTZ-JKFIT

    Orbital Energies [Eh]
    ---------------------

    Doubly Occupied:

       1A    -20.558330     2A    -11.284166     3A    -11.240489
       4A    -11.221472     5A    -11.221385     6A    -11.214293
       7A     -1.357527     8A     -1.093761     9A     -0.998948
      10A     -0.938180    11A     -0.846868    12A     -0.734166
      13A     -0.691771    14A     -0.649627    15A     -0.599195
      16A     -0.590313    17A     -0.563747    18A     -0.547439
      19A     -0.531175    20A     -0.523434    21A     -0.509630
      22A     -0.479931    23A     -0.438734    24A     -0.362252

  @DF-RHF Final Energy:  -270.10243657513081

   => Energetics <=

    Nuclear Repulsion Energy =            245.5029499364179060
    One-Electron Energy =                -852.8171082859904573
    Two-Electron Energy =                 337.2117217744417985
    Total Energy =                       -270.1024365751308096
  Basis Set: (AUG-CC-PVTZ AUX)
    Blend: AUG-CC-PVTZ-RI
    Molecular point group: c1

    Geometry (in Angstrom), charge = 0, multiplicity = 1:

       Center              X                  Y                   Z               Mass
    ------------   -----------------  -----------------  -----------------  -----------------
         O           -1.252972848944    -0.366289829423     1.139620951032    15.994914619570
         C           -0.642079848944    -0.461495829423    -0.156790048968    12.000000000000
         C            0.809787051056    -0.056947929423    -0.088735248968    12.000000000000
         C           -1.481653848944     0.408095170577    -1.074581048968    12.000000000000
         C            1.097751151056     1.351029170577     0.386659951032    12.000000000000
         C            1.771380151056    -0.920554829423    -0.398320048968    12.000000000000
         H           -0.675737248944    -1.503080629423    -0.513671148968     1.007825032230
         H           -1.071099848944     0.407570170577    -2.087990048968     1.007825032230
         H           -2.505116848944     0.027362170577    -1.103381048968     1.007825032230
         H           -1.509516848944     1.431892170577    -0.698372048968     1.007825032230
         H            0.560316151056     1.552966170577     1.319966951032     1.007825032230
         H            2.169496151056     1.494114170577     0.553512951032     1.007825032230
         H            0.764694151056     2.095790170577    -0.344774048968     1.007825032230
         H            1.537137151056    -1.922829829423    -0.744351048968     1.007825032230
         H            2.823179151056    -0.656858829423    -0.348682048968     1.007825032230
         H           -0.725080848944    -0.925322829423     1.738244951032     1.007825032230

  Basis Set: AUG-CC-PVTZ
    Blend: AUG-CC-PVTZ
  Basis Set: (AUG-CC-PVTZ AUX)
    Blend: AUG-CC-PVTZ-JKFIT
	 Reference Energy          =    -270.1024365751308096 [Eh]
	 Singles Energy            =      -0.0000000000000000 [Eh]
	 Same-Spin Energy          =      -0.2754863569611400 [Eh]
	 Opposite-Spin Energy      =      -0.9503105090851416 [Eh]
	 Correlation Energy        =      -1.2257968660462817 [Eh]
	 Total Energy              =    -271.3282334411770762 [Eh]

	 ================> DF-SCS-MP2 Energies <==================
	-----------------------------------------------------------
	 SCS Same-Spin Scale       =       0.3333333333333333 [-]
	 SCS Opposite-Spin Scale   =       1.2000000000000000 [-]
	 SCS Same-Spin Energy      =      -0.0918287856537133 [Eh]
	 SCS Opposite-Spin Energy  =      -1.1403726109021699 [Eh]
	 SCS Correlation Energy    =      -1.2322013965558831 [Eh]
	 SCS Total Energy          =    -271.3346379716866750 [Eh]
	-----------------------------------------------------------

  Dipole Moment: [D]
     X:     1.1193      Y:    -0.4539      Z:    -0.3787     Total:     1.2658

*** Psi4 exiting successfully. Buy a developer a beer!
