                               Psi4 1.4a3.dev225

  ==> Input File <==

--------------------------------------------------------------------------
#psi4
#
memory 32 gb

molecule  {
0 1
  O       -1.2433940    -0.3366800     1.2074370
  C       -0.6640150    -0.4819890    -0.1009900
  C        0.7919130    -0.0810760    -0.0782340
  C       -1.5159190     0.3706220    -1.0242050
  C        1.0989315     1.3203804     0.3014167
  C        1.7446070    -0.9832150    -0.3605780
  H       -0.7308000    -1.5333880    -0.4224710
  H       -1.1307760     0.3301940    -2.0469120
  H       -2.5455460     0.0047250    -1.0155750
  H       -1.5200810     1.4081240    -0.6829090
  H        0.5415810     1.6180770     1.2025330
  H        2.1707320     1.4680310     0.5024970
  H        0.8184500     2.0371770    -0.4879450
  H        1.4952160    -2.0048880    -0.6345440
  H        2.8007100    -0.7292190    -0.3378150
  H       -0.7102690    -0.8870460     1.8084860
units angstrom
no_reorient  #important for SAPT in psi4, default
symmetry c1  #important for SAPT in psi4, default
}

set PROPERTIES_ORIGIN ["COM"]
properties('MP2/aug-cc-pvtz', properties = ['dipole'])
--------------------------------------------------------------------------

    Molecular point group: c1
  Charge       = 0
  Multiplicity = 1
  Basis Set: AUG-CC-PVTZ
    Blend: AUG-CC-PVTZ
  Basis Set: (AUG-CC-PVTZ AUX)
    Blend: AUG-CC-PVTZ-JKFIT

    Orbital Energies [Eh]
    ---------------------

    Doubly Occupied:

       1A    -20.557992     2A    -11.284657     3A    -11.241702
       4A    -11.223567     5A    -11.221638     6A    -11.214427
       7A     -1.356905     8A     -1.095116     9A     -0.999012
      10A     -0.937972    11A     -0.846249    12A     -0.734938
      13A     -0.691813    14A     -0.650251    15A     -0.598545
      16A     -0.590447    17A     -0.562711    18A     -0.548618
      19A     -0.530896    20A     -0.521590    21A     -0.512456
      22A     -0.478378    23A     -0.441019    24A     -0.358326

  @DF-RHF Final Energy:  -270.10134428569484

   => Energetics <=

    Nuclear Repulsion Energy =            245.6324605196235211
    One-Electron Energy =                -853.0691627737850240
    Two-Electron Energy =                 337.3353579684666101
    Total Energy =                       -270.1013442856948359
  Basis Set: (AUG-CC-PVTZ AUX)
    Blend: AUG-CC-PVTZ-RI
    Molecular point group: c1

    Geometry (in Angstrom), charge = 0, multiplicity = 1:

       Center              X                  Y                   Z               Mass
    ------------   -----------------  -----------------  -----------------  -----------------
         O           -1.229182274337    -0.314334855994     1.183845839139    15.994914619570
         C           -0.649803274337    -0.459643855994    -0.124581160861    12.000000000000
         C            0.806124725663    -0.058730855994    -0.101825160861    12.000000000000
         C           -1.501707274337     0.392967144006    -1.047796160861    12.000000000000
         C            1.113143225663     1.342725544006     0.277825539139    12.000000000000
         C            1.758818725663    -0.960869855994    -0.384169160861    12.000000000000
         H           -0.716588274337    -1.511042855994    -0.446062160861     1.007825032230
         H           -1.116564274337     0.352539144006    -2.070503160861     1.007825032230
         H           -2.531334274337     0.027070144006    -1.039166160861     1.007825032230
         H           -1.505869274337     1.430469144006    -0.706500160861     1.007825032230
         H            0.555792725663     1.640422144006     1.178941839139     1.007825032230
         H            2.184943725663     1.490376144006     0.478905839139     1.007825032230
         H            0.832661725663     2.059522144006    -0.511536160861     1.007825032230
         H            1.509427725663    -1.982542855994    -0.658135160861     1.007825032230
         H            2.814921725663    -0.706873855994    -0.361406160861     1.007825032230
         H           -0.696057274337    -0.864700855994     1.784894839139     1.007825032230

  Basis Set: AUG-CC-PVTZ
    Blend: AUG-CC-PVTZ
  Basis Set: (AUG-CC-PVTZ AUX)
    Blend: AUG-CC-PVTZ-JKFIT
	 Reference Energy          =    -270.1013442856948359 [Eh]
	 Singles Energy            =      -0.0000000000000000 [Eh]
	 Same-Spin Energy          =      -0.2758388026726558 [Eh]
	 Opposite-Spin Energy      =      -0.9508954408371253 [Eh]
	 Correlation Energy        =      -1.2267342435097812 [Eh]
	 Total Energy              =    -271.3280785292046176 [Eh]

	 ================> DF-SCS-MP2 Energies <==================
	-----------------------------------------------------------
	 SCS Same-Spin Scale       =       0.3333333333333333 [-]
	 SCS Opposite-Spin Scale   =       1.2000000000000000 [-]
	 SCS Same-Spin Energy      =      -0.0919462675575519 [Eh]
	 SCS Opposite-Spin Energy  =      -1.1410745290045503 [Eh]
	 SCS Correlation Energy    =      -1.2330207965621023 [Eh]
	 SCS Total Energy          =    -271.3343650822569657 [Eh]
	-----------------------------------------------------------

  Dipole Moment: [D]
     X:     1.1025      Y:    -0.4651      Z:    -0.3942     Total:     1.2598

*** Psi4 exiting successfully. Buy a developer a beer!
