                               Psi4 1.3.2 release

  ==> Input File <==

--------------------------------------------------------------------------
#psi4
#
memory 32 gb

molecule  {
0 1
  O       -1.2523610    -0.3679540     1.1390180
  C       -0.6414680    -0.4631600    -0.1573930
  C        0.7907322    -0.0627829    -0.0904926
  C       -1.4810420     0.4064310    -1.0751840
  C        1.0983630     1.3493650     0.3860570
  C        1.7719920    -0.9222190    -0.3989230
  H       -0.6847220    -1.5045720    -0.5137440
  H       -1.0704880     0.4059060    -2.0885930
  H       -2.5045050     0.0256980    -1.1039840
  H       -1.5089050     1.4302280    -0.6989750
  H        0.5609280     1.5513020     1.3193640
  H        2.1701080     1.4924500     0.5529100
  H        0.7653060     2.0941260    -0.3453770
  H        1.5192803    -1.9205365    -0.7433955
  H        2.8237910    -0.6585230    -0.3492850
  H       -0.7244690    -0.9269870     1.7376420
units angstrom
no_reorient  #important for SAPT in psi4, default
symmetry c1  #important for SAPT in psi4, default
}

set PROPERTIES_ORIGIN ["COM"]
properties('MP2/aug-cc-pvtz', properties = ['dipole'])
--------------------------------------------------------------------------

    Molecular point group: c1
  Charge       = 0
  Multiplicity = 1
  Basis Set: AUG-CC-PVTZ
    Blend: AUG-CC-PVTZ
  Basis Set: (AUG-CC-PVTZ AUX)
    Blend: AUG-CC-PVTZ-JKFIT

    Orbital Energies [Eh]
    ---------------------

    Doubly Occupied:

       1A    -20.558401     2A    -11.283493     3A    -11.241646
       4A    -11.223192     5A    -11.221664     6A    -11.214559
       7A     -1.358175     8A     -1.093846     9A     -0.998688
      10A     -0.936557    11A     -0.849652    12A     -0.734926
      13A     -0.692136    14A     -0.648777    15A     -0.599953
      16A     -0.591018    17A     -0.563410    18A     -0.547486
      19A     -0.531504    20A     -0.522625    21A     -0.506962
      22A     -0.481574    23A     -0.441855    24A     -0.359501

  @DF-RHF Final Energy:  -270.10147557165647

   => Energetics <=

    Nuclear Repulsion Energy =            245.6385286885371784
    One-Electron Energy =                -853.0768100239538398
    Two-Electron Energy =                 337.3368057637601396
    Total Energy =                       -270.1014755716564650
  Basis Set: (AUG-CC-PVTZ AUX)
    Blend: AUG-CC-PVTZ-RI
    Molecular point group: c1

    Geometry (in Angstrom), charge = 0, multiplicity = 1:

       Center              X                  Y                   Z               Mass
    ------------   -----------------  -----------------  -----------------  -----------------
         O           -1.249902376142    -0.365756713436     1.139757437899    15.994914619570
         C           -0.639009376142    -0.460962713436    -0.156653562101    12.000000000000
         C            0.793190823858    -0.060585613436    -0.089753162101    12.000000000000
         C           -1.478583376142     0.408628286564    -1.074444562101    12.000000000000
         C            1.100821623858     1.351562286564     0.386796437899    12.000000000000
         C            1.774450623858    -0.920021713436    -0.398183562101    12.000000000000
         H           -0.682263376142    -1.502374713436    -0.513004562101     1.007825032230
         H           -1.068029376142     0.408103286564    -2.087853562101     1.007825032230
         H           -2.502046376142     0.027895286564    -1.103244562101     1.007825032230
         H           -1.506446376142     1.432425286564    -0.698235562101     1.007825032230
         H            0.563386623858     1.553499286564     1.320103437899     1.007825032230
         H            2.172566623858     1.494647286564     0.553649437899     1.007825032230
         H            0.767764623858     2.096323286564    -0.344637562101     1.007825032230
         H            1.521738923858    -1.918339213436    -0.742656062101     1.007825032230
         H            2.826249623858    -0.656325713436    -0.348545562101     1.007825032230
         H           -0.722010376142    -0.924789713436     1.738381437899     1.007825032230

  Basis Set: AUG-CC-PVTZ
    Blend: AUG-CC-PVTZ
  Basis Set: (AUG-CC-PVTZ AUX)
    Blend: AUG-CC-PVTZ-JKFIT
	 Reference Energy          =    -270.1014755716564650 [Eh]
	 Singles Energy            =      -0.0000000000000000 [Eh]
	 Same-Spin Energy          =      -0.2757121935141949 [Eh]
	 Opposite-Spin Energy      =      -0.9507408768318337 [Eh]
	 Correlation Energy        =      -1.2264530703460286 [Eh]
	 Total Energy              =    -271.3279286420025187 [Eh]

	 ================> DF-SCS-MP2 Energies <==================
	-----------------------------------------------------------
	 SCS Same-Spin Scale       =       0.3333333333333333 [-]
	 SCS Opposite-Spin Scale   =       1.2000000000000000 [-]
	 SCS Same-Spin Energy      =      -0.0919040645047316 [Eh]
	 SCS Opposite-Spin Energy  =      -1.1408890521982005 [Eh]
	 SCS Correlation Energy    =      -1.2327931167029320 [Eh]
	 SCS Total Energy          =    -271.3342686883593728 [Eh]
	-----------------------------------------------------------

  Dipole Moment: [D]
     X:     1.1156      Y:    -0.4525      Z:    -0.3829     Total:     1.2633

*** Psi4 exiting successfully. Buy a developer a beer!
