                               Psi4 1.4a3.dev225

  ==> Input File <==

--------------------------------------------------------------------------
#psi4
#
memory 32 gb

molecule  {
0 1
  O       -1.2433940    -0.3366800     1.2074370
  C       -0.6640150    -0.4819890    -0.1009900
  C        0.7919130    -0.0810760    -0.0782340
  C       -1.5159190     0.3706220    -1.0242050
  C        1.1030690     1.3392670     0.3065330
  C        1.7091140    -0.9496055    -0.3500592
  H       -0.7308000    -1.5333880    -0.4224710
  H       -1.1307760     0.3301940    -2.0469120
  H       -2.5455460     0.0047250    -1.0155750
  H       -1.5200810     1.4081240    -0.6829090
  H        0.5415810     1.6180770     1.2025330
  H        2.1707320     1.4680310     0.5024970
  H        0.8184500     2.0371770    -0.4879450
  H        1.4952160    -2.0048880    -0.6345440
  H        2.8007100    -0.7292190    -0.3378150
  H       -0.7102690    -0.8870460     1.8084860
units angstrom
no_reorient  #important for SAPT in psi4, default
symmetry c1  #important for SAPT in psi4, default
}

set PROPERTIES_ORIGIN ["COM"]
properties('MP2/aug-cc-pvtz', properties = ['dipole'])
--------------------------------------------------------------------------

    Molecular point group: c1
  Charge       = 0
  Multiplicity = 1
  Basis Set: AUG-CC-PVTZ
    Blend: AUG-CC-PVTZ
  Basis Set: (AUG-CC-PVTZ AUX)
    Blend: AUG-CC-PVTZ-JKFIT

    Orbital Energies [Eh]
    ---------------------

    Doubly Occupied:

       1A    -20.557594     2A    -11.283886     3A    -11.233808
       4A    -11.221359     5A    -11.220035     6A    -11.213999
       7A     -1.356494     8A     -1.100450     9A     -0.999956
      10A     -0.939689    11A     -0.843961    12A     -0.732356
      13A     -0.691300    14A     -0.651542    15A     -0.595087
      16A     -0.591234    17A     -0.563886    18A     -0.548008
      19A     -0.530346    20A     -0.521782    21A     -0.507485
      22A     -0.476201    23A     -0.437920    24A     -0.370650

  @DF-RHF Final Energy:  -270.09966828801726

   => Energetics <=

    Nuclear Repulsion Energy =            246.2497677652989978
    One-Electron Energy =                -854.3208133413363612
    Two-Electron Energy =                 337.9713772880201077
    Total Energy =                       -270.0996682880172557
  Basis Set: (AUG-CC-PVTZ AUX)
    Blend: AUG-CC-PVTZ-RI
    Molecular point group: c1

    Geometry (in Angstrom), charge = 0, multiplicity = 1:

       Center              X                  Y                   Z               Mass
    ------------   -----------------  -----------------  -----------------  -----------------
         O           -1.224810807338    -0.321653666688     1.181666051744    15.994914619570
         C           -0.645431807338    -0.466962666688    -0.126760948256    12.000000000000
         C            0.810496192662    -0.066049666688    -0.104004948256    12.000000000000
         C           -1.497335807338     0.385648333312    -1.049975948256    12.000000000000
         C            1.121652192662     1.354293333312     0.280762051744    12.000000000000
         C            1.727697192662    -0.934579166688    -0.375830148256    12.000000000000
         H           -0.712216807338    -1.518361666688    -0.448241948256     1.007825032230
         H           -1.112192807338     0.345220333312    -2.072682948256     1.007825032230
         H           -2.526962807338     0.019751333312    -1.041345948256     1.007825032230
         H           -1.501497807338     1.423150333312    -0.708679948256     1.007825032230
         H            0.560164192662     1.633103333312     1.176762051744     1.007825032230
         H            2.189315192662     1.483057333312     0.476726051744     1.007825032230
         H            0.837033192662     2.052203333312    -0.513715948256     1.007825032230
         H            1.513799192662    -1.989861666688    -0.660314948256     1.007825032230
         H            2.819293192662    -0.714192666688    -0.363585948256     1.007825032230
         H           -0.691685807338    -0.872019666688     1.782715051744     1.007825032230

  Basis Set: AUG-CC-PVTZ
    Blend: AUG-CC-PVTZ
  Basis Set: (AUG-CC-PVTZ AUX)
    Blend: AUG-CC-PVTZ-JKFIT
	 Reference Energy          =    -270.0996682880172557 [Eh]
	 Singles Energy            =      -0.0000000000000000 [Eh]
	 Same-Spin Energy          =      -0.2753922131899256 [Eh]
	 Opposite-Spin Energy      =      -0.9498520033157578 [Eh]
	 Correlation Energy        =      -1.2252442165056834 [Eh]
	 Total Energy              =    -271.3249125045229562 [Eh]

	 ================> DF-SCS-MP2 Energies <==================
	-----------------------------------------------------------
	 SCS Same-Spin Scale       =       0.3333333333333333 [-]
	 SCS Opposite-Spin Scale   =       1.2000000000000000 [-]
	 SCS Same-Spin Energy      =      -0.0917974043966419 [Eh]
	 SCS Opposite-Spin Energy  =      -1.1398224039789093 [Eh]
	 SCS Correlation Energy    =      -1.2316198083755512 [Eh]
	 SCS Total Energy          =    -271.3312880963928251 [Eh]
	-----------------------------------------------------------

  Dipole Moment: [D]
     X:     1.1183      Y:    -0.4972      Z:    -0.4006     Total:     1.2877

*** Psi4 exiting successfully. Buy a developer a beer!
