                               Psi4 1.3.2 release

  ==> Input File <==

--------------------------------------------------------------------------
#psi4
#
memory 32 gb

molecule  {
0 1
  O       -1.2523610    -0.3679540     1.1390180
  C       -0.6071364    -0.4941049    -0.1379734
  C        0.8068160    -0.0466880    -0.0850580
  C       -1.4810420     0.4064310    -1.0751840
  C        1.0983630     1.3493650     0.3860570
  C        1.7719920    -0.9222190    -0.3989230
  H       -0.6847220    -1.5045720    -0.5137440
  H       -1.0704880     0.4059060    -2.0885930
  H       -2.5045050     0.0256980    -1.1039840
  H       -1.5089050     1.4302280    -0.6989750
  H        0.5609280     1.5513020     1.3193640
  H        2.1701080     1.4924500     0.5529100
  H        0.7653060     2.0941260    -0.3453770
  H        1.5377490    -1.9244940    -0.7449540
  H        2.8237910    -0.6585230    -0.3492850
  H       -0.7041957    -0.9348232     1.7114799
units angstrom
no_reorient  #important for SAPT in psi4, default
symmetry c1  #important for SAPT in psi4, default
}

set PROPERTIES_ORIGIN ["COM"]
properties('MP2/aug-cc-pvtz', properties = ['dipole'])
--------------------------------------------------------------------------

    Molecular point group: c1
  Charge       = 0
  Multiplicity = 1
  Basis Set: AUG-CC-PVTZ
    Blend: AUG-CC-PVTZ
  Basis Set: (AUG-CC-PVTZ AUX)
    Blend: AUG-CC-PVTZ-JKFIT

    Orbital Energies [Eh]
    ---------------------

    Doubly Occupied:

       1A    -20.560017     2A    -11.282752     3A    -11.241596
       4A    -11.223783     5A    -11.222480     6A    -11.214418
       7A     -1.360112     8A     -1.096127     9A     -0.989057
      10A     -0.940110    11A     -0.850079    12A     -0.735627
      13A     -0.691986    14A     -0.651201    15A     -0.600709
      16A     -0.589271    17A     -0.564191    18A     -0.548061
      19A     -0.527522    20A     -0.523511    21A     -0.512099
      22A     -0.472534    23A     -0.448747    24A     -0.358825

  @DF-RHF Final Energy:  -270.09863456709007

   => Energetics <=

    Nuclear Repulsion Energy =            245.5419308804303000
    One-Electron Energy =                -852.8715053773829595
    Two-Electron Energy =                 337.2309399298625863
    Total Energy =                       -270.0986345670900732
  Basis Set: (AUG-CC-PVTZ AUX)
    Blend: AUG-CC-PVTZ-RI
    Molecular point group: c1

    Geometry (in Angstrom), charge = 0, multiplicity = 1:

       Center              X                  Y                   Z               Mass
    ------------   -----------------  -----------------  -----------------  -----------------
         O           -1.257384730925    -0.363548290100     1.136616936611    15.994914619570
         C           -0.612160130925    -0.489699190100    -0.140374463389    12.000000000000
         C            0.801792269075    -0.042282290100    -0.087459063389    12.000000000000
         C           -1.486065730925     0.410836709900    -1.077585063389    12.000000000000
         C            1.093339269075     1.353770709900     0.383655936611    12.000000000000
         C            1.766968269075    -0.917813290100    -0.401324063389    12.000000000000
         H           -0.689745730925    -1.500166290100    -0.516145063389     1.007825032230
         H           -1.075511730925     0.410311709900    -2.090994063389     1.007825032230
         H           -2.509528730925     0.030103709900    -1.106385063389     1.007825032230
         H           -1.513928730925     1.434633709900    -0.701376063389     1.007825032230
         H            0.555904269075     1.555707709900     1.316962936611     1.007825032230
         H            2.165084269075     1.496855709900     0.550508936611     1.007825032230
         H            0.760282269075     2.098531709900    -0.347778063389     1.007825032230
         H            1.532725269075    -1.920088290100    -0.747355063389     1.007825032230
         H            2.818767269075    -0.654117290100    -0.351686063389     1.007825032230
         H           -0.709219430925    -0.930417490100     1.709078836611     1.007825032230

  Basis Set: AUG-CC-PVTZ
    Blend: AUG-CC-PVTZ
  Basis Set: (AUG-CC-PVTZ AUX)
    Blend: AUG-CC-PVTZ-JKFIT
	 Reference Energy          =    -270.0986345670900732 [Eh]
	 Singles Energy            =      -0.0000000000000000 [Eh]
	 Same-Spin Energy          =      -0.2758706520258718 [Eh]
	 Opposite-Spin Energy      =      -0.9511808267118708 [Eh]
	 Correlation Energy        =      -1.2270514787377427 [Eh]
	 Total Energy              =    -271.3256860458278084 [Eh]

	 ================> DF-SCS-MP2 Energies <==================
	-----------------------------------------------------------
	 SCS Same-Spin Scale       =       0.3333333333333333 [-]
	 SCS Opposite-Spin Scale   =       1.2000000000000000 [-]
	 SCS Same-Spin Energy      =      -0.0919568840086239 [Eh]
	 SCS Opposite-Spin Energy  =      -1.1414169920542450 [Eh]
	 SCS Correlation Energy    =      -1.2333738760628690 [Eh]
	 SCS Total Energy          =    -271.3320084431529153 [Eh]
	-----------------------------------------------------------

  Dipole Moment: [D]
     X:     1.2006      Y:    -0.4848      Z:    -0.3564     Total:     1.3429

*** Psi4 exiting successfully. Buy a developer a beer!
