                               Psi4 1.3.2 release

  ==> Input File <==

--------------------------------------------------------------------------
#psi4
#
memory 32 gb

molecule  {
0 1
  O       -1.2523610    -0.3679540     1.1390180
  C       -0.6260450    -0.5104711    -0.1746265
  C        0.8068160    -0.0466880    -0.0850580
  C       -1.4810420     0.4064310    -1.0751840
  C        1.1495467     1.3396927     0.3801272
  C        1.7719920    -0.9222190    -0.3989230
  H       -0.6847220    -1.5045720    -0.5137440
  H       -1.0704880     0.4059060    -2.0885930
  H       -2.5045050     0.0256980    -1.1039840
  H       -1.5089050     1.4302280    -0.6989750
  H        0.5609280     1.5513020     1.3193640
  H        2.1701080     1.4924500     0.5529100
  H        0.7653060     2.0941260    -0.3453770
  H        1.5377490    -1.9244940    -0.7449540
  H        2.8237910    -0.6585230    -0.3492850
  H       -0.7244690    -0.9269870     1.7376420
units angstrom
no_reorient  #important for SAPT in psi4, default
symmetry c1  #important for SAPT in psi4, default
}

set PROPERTIES_ORIGIN ["COM"]
properties('MP2/aug-cc-pvtz', properties = ['dipole'])
--------------------------------------------------------------------------

    Molecular point group: c1
  Charge       = 0
  Multiplicity = 1
  Basis Set: AUG-CC-PVTZ
    Blend: AUG-CC-PVTZ
  Basis Set: (AUG-CC-PVTZ AUX)
    Blend: AUG-CC-PVTZ-JKFIT

    Orbital Energies [Eh]
    ---------------------

    Doubly Occupied:

       1A    -20.556247     2A    -11.284297     3A    -11.242583
       4A    -11.223038     5A    -11.221117     6A    -11.215293
       7A     -1.348438     8A     -1.094038     9A     -0.995934
      10A     -0.938084    11A     -0.849267    12A     -0.736281
      13A     -0.691565    14A     -0.649819    15A     -0.596598
      16A     -0.584158    17A     -0.562010    18A     -0.555984
      19A     -0.525293    20A     -0.522018    21A     -0.508176
      22A     -0.478660    23A     -0.449337    24A     -0.356599

  @DF-RHF Final Energy:  -270.09534147820602

   => Energetics <=

    Nuclear Repulsion Energy =            244.8664346153795464
    One-Electron Energy =                -851.5538909932763545
    Two-Electron Energy =                 336.5921148996907277
    Total Energy =                       -270.0953414782060236
  Basis Set: (AUG-CC-PVTZ AUX)
    Blend: AUG-CC-PVTZ-RI
    Molecular point group: c1

    Geometry (in Angstrom), charge = 0, multiplicity = 1:

       Center              X                  Y                   Z               Mass
    ------------   -----------------  -----------------  -----------------  -----------------
         O           -1.261647026392    -0.360009852984     1.142247355581    15.994914619570
         C           -0.635331026392    -0.502526952984    -0.171397144419    12.000000000000
         C            0.797529973608    -0.038743852984    -0.081828644419    12.000000000000
         C           -1.490328026392     0.414375147016    -1.071954644419    12.000000000000
         C            1.140260673608     1.347636847016     0.383356555581    12.000000000000
         C            1.762705973608    -0.914274852984    -0.395693644419    12.000000000000
         H           -0.694008026392    -1.496627852984    -0.510514644419     1.007825032230
         H           -1.079774026392     0.413850147016    -2.085363644419     1.007825032230
         H           -2.513791026392     0.033642147016    -1.100754644419     1.007825032230
         H           -1.518191026392     1.438172147016    -0.695745644419     1.007825032230
         H            0.551641973608     1.559246147016     1.322593355581     1.007825032230
         H            2.160821973608     1.500394147016     0.556139355581     1.007825032230
         H            0.756019973608     2.102070147016    -0.342147644419     1.007825032230
         H            1.528462973608    -1.916549852984    -0.741724644419     1.007825032230
         H            2.814504973608    -0.650578852984    -0.346055644419     1.007825032230
         H           -0.733755026392    -0.919042852984     1.740871355581     1.007825032230

  Basis Set: AUG-CC-PVTZ
    Blend: AUG-CC-PVTZ
  Basis Set: (AUG-CC-PVTZ AUX)
    Blend: AUG-CC-PVTZ-JKFIT
	 Reference Energy          =    -270.0953414782060236 [Eh]
	 Singles Energy            =      -0.0000000000000000 [Eh]
	 Same-Spin Energy          =      -0.2756577445754617 [Eh]
	 Opposite-Spin Energy      =      -0.9510950146760471 [Eh]
	 Correlation Energy        =      -1.2267527592515086 [Eh]
	 Total Energy              =    -271.3220942374575202 [Eh]

	 ================> DF-SCS-MP2 Energies <==================
	-----------------------------------------------------------
	 SCS Same-Spin Scale       =       0.3333333333333333 [-]
	 SCS Opposite-Spin Scale   =       1.2000000000000000 [-]
	 SCS Same-Spin Energy      =      -0.0918859148584872 [Eh]
	 SCS Opposite-Spin Energy  =      -1.1413140176112564 [Eh]
	 SCS Correlation Energy    =      -1.2331999324697436 [Eh]
	 SCS Total Energy          =    -271.3285414106757685 [Eh]
	-----------------------------------------------------------

  Dipole Moment: [D]
     X:     1.1485      Y:    -0.4816      Z:    -0.4249     Total:     1.3159

*** Psi4 exiting successfully. Buy a developer a beer!
