                               Psi4 1.3.2 release

  ==> Input File <==

--------------------------------------------------------------------------
#psi4
#
memory 32 gb

molecule  {
0 1
  O       -1.2523610    -0.3679540     1.1390180
  C       -0.6414680    -0.4631600    -0.1573930
  C        0.8068160    -0.0466880    -0.0850580
  C       -1.4810420     0.4064310    -1.0751840
  C        1.1750661     1.3333849     0.3793810
  C        1.8193347    -0.8729625    -0.3828949
  H       -0.6847220    -1.5045720    -0.5137440
  H       -1.0704880     0.4059060    -2.0885930
  H       -2.5045050     0.0256980    -1.1039840
  H       -1.5089050     1.4302280    -0.6989750
  H        0.5609280     1.5513020     1.3193640
  H        2.1701080     1.4924500     0.5529100
  H        0.7653060     2.0941260    -0.3453770
  H        1.5377490    -1.9244940    -0.7449540
  H        2.8237910    -0.6585230    -0.3492850
  H       -0.7244690    -0.9269870     1.7376420
units angstrom
no_reorient  #important for SAPT in psi4, default
symmetry c1  #important for SAPT in psi4, default
}

set PROPERTIES_ORIGIN ["COM"]
properties('MP2/aug-cc-pvtz', properties = ['dipole'])
--------------------------------------------------------------------------

    Molecular point group: c1
  Charge       = 0
  Multiplicity = 1
  Basis Set: AUG-CC-PVTZ
    Blend: AUG-CC-PVTZ
  Basis Set: (AUG-CC-PVTZ AUX)
    Blend: AUG-CC-PVTZ-JKFIT

    Orbital Energies [Eh]
    ---------------------

    Doubly Occupied:

       1A    -20.559804     2A    -11.288587     3A    -11.242516
       4A    -11.221636     5A    -11.220739     6A    -11.215807
       7A     -1.359095     8A     -1.094344     9A     -1.002754
      10A     -0.932849    11A     -0.851156    12A     -0.739395
      13A     -0.693413    14A     -0.648487    15A     -0.605489
      16A     -0.588930    17A     -0.568297    18A     -0.553015
      19A     -0.533507    20A     -0.516869    21A     -0.493949
      22A     -0.484514    23A     -0.444458    24A     -0.356073

  @DF-RHF Final Energy:  -270.08841338781434

   => Energetics <=

    Nuclear Repulsion Energy =            245.1315560074470739
    One-Electron Energy =                -852.0085743403091101
    Two-Electron Energy =                 336.7886049450476662
    Total Energy =                       -270.0884133878143416
  Basis Set: (AUG-CC-PVTZ AUX)
    Blend: AUG-CC-PVTZ-RI
    Molecular point group: c1

    Geometry (in Angstrom), charge = 0, multiplicity = 1:

       Center              X                  Y                   Z               Mass
    ------------   -----------------  -----------------  -----------------  -----------------
         O           -1.269654971731    -0.372593538047     1.137714179646    15.994914619570
         C           -0.658761971731    -0.467799538047    -0.158696820354    12.000000000000
         C            0.789522028269    -0.051327538047    -0.086361820354    12.000000000000
         C           -1.498335971731     0.401791461953    -1.076487820354    12.000000000000
         C            1.157772128269     1.328745361953     0.378077179646    12.000000000000
         C            1.802040728269    -0.877602038047    -0.384198720354    12.000000000000
         H           -0.702015971731    -1.509211538047    -0.515047820354     1.007825032230
         H           -1.087781971731     0.401266461953    -2.089896820354     1.007825032230
         H           -2.521798971731     0.021058461953    -1.105287820354     1.007825032230
         H           -1.526198971731     1.425588461953    -0.700278820354     1.007825032230
         H            0.543634028269     1.546662461953     1.318060179646     1.007825032230
         H            2.152814028269     1.487810461953     0.551606179646     1.007825032230
         H            0.748012028269     2.089486461953    -0.346680820354     1.007825032230
         H            1.520455028269    -1.929133538047    -0.746257820354     1.007825032230
         H            2.806497028269    -0.663162538047    -0.350588820354     1.007825032230
         H           -0.741762971731    -0.931626538047     1.736338179646     1.007825032230

  Basis Set: AUG-CC-PVTZ
    Blend: AUG-CC-PVTZ
  Basis Set: (AUG-CC-PVTZ AUX)
    Blend: AUG-CC-PVTZ-JKFIT
	 Reference Energy          =    -270.0884133878143416 [Eh]
	 Singles Energy            =      -0.0000000000000000 [Eh]
	 Same-Spin Energy          =      -0.2758090525634815 [Eh]
	 Opposite-Spin Energy      =      -0.9510788874216813 [Eh]
	 Correlation Energy        =      -1.2268879399851629 [Eh]
	 Total Energy              =    -271.3153013277994887 [Eh]

	 ================> DF-SCS-MP2 Energies <==================
	-----------------------------------------------------------
	 SCS Same-Spin Scale       =       0.3333333333333333 [-]
	 SCS Opposite-Spin Scale   =       1.2000000000000000 [-]
	 SCS Same-Spin Energy      =      -0.0919363508544938 [Eh]
	 SCS Opposite-Spin Energy  =      -1.1412946649060176 [Eh]
	 SCS Correlation Energy    =      -1.2332310157605115 [Eh]
	 SCS Total Energy          =    -271.3216444035748509 [Eh]
	-----------------------------------------------------------

  Dipole Moment: [D]
     X:     1.0940      Y:    -0.4188      Z:    -0.3686     Total:     1.2280

*** Psi4 exiting successfully. Buy a developer a beer!
