                               Psi4 1.3.2 release

  ==> Input File <==

--------------------------------------------------------------------------
#psi4
#
memory 32 gb

molecule  {
0 1
  O       -1.2523610    -0.3679540     1.1390180
  C       -0.6414680    -0.4631600    -0.1573930
  C        0.7913845     0.0006823    -0.0679956
  C       -1.4810420     0.4064310    -1.0751840
  C        1.0983630     1.3493650     0.3860570
  C        1.7719920    -0.9222190    -0.3989230
  H       -0.7230680    -1.5030878    -0.5113527
  H       -1.0704880     0.4059060    -2.0885930
  H       -2.5045050     0.0256980    -1.1039840
  H       -1.5089050     1.4302280    -0.6989750
  H        0.5609280     1.5513020     1.3193640
  H        2.1701080     1.4924500     0.5529100
  H        0.7653060     2.0941260    -0.3453770
  H        1.5377490    -1.9244940    -0.7449540
  H        2.8237910    -0.6585230    -0.3492850
  H       -0.7244690    -0.9269870     1.7376420
units angstrom
no_reorient  #important for SAPT in psi4, default
symmetry c1  #important for SAPT in psi4, default
}

set PROPERTIES_ORIGIN ["COM"]
properties('MP2/aug-cc-pvtz', properties = ['dipole'])
--------------------------------------------------------------------------

    Molecular point group: c1
  Charge       = 0
  Multiplicity = 1
  Basis Set: AUG-CC-PVTZ
    Blend: AUG-CC-PVTZ
  Basis Set: (AUG-CC-PVTZ AUX)
    Blend: AUG-CC-PVTZ-JKFIT

    Orbital Energies [Eh]
    ---------------------

    Doubly Occupied:

       1A    -20.556958     2A    -11.284744     3A    -11.247432
       4A    -11.227402     5A    -11.221046     6A    -11.213777
       7A     -1.357480     8A     -1.093690     9A     -0.999833
      10A     -0.937547    11A     -0.844435    12A     -0.737351
      13A     -0.691392    14A     -0.650990    15A     -0.593819
      16A     -0.591435    17A     -0.566938    18A     -0.556412
      19A     -0.531974    20A     -0.523029    21A     -0.516524
      22A     -0.471735    23A     -0.445428    24A     -0.346363

  @DF-RHF Final Energy:  -270.09539030538099

   => Energetics <=

    Nuclear Repulsion Energy =            245.5585084308405044
    One-Electron Energy =                -852.8923269229730977
    Two-Electron Energy =                 337.2384281867516620
    Total Energy =                       -270.0953903053809881
  Basis Set: (AUG-CC-PVTZ AUX)
    Blend: AUG-CC-PVTZ-RI
    Molecular point group: c1

    Geometry (in Angstrom), charge = 0, multiplicity = 1:

       Center              X                  Y                   Z               Mass
    ------------   -----------------  -----------------  -----------------  -----------------
         O           -1.249760575379    -0.374575835480     1.136611238769    15.994914619570
         C           -0.638867575379    -0.469781835480    -0.159799761231    12.000000000000
         C            0.793984924621    -0.005939535480    -0.070402361231    12.000000000000
         C           -1.478441575379     0.399809164520    -1.077590761231    12.000000000000
         C            1.100963424621     1.342743164520     0.383650238769    12.000000000000
         C            1.774592424621    -0.928840835480    -0.401329761231    12.000000000000
         H           -0.720467575379    -1.509709635480    -0.513759461231     1.007825032230
         H           -1.067887575379     0.399284164520    -2.090999761231     1.007825032230
         H           -2.501904575379     0.019076164520    -1.106390761231     1.007825032230
         H           -1.506304575379     1.423606164520    -0.701381761231     1.007825032230
         H            0.563528424621     1.544680164520     1.316957238769     1.007825032230
         H            2.172708424621     1.485828164520     0.550503238769     1.007825032230
         H            0.767906424621     2.087504164520    -0.347783761231     1.007825032230
         H            1.540349424621    -1.931115835480    -0.747360761231     1.007825032230
         H            2.826391424621    -0.665144835480    -0.351691761231     1.007825032230
         H           -0.721868575379    -0.933608835480     1.735235238769     1.007825032230

  Basis Set: AUG-CC-PVTZ
    Blend: AUG-CC-PVTZ
  Basis Set: (AUG-CC-PVTZ AUX)
    Blend: AUG-CC-PVTZ-JKFIT
	 Reference Energy          =    -270.0953903053809881 [Eh]
	 Singles Energy            =      -0.0000000000000000 [Eh]
	 Same-Spin Energy          =      -0.2765426280578138 [Eh]
	 Opposite-Spin Energy      =      -0.9521685504280324 [Eh]
	 Correlation Energy        =      -1.2287111784858462 [Eh]
	 Total Energy              =    -271.3241014838668548 [Eh]

	 ================> DF-SCS-MP2 Energies <==================
	-----------------------------------------------------------
	 SCS Same-Spin Scale       =       0.3333333333333333 [-]
	 SCS Opposite-Spin Scale   =       1.2000000000000000 [-]
	 SCS Same-Spin Energy      =      -0.0921808760192713 [Eh]
	 SCS Opposite-Spin Energy  =      -1.1426022605136388 [Eh]
	 SCS Correlation Energy    =      -1.2347831365329101 [Eh]
	 SCS Total Energy          =    -271.3301734419138711 [Eh]
	-----------------------------------------------------------

  Dipole Moment: [D]
     X:     1.0904      Y:    -0.3829      Z:    -0.3682     Total:     1.2129

*** Psi4 exiting successfully. Buy a developer a beer!
