                               Psi4 1.3.2 release

  ==> Input File <==

--------------------------------------------------------------------------
#psi4
#
memory 32 gb

molecule  {
0 1
  O       -1.2523610    -0.3679540     1.1390180
  C       -0.6414680    -0.4631600    -0.1573930
  C        0.6148264    -0.1018970    -0.0946470
  C       -1.4810420     0.4064310    -1.0751840
  C        1.0983630     1.3493650     0.3860570
  C        1.7719920    -0.9222190    -0.3989230
  H       -0.6847220    -1.5045720    -0.5137440
  H       -1.0704880     0.4059060    -2.0885930
  H       -2.5045050     0.0256980    -1.1039840
  H       -1.5089050     1.4302280    -0.6989750
  H        0.5609280     1.5513020     1.3193640
  H        2.1701080     1.4924500     0.5529100
  H        0.7653060     2.0941260    -0.3453770
  H        1.5377490    -1.9244940    -0.7449540
  H        2.8237910    -0.6585230    -0.3492850
  H       -0.7244690    -0.9269870     1.7376420
units angstrom
no_reorient  #important for SAPT in psi4, default
symmetry c1  #important for SAPT in psi4, default
}

set PROPERTIES_ORIGIN ["COM"]
properties('MP2/aug-cc-pvtz', properties = ['dipole'])
--------------------------------------------------------------------------

    Molecular point group: c1
  Charge       = 0
  Multiplicity = 1
  Basis Set: AUG-CC-PVTZ
    Blend: AUG-CC-PVTZ
  Basis Set: (AUG-CC-PVTZ AUX)
    Blend: AUG-CC-PVTZ-JKFIT

    Orbital Energies [Eh]
    ---------------------

    Doubly Occupied:

       1A    -20.560618     2A    -11.273681     3A    -11.253289
       4A    -11.240036     5A    -11.226008     6A    -11.218555
       7A     -1.366233     8A     -1.108307     9A     -0.990953
      10A     -0.926018    11A     -0.878010    12A     -0.741977
      13A     -0.700077    14A     -0.643583    15A     -0.601424
      16A     -0.596516    17A     -0.560835    18A     -0.549745
      19A     -0.536664    20A     -0.525690    21A     -0.506305
      22A     -0.478545    23A     -0.440876    24A     -0.334348

  @DF-RHF Final Energy:  -270.04119131173820

   => Energetics <=

    Nuclear Repulsion Energy =            246.8964223228937556
    One-Electron Energy =                -855.3586408544176720
    Two-Electron Energy =                 338.4210272197857421
    Total Energy =                       -270.0411913117382028
  Basis Set: (AUG-CC-PVTZ AUX)
    Blend: AUG-CC-PVTZ-RI
    Molecular point group: c1

    Geometry (in Angstrom), charge = 0, multiplicity = 1:

       Center              X                  Y                   Z               Mass
    ------------   -----------------  -----------------  -----------------  -----------------
         O           -1.225594493619    -0.360257233222     1.140354877245    15.994914619570
         C           -0.614701493619    -0.455463233222    -0.156056122755    12.000000000000
         C            0.641592906381    -0.094200233222    -0.093310122755    12.000000000000
         C           -1.454275493619     0.414127766778    -1.073847122755    12.000000000000
         C            1.125129506381     1.357061766778     0.387393877245    12.000000000000
         C            1.798758506381    -0.914522233222    -0.397586122755    12.000000000000
         H           -0.657955493619    -1.496875233222    -0.512407122755     1.007825032230
         H           -1.043721493619     0.413602766778    -2.087256122755     1.007825032230
         H           -2.477738493619     0.033394766778    -1.102647122755     1.007825032230
         H           -1.482138493619     1.437924766778    -0.697638122755     1.007825032230
         H            0.587694506381     1.558998766778     1.320700877245     1.007825032230
         H            2.196874506381     1.500146766778     0.554246877245     1.007825032230
         H            0.792072506381     2.101822766778    -0.344040122755     1.007825032230
         H            1.564515506381    -1.916797233222    -0.743617122755     1.007825032230
         H            2.850557506381    -0.650826233222    -0.347948122755     1.007825032230
         H           -0.697702493619    -0.919290233222     1.738978877245     1.007825032230

  Basis Set: AUG-CC-PVTZ
    Blend: AUG-CC-PVTZ
  Basis Set: (AUG-CC-PVTZ AUX)
    Blend: AUG-CC-PVTZ-JKFIT
	 Reference Energy          =    -270.0411913117382028 [Eh]
	 Singles Energy            =      -0.0000000000000000 [Eh]
	 Same-Spin Energy          =      -0.2798349219280133 [Eh]
	 Opposite-Spin Energy      =      -0.9583307171292265 [Eh]
	 Correlation Energy        =      -1.2381656390572398 [Eh]
	 Total Energy              =    -271.2793569507954317 [Eh]

	 ================> DF-SCS-MP2 Energies <==================
	-----------------------------------------------------------
	 SCS Same-Spin Scale       =       0.3333333333333333 [-]
	 SCS Opposite-Spin Scale   =       1.2000000000000000 [-]
	 SCS Same-Spin Energy      =      -0.0932783073093378 [Eh]
	 SCS Opposite-Spin Energy  =      -1.1499968605550717 [Eh]
	 SCS Correlation Energy    =      -1.2432751678644094 [Eh]
	 SCS Total Energy          =    -271.2844664796025995 [Eh]
	-----------------------------------------------------------

  Dipole Moment: [D]
     X:     1.0835      Y:    -0.4614      Z:    -0.4304     Total:     1.2538

*** Psi4 exiting successfully. Buy a developer a beer!
