                               Psi4 1.3.2 release

  ==> Input File <==

--------------------------------------------------------------------------
#psi4
#
memory 32 gb

molecule  {
0 1
  O       -1.2523610    -0.3679540     1.1390180
  C       -0.6414680    -0.4631600    -0.1573930
  C        0.8068160    -0.0466880    -0.0850580
  C       -1.4870376     0.3850294    -1.0895947
  C        1.0983630     1.3493650     0.3860570
  C        1.7719920    -0.9222190    -0.3989230
  H       -0.6962168    -1.4990006    -0.5281121
  H       -1.0704880     0.4059060    -2.0885930
  H       -2.5045050     0.0256980    -1.1039840
  H       -1.5089050     1.4302280    -0.6989750
  H        0.5609280     1.5513020     1.3193640
  H        2.1701080     1.4924500     0.5529100
  H        0.7653060     2.0941260    -0.3453770
  H        1.5377490    -1.9244940    -0.7449540
  H        2.8237910    -0.6585230    -0.3492850
  H       -0.7244690    -0.9269870     1.7376420
units angstrom
no_reorient  #important for SAPT in psi4, default
symmetry c1  #important for SAPT in psi4, default
}

set PROPERTIES_ORIGIN ["COM"]
properties('MP2/aug-cc-pvtz', properties = ['dipole'])
--------------------------------------------------------------------------

    Molecular point group: c1
  Charge       = 0
  Multiplicity = 1
  Basis Set: AUG-CC-PVTZ
    Blend: AUG-CC-PVTZ
  Basis Set: (AUG-CC-PVTZ AUX)
    Blend: AUG-CC-PVTZ-JKFIT

    Orbital Energies [Eh]
    ---------------------

    Doubly Occupied:

       1A    -20.558545     2A    -11.284175     3A    -11.242193
       4A    -11.222883     5A    -11.221316     6A    -11.214089
       7A     -1.357581     8A     -1.093355     9A     -0.999444
      10A     -0.938194    11A     -0.845981    12A     -0.734968
      13A     -0.691502    14A     -0.649908    15A     -0.597839
      16A     -0.591934    17A     -0.562512    18A     -0.551922
      19A     -0.532682    20A     -0.522540    21A     -0.510001
      22A     -0.476315    23A     -0.440588    24A     -0.359130

  @DF-RHF Final Energy:  -270.10128592207093

   => Energetics <=

    Nuclear Repulsion Energy =            245.4011575688481628
    One-Electron Energy =                -852.6056906558758328
    Two-Electron Energy =                 337.1032471649567697
    Total Energy =                       -270.1012859220709288
  Basis Set: (AUG-CC-PVTZ AUX)
    Blend: AUG-CC-PVTZ-RI
    Molecular point group: c1

    Geometry (in Angstrom), charge = 0, multiplicity = 1:

       Center              X                  Y                   Z               Mass
    ------------   -----------------  -----------------  -----------------  -----------------
         O           -1.251390492341    -0.365035770141     1.141195335835    15.994914619570
         C           -0.640497492341    -0.460241770141    -0.155215664165    12.000000000000
         C            0.807786507659    -0.043769770141    -0.082880664165    12.000000000000
         C           -1.486067092341     0.387947629859    -1.087417364165    12.000000000000
         C            1.099333507659     1.352283229859     0.388234335835    12.000000000000
         C            1.772962507659    -0.919300770141    -0.396745664165    12.000000000000
         H           -0.695246292341    -1.496082370141    -0.525934764165     1.007825032230
         H           -1.069517492341     0.408824229859    -2.086415664165     1.007825032230
         H           -2.503534492341     0.028616229859    -1.101806664165     1.007825032230
         H           -1.507934492341     1.433146229859    -0.696797664165     1.007825032230
         H            0.561898507659     1.554220229859     1.321541335835     1.007825032230
         H            2.171078507659     1.495368229859     0.555087335835     1.007825032230
         H            0.766276507659     2.097044229859    -0.343199664165     1.007825032230
         H            1.538719507659    -1.921575770141    -0.742776664165     1.007825032230
         H            2.824761507659    -0.655604770141    -0.347107664165     1.007825032230
         H           -0.723498492341    -0.924068770141     1.739819335835     1.007825032230

  Basis Set: AUG-CC-PVTZ
    Blend: AUG-CC-PVTZ
  Basis Set: (AUG-CC-PVTZ AUX)
    Blend: AUG-CC-PVTZ-JKFIT
	 Reference Energy          =    -270.1012859220709288 [Eh]
	 Singles Energy            =      -0.0000000000000000 [Eh]
	 Same-Spin Energy          =      -0.2756535955508118 [Eh]
	 Opposite-Spin Energy      =      -0.9506299081386145 [Eh]
	 Correlation Energy        =      -1.2262835036894262 [Eh]
	 Total Energy              =    -271.3275694257603732 [Eh]

	 ================> DF-SCS-MP2 Energies <==================
	-----------------------------------------------------------
	 SCS Same-Spin Scale       =       0.3333333333333333 [-]
	 SCS Opposite-Spin Scale   =       1.2000000000000000 [-]
	 SCS Same-Spin Energy      =      -0.0918845318502706 [Eh]
	 SCS Opposite-Spin Energy  =      -1.1407558897663372 [Eh]
	 SCS Correlation Energy    =      -1.2326404216166078 [Eh]
	 SCS Total Energy          =    -271.3339263436875513 [Eh]
	-----------------------------------------------------------

  Dipole Moment: [D]
     X:     1.1156      Y:    -0.4519      Z:    -0.3812     Total:     1.2626

*** Psi4 exiting successfully. Buy a developer a beer!
