                               Psi4 1.3.2 release

  ==> Input File <==

--------------------------------------------------------------------------
#psi4
#
memory 32 gb

molecule  {
0 1
  O       -1.2523610    -0.3679540     1.1390180
  C       -0.6414680    -0.4631600    -0.1573930
  C        0.8068160    -0.0466880    -0.0850580
  C       -1.4615284     0.4690207    -1.0302925
  C        1.0983630     1.3493650     0.3860570
  C        1.7719920    -0.9222190    -0.3989230
  H       -0.6501725    -1.5193764    -0.4700062
  H       -1.0704880     0.4059060    -2.0885930
  H       -2.5045050     0.0256980    -1.1039840
  H       -1.5089050     1.4302280    -0.6989750
  H        0.5609280     1.5513020     1.3193640
  H        2.1701080     1.4924500     0.5529100
  H        0.7653060     2.0941260    -0.3453770
  H        1.5377490    -1.9244940    -0.7449540
  H        2.8237910    -0.6585230    -0.3492850
  H       -0.7244690    -0.9269870     1.7376420
units angstrom
no_reorient  #important for SAPT in psi4, default
symmetry c1  #important for SAPT in psi4, default
}

set PROPERTIES_ORIGIN ["COM"]
properties('MP2/aug-cc-pvtz', properties = ['dipole'])
--------------------------------------------------------------------------

    Molecular point group: c1
  Charge       = 0
  Multiplicity = 1
  Basis Set: AUG-CC-PVTZ
    Blend: AUG-CC-PVTZ
  Basis Set: (AUG-CC-PVTZ AUX)
    Blend: AUG-CC-PVTZ-JKFIT

    Orbital Energies [Eh]
    ---------------------

    Doubly Occupied:

       1A    -20.556701     2A    -11.285068     3A    -11.240952
       4A    -11.222328     5A    -11.221469     6A    -11.215994
       7A     -1.357501     8A     -1.093895     9A     -0.998172
      10A     -0.938982    11A     -0.848848    12A     -0.734855
      13A     -0.692143    14A     -0.650194    15A     -0.598315
      16A     -0.592197    17A     -0.572985    18A     -0.543842
      19A     -0.531701    20A     -0.517199    21A     -0.509089
      22A     -0.482076    23A     -0.438105    24A     -0.358789

  @DF-RHF Final Energy:  -270.09365674050997

   => Energetics <=

    Nuclear Repulsion Energy =            245.8572487592530251
    One-Electron Energy =                -853.4990095674404529
    Two-Electron Energy =                 337.5481040676774569
    Total Energy =                       -270.0936567405099709
  Basis Set: (AUG-CC-PVTZ AUX)
    Blend: AUG-CC-PVTZ-RI
    Molecular point group: c1

    Geometry (in Angstrom), charge = 0, multiplicity = 1:

       Center              X                  Y                   Z               Mass
    ------------   -----------------  -----------------  -----------------  -----------------
         O           -1.255486019656    -0.376506945383     1.132247285870    15.994914619570
         C           -0.644593019656    -0.471712945383    -0.164163714130    12.000000000000
         C            0.803690980344    -0.055240945383    -0.091828714130    12.000000000000
         C           -1.464653419656     0.460467754617    -1.037063214130    12.000000000000
         C            1.095237980344     1.340812054617     0.379286285870    12.000000000000
         C            1.768866980344    -0.930771945383    -0.405693714130    12.000000000000
         H           -0.653297519656    -1.527929345383    -0.476776914130     1.007825032230
         H           -1.073613019656     0.397353054617    -2.095363714130     1.007825032230
         H           -2.507630019656     0.017145054617    -1.110754714130     1.007825032230
         H           -1.512030019656     1.421675054617    -0.705745714130     1.007825032230
         H            0.557802980344     1.542749054617     1.312593285870     1.007825032230
         H            2.166982980344     1.483897054617     0.546139285870     1.007825032230
         H            0.762180980344     2.085573054617    -0.352147714130     1.007825032230
         H            1.534623980344    -1.933046945383    -0.751724714130     1.007825032230
         H            2.820665980344    -0.667075945383    -0.356055714130     1.007825032230
         H           -0.727594019656    -0.935539945383     1.730871285870     1.007825032230

  Basis Set: AUG-CC-PVTZ
    Blend: AUG-CC-PVTZ
  Basis Set: (AUG-CC-PVTZ AUX)
    Blend: AUG-CC-PVTZ-JKFIT
	 Reference Energy          =    -270.0936567405099709 [Eh]
	 Singles Energy            =      -0.0000000000000000 [Eh]
	 Same-Spin Energy          =      -0.2758795318401272 [Eh]
	 Opposite-Spin Energy      =      -0.9510858124917952 [Eh]
	 Correlation Energy        =      -1.2269653443319224 [Eh]
	 Total Energy              =    -271.3206220848418866 [Eh]

	 ================> DF-SCS-MP2 Energies <==================
	-----------------------------------------------------------
	 SCS Same-Spin Scale       =       0.3333333333333333 [-]
	 SCS Opposite-Spin Scale   =       1.2000000000000000 [-]
	 SCS Same-Spin Energy      =      -0.0919598439467091 [Eh]
	 SCS Opposite-Spin Energy  =      -1.1413029749901542 [Eh]
	 SCS Correlation Energy    =      -1.2332628189368633 [Eh]
	 SCS Total Energy          =    -271.3269195594468215 [Eh]
	-----------------------------------------------------------

  Dipole Moment: [D]
     X:     1.1187      Y:    -0.4191      Z:    -0.3597     Total:     1.2476

*** Psi4 exiting successfully. Buy a developer a beer!
