                               Psi4 1.3.2 release

  ==> Input File <==

--------------------------------------------------------------------------
#psi4
#
memory 32 gb

molecule  {
0 1
  O       -1.2523610    -0.3679540     1.1390180
  C       -0.6339400    -0.4871453    -0.1652282
  C        0.8068160    -0.0466880    -0.0850580
  C       -1.4810420     0.4064310    -1.0751840
  C        1.0983630     1.3493650     0.3860570
  C        1.7556377    -0.9383555    -0.4033300
  H       -0.6847220    -1.5045720    -0.5137440
  H       -1.0704880     0.4059060    -2.0885930
  H       -2.5045050     0.0256980    -1.1039840
  H       -1.5089050     1.4302280    -0.6989750
  H        0.5609280     1.5513020     1.3193640
  H        2.1701080     1.4924500     0.5529100
  H        0.7653060     2.0941260    -0.3453770
  H        1.5377490    -1.9244940    -0.7449540
  H        2.8237910    -0.6585230    -0.3492850
  H       -0.7244690    -0.9269870     1.7376420
units angstrom
no_reorient  #important for SAPT in psi4, default
symmetry c1  #important for SAPT in psi4, default
}

set PROPERTIES_ORIGIN ["COM"]
properties('MP2/aug-cc-pvtz', properties = ['dipole'])
--------------------------------------------------------------------------

    Molecular point group: c1
  Charge       = 0
  Multiplicity = 1
  Basis Set: AUG-CC-PVTZ
    Blend: AUG-CC-PVTZ
  Basis Set: (AUG-CC-PVTZ AUX)
    Blend: AUG-CC-PVTZ-JKFIT

    Orbital Energies [Eh]
    ---------------------

    Doubly Occupied:

       1A    -20.556721     2A    -11.282808     3A    -11.242275
       4A    -11.222634     5A    -11.222570     6A    -11.214195
       7A     -1.352800     8A     -1.093608     9A     -0.996046
      10A     -0.940261    11A     -0.846422    12A     -0.734595
      13A     -0.691685    14A     -0.652121    15A     -0.593065
      16A     -0.588595    17A     -0.563629    18A     -0.549120
      19A     -0.528431    20A     -0.525490    21A     -0.512703
      22A     -0.476984    23A     -0.443423    24A     -0.358918

  @DF-RHF Final Energy:  -270.10054103485697

   => Energetics <=

    Nuclear Repulsion Energy =            245.3327549589952525
    One-Electron Energy =                -852.4883953708766740
    Two-Electron Energy =                 337.0550993770244759
    Total Energy =                       -270.1005410348569740
  Basis Set: (AUG-CC-PVTZ AUX)
    Blend: AUG-CC-PVTZ-RI
    Molecular point group: c1

    Geometry (in Angstrom), charge = 0, multiplicity = 1:

       Center              X                  Y                   Z               Mass
    ------------   -----------------  -----------------  -----------------  -----------------
         O           -1.251130438550    -0.362360634440     1.140724776504    15.994914619570
         C           -0.632709438550    -0.481551934440    -0.163521423496    12.000000000000
         C            0.808046561450    -0.041094634440    -0.083351223496    12.000000000000
         C           -1.479811438550     0.412024365560    -1.073477223496    12.000000000000
         C            1.099593561450     1.354958365560     0.387763776504    12.000000000000
         C            1.756868261450    -0.932762134440    -0.401623223496    12.000000000000
         H           -0.683491438550    -1.498978634440    -0.512037223496     1.007825032230
         H           -1.069257438550     0.411499365560    -2.086886223496     1.007825032230
         H           -2.503274438550     0.031291365560    -1.102277223496     1.007825032230
         H           -1.507674438550     1.435821365560    -0.697268223496     1.007825032230
         H            0.562158561450     1.556895365560     1.321070776504     1.007825032230
         H            2.171338561450     1.498043365560     0.554616776504     1.007825032230
         H            0.766536561450     2.099719365560    -0.343670223496     1.007825032230
         H            1.538979561450    -1.918900634440    -0.743247223496     1.007825032230
         H            2.825021561450    -0.652929634440    -0.347578223496     1.007825032230
         H           -0.723238438550    -0.921393634440     1.739348776504     1.007825032230

  Basis Set: AUG-CC-PVTZ
    Blend: AUG-CC-PVTZ
  Basis Set: (AUG-CC-PVTZ AUX)
    Blend: AUG-CC-PVTZ-JKFIT
	 Reference Energy          =    -270.1005410348569740 [Eh]
	 Singles Energy            =      -0.0000000000000000 [Eh]
	 Same-Spin Energy          =      -0.2756417825448643 [Eh]
	 Opposite-Spin Energy      =      -0.9508105503335473 [Eh]
	 Correlation Energy        =      -1.2264523328784116 [Eh]
	 Total Energy              =    -271.3269933677353833 [Eh]

	 ================> DF-SCS-MP2 Energies <==================
	-----------------------------------------------------------
	 SCS Same-Spin Scale       =       0.3333333333333333 [-]
	 SCS Opposite-Spin Scale   =       1.2000000000000000 [-]
	 SCS Same-Spin Energy      =      -0.0918805941816214 [Eh]
	 SCS Opposite-Spin Energy  =      -1.1409726604002568 [Eh]
	 SCS Correlation Energy    =      -1.2328532545818782 [Eh]
	 SCS Total Energy          =    -271.3333942894388429 [Eh]
	-----------------------------------------------------------

  Dipole Moment: [D]
     X:     1.1293      Y:    -0.4653      Z:    -0.4004     Total:     1.2853

*** Psi4 exiting successfully. Buy a developer a beer!
