                               Psi4 1.3.2 release

  ==> Input File <==

--------------------------------------------------------------------------
#psi4
#
memory 32 gb

molecule  {
0 1
  O       -1.2523610    -0.3679540     1.1390180
  C       -0.6414680    -0.4631600    -0.1573930
  C        0.8068160    -0.0466880    -0.0850580
  C       -1.4682854     0.4484330    -1.0455284
  C        1.0983630     1.3493650     0.3860570
  C        1.7719920    -0.9222190    -0.3989230
  H       -0.6616964    -1.5147614    -0.4846866
  H       -1.0704880     0.4059060    -2.0885930
  H       -2.5045050     0.0256980    -1.1039840
  H       -1.5089050     1.4302280    -0.6989750
  H        0.5609280     1.5513020     1.3193640
  H        2.1701080     1.4924500     0.5529100
  H        0.7653060     2.0941260    -0.3453770
  H        1.5377490    -1.9244940    -0.7449540
  H        2.8237910    -0.6585230    -0.3492850
  H       -0.7244690    -0.9269870     1.7376420
units angstrom
no_reorient  #important for SAPT in psi4, default
symmetry c1  #important for SAPT in psi4, default
}

set PROPERTIES_ORIGIN ["COM"]
properties('MP2/aug-cc-pvtz', properties = ['dipole'])
--------------------------------------------------------------------------

    Molecular point group: c1
  Charge       = 0
  Multiplicity = 1
  Basis Set: AUG-CC-PVTZ
    Blend: AUG-CC-PVTZ
  Basis Set: (AUG-CC-PVTZ AUX)
    Blend: AUG-CC-PVTZ-JKFIT

    Orbital Energies [Eh]
    ---------------------

    Doubly Occupied:

       1A    -20.557109     2A    -11.284660     3A    -11.241217
       4A    -11.222428     5A    -11.221419     6A    -11.215127
       7A     -1.357446     8A     -1.093682     9A     -0.998244
      10A     -0.938743    11A     -0.847738    12A     -0.734698
      13A     -0.692016    14A     -0.650002    15A     -0.597881
      16A     -0.590599    17A     -0.570149    18A     -0.545134
      19A     -0.531186    20A     -0.519622    21A     -0.511163
      22A     -0.481278    23A     -0.439071    24A     -0.358858

  @DF-RHF Final Energy:  -270.09844390454407

   => Energetics <=

    Nuclear Repulsion Energy =            245.7361170864554083
    One-Electron Energy =                -853.2701806446622186
    Two-Electron Energy =                 337.4356196536626840
    Total Energy =                       -270.0984439045440695
  Basis Set: (AUG-CC-PVTZ AUX)
    Blend: AUG-CC-PVTZ-RI
    Molecular point group: c1

    Geometry (in Angstrom), charge = 0, multiplicity = 1:

       Center              X                  Y                   Z               Mass
    ------------   -----------------  -----------------  -----------------  -----------------
         O           -1.254409051300    -0.373690721678     1.134543310127    15.994914619570
         C           -0.643516051300    -0.468896721678    -0.161867689873    12.000000000000
         C            0.804767948700    -0.052424721678    -0.089532689873    12.000000000000
         C           -1.470333451300     0.442696278322    -1.050003089873    12.000000000000
         C            1.096314948700     1.343628278322     0.381582310127    12.000000000000
         C            1.769943948700    -0.927955721678    -0.403397689873    12.000000000000
         H           -0.663744451300    -1.520498121678    -0.489161289873     1.007825032230
         H           -1.072536051300     0.400169278322    -2.093067689873     1.007825032230
         H           -2.506553051300     0.019961278322    -1.108458689873     1.007825032230
         H           -1.510953051300     1.424491278322    -0.703449689873     1.007825032230
         H            0.558879948700     1.545565278322     1.314889310127     1.007825032230
         H            2.168059948700     1.486713278322     0.548435310127     1.007825032230
         H            0.763257948700     2.088389278322    -0.349851689873     1.007825032230
         H            1.535700948700    -1.930230721678    -0.749428689873     1.007825032230
         H            2.821742948700    -0.664259721678    -0.353759689873     1.007825032230
         H           -0.726517051300    -0.932723721678     1.733167310127     1.007825032230

  Basis Set: AUG-CC-PVTZ
    Blend: AUG-CC-PVTZ
  Basis Set: (AUG-CC-PVTZ AUX)
    Blend: AUG-CC-PVTZ-JKFIT
	 Reference Energy          =    -270.0984439045440695 [Eh]
	 Singles Energy            =      -0.0000000000000000 [Eh]
	 Same-Spin Energy          =      -0.2757682344790159 [Eh]
	 Opposite-Spin Energy      =      -0.9508349353761336 [Eh]
	 Correlation Energy        =      -1.2266031698551496 [Eh]
	 Total Energy              =    -271.3250470743992082 [Eh]

	 ================> DF-SCS-MP2 Energies <==================
	-----------------------------------------------------------
	 SCS Same-Spin Scale       =       0.3333333333333333 [-]
	 SCS Opposite-Spin Scale   =       1.2000000000000000 [-]
	 SCS Same-Spin Energy      =      -0.0919227448263386 [Eh]
	 SCS Opposite-Spin Energy  =      -1.1410019224513603 [Eh]
	 SCS Correlation Energy    =      -1.2329246672776990 [Eh]
	 SCS Total Energy          =    -271.3313685718217698 [Eh]
	-----------------------------------------------------------

  Dipole Moment: [D]
     X:     1.1157      Y:    -0.4238      Z:    -0.3662     Total:     1.2483

*** Psi4 exiting successfully. Buy a developer a beer!
