                               Psi4 1.3.2 release

  ==> Input File <==

--------------------------------------------------------------------------
#psi4
#
memory 32 gb

molecule  {
0 1
  O       -1.2523610    -0.3679540     1.1390180
  C       -0.6414680    -0.4631600    -0.1573930
  C        0.7990529    -0.0485154    -0.0746565
  C       -1.4810420     0.4064310    -1.0751840
  C        1.0983630     1.3493650     0.3860570
  C        1.7719920    -0.9222190    -0.3989230
  H       -0.6847220    -1.5045720    -0.5137440
  H       -1.0704880     0.4059060    -2.0885930
  H       -2.5045050     0.0256980    -1.1039840
  H       -1.5089050     1.4302280    -0.6989750
  H        0.5572583     1.5424756     1.3191116
  H        2.1701080     1.4924500     0.5529100
  H        0.7653060     2.0941260    -0.3453770
  H        1.5377490    -1.9244940    -0.7449540
  H        2.8237910    -0.6585230    -0.3492850
  H       -0.7244690    -0.9269870     1.7376420
units angstrom
no_reorient  #important for SAPT in psi4, default
symmetry c1  #important for SAPT in psi4, default
}

set PROPERTIES_ORIGIN ["COM"]
properties('MP2/aug-cc-pvtz', properties = ['dipole'])
--------------------------------------------------------------------------

    Molecular point group: c1
  Charge       = 0
  Multiplicity = 1
  Basis Set: AUG-CC-PVTZ
    Blend: AUG-CC-PVTZ
  Basis Set: (AUG-CC-PVTZ AUX)
    Blend: AUG-CC-PVTZ-JKFIT

    Orbital Energies [Eh]
    ---------------------

    Doubly Occupied:

       1A    -20.557817     2A    -11.284013     3A    -11.242452
       4A    -11.223546     5A    -11.221396     6A    -11.214482
       7A     -1.357746     8A     -1.093264     9A     -0.998800
      10A     -0.937706    11A     -0.847522    12A     -0.734999
      13A     -0.691811    14A     -0.649749    15A     -0.597248
      16A     -0.591155    17A     -0.564891    18A     -0.549336
      19A     -0.531500    20A     -0.522963    21A     -0.510681
      22A     -0.478898    23A     -0.441549    24A     -0.357242

  @DF-RHF Final Energy:  -270.10161182260072

   => Energetics <=

    Nuclear Repulsion Energy =            245.5784280101986781
    One-Electron Energy =                -852.9585436660649975
    Two-Electron Energy =                 337.2785038332656313
    Total Energy =                       -270.1016118226007166
  Basis Set: (AUG-CC-PVTZ AUX)
    Blend: AUG-CC-PVTZ-RI
    Molecular point group: c1

    Geometry (in Angstrom), charge = 0, multiplicity = 1:

       Center              X                  Y                   Z               Mass
    ------------   -----------------  -----------------  -----------------  -----------------
         O           -1.251235697657    -0.367596149289     1.137570831542    15.994914619570
         C           -0.640342697657    -0.462802149289    -0.158840168458    12.000000000000
         C            0.800178202343    -0.048157549289    -0.076103668458    12.000000000000
         C           -1.479916697657     0.406788850711    -1.076631168458    12.000000000000
         C            1.099488302343     1.349722850711     0.384609831542    12.000000000000
         C            1.773117302343    -0.921861149289    -0.400370168458    12.000000000000
         H           -0.683596697657    -1.504214149289    -0.515191168458     1.007825032230
         H           -1.069362697657     0.406263850711    -2.090040168458     1.007825032230
         H           -2.503379697657     0.026055850711    -1.105431168458     1.007825032230
         H           -1.507779697657     1.430585850711    -0.700422168458     1.007825032230
         H            0.558383602343     1.542833450711     1.317664431542     1.007825032230
         H            2.171233302343     1.492807850711     0.551462831542     1.007825032230
         H            0.766431302343     2.094483850711    -0.346824168458     1.007825032230
         H            1.538874302343    -1.924136149289    -0.746401168458     1.007825032230
         H            2.824916302343    -0.658165149289    -0.350732168458     1.007825032230
         H           -0.723343697657    -0.926629149289     1.736194831542     1.007825032230

  Basis Set: AUG-CC-PVTZ
    Blend: AUG-CC-PVTZ
  Basis Set: (AUG-CC-PVTZ AUX)
    Blend: AUG-CC-PVTZ-JKFIT
	 Reference Energy          =    -270.1016118226007166 [Eh]
	 Singles Energy            =      -0.0000000000000000 [Eh]
	 Same-Spin Energy          =      -0.2757781069707184 [Eh]
	 Opposite-Spin Energy      =      -0.9508288063768953 [Eh]
	 Correlation Energy        =      -1.2266069133476136 [Eh]
	 Total Energy              =    -271.3282187359483260 [Eh]

	 ================> DF-SCS-MP2 Energies <==================
	-----------------------------------------------------------
	 SCS Same-Spin Scale       =       0.3333333333333333 [-]
	 SCS Opposite-Spin Scale   =       1.2000000000000000 [-]
	 SCS Same-Spin Energy      =      -0.0919260356569061 [Eh]
	 SCS Opposite-Spin Energy  =      -1.1409945676522744 [Eh]
	 SCS Correlation Energy    =      -1.2329206033091804 [Eh]
	 SCS Total Energy          =    -271.3345324259099129 [Eh]
	-----------------------------------------------------------

  Dipole Moment: [D]
     X:     1.1096      Y:    -0.4349      Z:    -0.3920     Total:     1.2546

*** Psi4 exiting successfully. Buy a developer a beer!
