                               Psi4 1.3.2 release

  ==> Input File <==

--------------------------------------------------------------------------
#psi4
#
memory 32 gb

molecule  {
0 1
  O       -1.2523610    -0.3679540     1.1390180
  C       -0.6414680    -0.4631600    -0.1573930
  C        0.7913125    -0.0502363    -0.0642199
  C       -1.4810420     0.4064310    -1.0751840
  C        1.0983630     1.3493650     0.3860570
  C        1.7719920    -0.9222190    -0.3989230
  H       -0.6847220    -1.5045720    -0.5137440
  H       -1.0704880     0.4059060    -2.0885930
  H       -2.5045050     0.0256980    -1.1039840
  H       -1.5089050     1.4302280    -0.6989750
  H        0.5536298     1.5336344     1.3187882
  H        2.1701080     1.4924500     0.5529100
  H        0.7653060     2.0941260    -0.3453770
  H        1.5377490    -1.9244940    -0.7449540
  H        2.8237910    -0.6585230    -0.3492850
  H       -0.7244690    -0.9269870     1.7376420
units angstrom
no_reorient  #important for SAPT in psi4, default
symmetry c1  #important for SAPT in psi4, default
}

set PROPERTIES_ORIGIN ["COM"]
properties('MP2/aug-cc-pvtz', properties = ['dipole'])
--------------------------------------------------------------------------

    Molecular point group: c1
  Charge       = 0
  Multiplicity = 1
  Basis Set: AUG-CC-PVTZ
    Blend: AUG-CC-PVTZ
  Basis Set: (AUG-CC-PVTZ AUX)
    Blend: AUG-CC-PVTZ-JKFIT

    Orbital Energies [Eh]
    ---------------------

    Doubly Occupied:

       1A    -20.557606     2A    -11.283809     3A    -11.243096
       4A    -11.224413     5A    -11.221460     6A    -11.214794
       7A     -1.358022     8A     -1.093142     9A     -0.998712
      10A     -0.937061    11A     -0.848701    12A     -0.735241
      13A     -0.691964    14A     -0.649602    15A     -0.596822
      16A     -0.591497    17A     -0.565470    18A     -0.549661
      19A     -0.531674    20A     -0.522686    21A     -0.510137
      22A     -0.479321    23A     -0.442606    24A     -0.355433

  @DF-RHF Final Energy:  -270.10073923881384

   => Energetics <=

    Nuclear Repulsion Energy =            245.6474354811567480
    One-Electron Energy =                -853.0904912752292830
    Two-Electron Energy =                 337.3423165552586624
    Total Energy =                       -270.1007392388138442
  Basis Set: (AUG-CC-PVTZ AUX)
    Blend: AUG-CC-PVTZ-RI
    Molecular point group: c1

    Geometry (in Angstrom), charge = 0, multiplicity = 1:

       Center              X                  Y                   Z               Mass
    ------------   -----------------  -----------------  -----------------  -----------------
         O           -1.250114074057    -0.367252706792     1.136119586320    15.994914619570
         C           -0.639221074057    -0.462458706792    -0.160291413680    12.000000000000
         C            0.793559425943    -0.049535006792    -0.067118313680    12.000000000000
         C           -1.478795074057     0.407132293208    -1.078082413680    12.000000000000
         C            1.100609925943     1.350066293208     0.383158586320    12.000000000000
         C            1.774238925943    -0.921517706792    -0.401821413680    12.000000000000
         H           -0.682475074057    -1.503870706792    -0.516642413680     1.007825032230
         H           -1.068241074057     0.406607293208    -2.091491413680     1.007825032230
         H           -2.502258074057     0.026399293208    -1.106882413680     1.007825032230
         H           -1.506658074057     1.430929293208    -0.701873413680     1.007825032230
         H            0.555876725943     1.534335693208     1.315889786320     1.007825032230
         H            2.172354925943     1.493151293208     0.550011586320     1.007825032230
         H            0.767552925943     2.094827293208    -0.348275413680     1.007825032230
         H            1.539995925943    -1.923792706792    -0.747852413680     1.007825032230
         H            2.826037925943    -0.657821706792    -0.352183413680     1.007825032230
         H           -0.722222074057    -0.926285706792     1.734743586320     1.007825032230

  Basis Set: AUG-CC-PVTZ
    Blend: AUG-CC-PVTZ
  Basis Set: (AUG-CC-PVTZ AUX)
    Blend: AUG-CC-PVTZ-JKFIT
	 Reference Energy          =    -270.1007392388138442 [Eh]
	 Singles Energy            =      -0.0000000000000000 [Eh]
	 Same-Spin Energy          =      -0.2759163269492666 [Eh]
	 Opposite-Spin Energy      =      -0.9510811288326768 [Eh]
	 Correlation Energy        =      -1.2269974557819434 [Eh]
	 Total Energy              =    -271.3277366945957851 [Eh]

	 ================> DF-SCS-MP2 Energies <==================
	-----------------------------------------------------------
	 SCS Same-Spin Scale       =       0.3333333333333333 [-]
	 SCS Opposite-Spin Scale   =       1.2000000000000000 [-]
	 SCS Same-Spin Energy      =      -0.0919721089830889 [Eh]
	 SCS Opposite-Spin Energy  =      -1.1412973545992122 [Eh]
	 SCS Correlation Energy    =      -1.2332694635823012 [Eh]
	 SCS Total Energy          =    -271.3340087023961473 [Eh]
	-----------------------------------------------------------

  Dipole Moment: [D]
     X:     1.1050      Y:    -0.4298      Z:    -0.4073     Total:     1.2537

*** Psi4 exiting successfully. Buy a developer a beer!
