                               Psi4 1.3.2 release

  ==> Input File <==

--------------------------------------------------------------------------
#psi4
#
memory 32 gb

molecule  {
0 1
  O       -1.2523610    -0.3679540     1.1390180
  C       -0.6414680    -0.4631600    -0.1573930
  C        0.7108212    -0.0742925    -0.0898525
  C       -1.4810420     0.4064310    -1.0751840
  C        1.0983630     1.3493650     0.3860570
  C        1.7719920    -0.9222190    -0.3989230
  H       -0.6847220    -1.5045720    -0.5137440
  H       -1.0704880     0.4059060    -2.0885930
  H       -2.5045050     0.0256980    -1.1039840
  H       -1.5089050     1.4302280    -0.6989750
  H        0.5609280     1.5513020     1.3193640
  H        2.1701080     1.4924500     0.5529100
  H        0.7653060     2.0941260    -0.3453770
  H        1.5377490    -1.9244940    -0.7449540
  H        2.8237910    -0.6585230    -0.3492850
  H       -0.7244690    -0.9269870     1.7376420
units angstrom
no_reorient  #important for SAPT in psi4, default
symmetry c1  #important for SAPT in psi4, default
}

set PROPERTIES_ORIGIN ["COM"]
properties('MP2/aug-cc-pvtz', properties = ['dipole'])
--------------------------------------------------------------------------

    Molecular point group: c1
  Charge       = 0
  Multiplicity = 1
  Basis Set: AUG-CC-PVTZ
    Blend: AUG-CC-PVTZ
  Basis Set: (AUG-CC-PVTZ AUX)
    Blend: AUG-CC-PVTZ-JKFIT

    Orbital Energies [Eh]
    ---------------------

    Doubly Occupied:

       1A    -20.559071     2A    -11.279851     3A    -11.247649
       4A    -11.231165     5A    -11.223355     6A    -11.216002
       7A     -1.361228     8A     -1.096660     9A     -0.996198
      10A     -0.930609    11A     -0.862430    12A     -0.738848
      13A     -0.694781    14A     -0.647426    15A     -0.597315
      16A     -0.594672    17A     -0.562505    18A     -0.548805
      19A     -0.533394    20A     -0.523087    21A     -0.499984
      22A     -0.485074    23A     -0.448278    24A     -0.347081

  @DF-RHF Final Energy:  -270.08664705170690

   => Energetics <=

    Nuclear Repulsion Energy =            246.1238013743474369
    One-Electron Energy =                -853.9699579352014780
    Two-Electron Energy =                 337.7595095091471649
    Total Energy =                       -270.0866470517069047
  Basis Set: (AUG-CC-PVTZ AUX)
    Blend: AUG-CC-PVTZ-RI
    Molecular point group: c1

    Geometry (in Angstrom), charge = 0, multiplicity = 1:

       Center              X                  Y                   Z               Mass
    ------------   -----------------  -----------------  -----------------  -----------------
         O           -1.238977731017    -0.364105749774     1.139686445916    15.994914619570
         C           -0.628084731017    -0.459311749774    -0.156724554084    12.000000000000
         C            0.724204468983    -0.070444249774    -0.089184054084    12.000000000000
         C           -1.467658731017     0.410279250226    -1.074515554084    12.000000000000
         C            1.111746268983     1.353213250226     0.386725445916    12.000000000000
         C            1.785375268983    -0.918370749774    -0.398254554084    12.000000000000
         H           -0.671338731017    -1.500723749774    -0.513075554084     1.007825032230
         H           -1.057104731017     0.409754250226    -2.087924554084     1.007825032230
         H           -2.491121731017     0.029546250226    -1.103315554084     1.007825032230
         H           -1.495521731017     1.434076250226    -0.698306554084     1.007825032230
         H            0.574311268983     1.555150250226     1.320032445916     1.007825032230
         H            2.183491268983     1.496298250226     0.553578445916     1.007825032230
         H            0.778689268983     2.097974250226    -0.344708554084     1.007825032230
         H            1.551132268983    -1.920645749774    -0.744285554084     1.007825032230
         H            2.837174268983    -0.654674749774    -0.348616554084     1.007825032230
         H           -0.711085731017    -0.923138749774     1.738310445916     1.007825032230

  Basis Set: AUG-CC-PVTZ
    Blend: AUG-CC-PVTZ
  Basis Set: (AUG-CC-PVTZ AUX)
    Blend: AUG-CC-PVTZ-JKFIT
	 Reference Energy          =    -270.0866470517069047 [Eh]
	 Singles Energy            =      -0.0000000000000000 [Eh]
	 Same-Spin Energy          =      -0.2770887329210399 [Eh]
	 Opposite-Spin Energy      =      -0.9533542316467756 [Eh]
	 Correlation Energy        =      -1.2304429645678154 [Eh]
	 Total Energy              =    -271.3170900162747330 [Eh]

	 ================> DF-SCS-MP2 Energies <==================
	-----------------------------------------------------------
	 SCS Same-Spin Scale       =       0.3333333333333333 [-]
	 SCS Opposite-Spin Scale   =       1.2000000000000000 [-]
	 SCS Same-Spin Energy      =      -0.0923629109736799 [Eh]
	 SCS Opposite-Spin Energy  =      -1.1440250779761307 [Eh]
	 SCS Correlation Energy    =      -1.2363879889498106 [Eh]
	 SCS Total Energy          =    -271.3230350406566913 [Eh]
	-----------------------------------------------------------

  Dipole Moment: [D]
     X:     1.1094      Y:    -0.4544      Z:    -0.4039     Total:     1.2651

*** Psi4 exiting successfully. Buy a developer a beer!
