                               Psi4 1.3.2 release

  ==> Input File <==

--------------------------------------------------------------------------
#psi4
#
memory 32 gb

molecule  {
0 1
  O       -1.2523610    -0.3679540     1.1390180
  C       -0.6501689    -0.4554042    -0.1620020
  C        0.8068160    -0.0466880    -0.0850580
  C       -1.4810420     0.4064310    -1.0751840
  C        1.0983630     1.3493650     0.3860570
  C        1.7719920    -0.9222190    -0.3989230
  H       -0.6847220    -1.5045720    -0.5137440
  H       -1.0704880     0.4059060    -2.0885930
  H       -2.5045050     0.0256980    -1.1039840
  H       -1.5089050     1.4302280    -0.6989750
  H        0.5609280     1.5513020     1.3193640
  H        2.1701080     1.4924500     0.5529100
  H        0.7653060     2.0941260    -0.3453770
  H        1.5377490    -1.9244940    -0.7449540
  H        2.8237910    -0.6585230    -0.3492850
  H       -0.7296388    -0.9249211     1.7440698
units angstrom
no_reorient  #important for SAPT in psi4, default
symmetry c1  #important for SAPT in psi4, default
}

set PROPERTIES_ORIGIN ["COM"]
properties('MP2/aug-cc-pvtz', properties = ['dipole'])
--------------------------------------------------------------------------

    Molecular point group: c1
  Charge       = 0
  Multiplicity = 1
  Basis Set: AUG-CC-PVTZ
    Blend: AUG-CC-PVTZ
  Basis Set: (AUG-CC-PVTZ AUX)
    Blend: AUG-CC-PVTZ-JKFIT

    Orbital Energies [Eh]
    ---------------------

    Doubly Occupied:

       1A    -20.557543     2A    -11.284717     3A    -11.241928
       4A    -11.222426     5A    -11.221066     6A    -11.214077
       7A     -1.356880     8A     -1.092838     9A     -1.001482
      10A     -0.937910    11A     -0.845350    12A     -0.734691
      13A     -0.691480    14A     -0.649576    15A     -0.597387
      16A     -0.591017    17A     -0.564472    18A     -0.549268
      19A     -0.532994    20A     -0.523077    21A     -0.510850
      22A     -0.479139    23A     -0.438141    24A     -0.358964

  @DF-RHF Final Energy:  -270.10206460008101

   => Energetics <=

    Nuclear Repulsion Energy =            245.5015602399763566
    One-Electron Energy =                -852.8127079206592498
    Two-Electron Energy =                 337.2090830806018857
    Total Energy =                       -270.1020646000810075
  Basis Set: (AUG-CC-PVTZ AUX)
    Blend: AUG-CC-PVTZ-RI
    Molecular point group: c1

    Geometry (in Angstrom), charge = 0, multiplicity = 1:

       Center              X                  Y                   Z               Mass
    ------------   -----------------  -----------------  -----------------  -----------------
         O           -1.251087388502    -0.369059740557     1.139585321509    15.994914619570
         C           -0.648895288502    -0.456509940557    -0.161434678491    12.000000000000
         C            0.808089611498    -0.047793740557    -0.084490678491    12.000000000000
         C           -1.479768388502     0.405325259443    -1.074616678491    12.000000000000
         C            1.099636611498     1.348259259443     0.386624321509    12.000000000000
         C            1.773265611498    -0.923324740557    -0.398355678491    12.000000000000
         H           -0.683448388502    -1.505677740557    -0.513176678491     1.007825032230
         H           -1.069214388502     0.404800259443    -2.088025678491     1.007825032230
         H           -2.503231388502     0.024592259443    -1.103416678491     1.007825032230
         H           -1.507631388502     1.429122259443    -0.698407678491     1.007825032230
         H            0.562201611498     1.550196259443     1.319931321509     1.007825032230
         H            2.171381611498     1.491344259443     0.553477321509     1.007825032230
         H            0.766579611498     2.093020259443    -0.344809678491     1.007825032230
         H            1.539022611498    -1.925599740557    -0.744386678491     1.007825032230
         H            2.825064611498    -0.659628740557    -0.348717678491     1.007825032230
         H           -0.728365188502    -0.926026840557     1.744637121509     1.007825032230

  Basis Set: AUG-CC-PVTZ
    Blend: AUG-CC-PVTZ
  Basis Set: (AUG-CC-PVTZ AUX)
    Blend: AUG-CC-PVTZ-JKFIT
	 Reference Energy          =    -270.1020646000810075 [Eh]
	 Singles Energy            =      -0.0000000000000000 [Eh]
	 Same-Spin Energy          =      -0.2756443662887969 [Eh]
	 Opposite-Spin Energy      =      -0.9505397615505606 [Eh]
	 Correlation Energy        =      -1.2261841278393575 [Eh]
	 Total Energy              =    -271.3282487279203679 [Eh]

	 ================> DF-SCS-MP2 Energies <==================
	-----------------------------------------------------------
	 SCS Same-Spin Scale       =       0.3333333333333333 [-]
	 SCS Opposite-Spin Scale   =       1.2000000000000000 [-]
	 SCS Same-Spin Energy      =      -0.0918814554295990 [Eh]
	 SCS Opposite-Spin Energy  =      -1.1406477138606728 [Eh]
	 SCS Correlation Energy    =      -1.2325291692902718 [Eh]
	 SCS Total Energy          =    -271.3345937693712813 [Eh]
	-----------------------------------------------------------

  Dipole Moment: [D]
     X:     1.0915      Y:    -0.4280      Z:    -0.3816     Total:     1.2330

*** Psi4 exiting successfully. Buy a developer a beer!
