                               Psi4 1.3.2 release

  ==> Input File <==

--------------------------------------------------------------------------
#psi4
#
memory 32 gb

molecule  {
0 1
  O       -1.2868489    -0.3372201     1.1195403
  C       -0.6414680    -0.4631600    -0.1573930
  C        0.8068160    -0.0466880    -0.0850580
  C       -1.5122460     0.4181478    -1.0340090
  C        1.0983630     1.3493650     0.3860570
  C        1.7719920    -0.9222190    -0.3989230
  H       -0.6847220    -1.5045720    -0.5137440
  H       -1.0704880     0.4059060    -2.0885930
  H       -2.5045050     0.0256980    -1.1039840
  H       -1.5089050     1.4302280    -0.6989750
  H        0.5609280     1.5513020     1.3193640
  H        2.1701080     1.4924500     0.5529100
  H        0.7653060     2.0941260    -0.3453770
  H        1.5377490    -1.9244940    -0.7449540
  H        2.8237910    -0.6585230    -0.3492850
  H       -0.7244690    -0.9269870     1.7376420
units angstrom
no_reorient  #important for SAPT in psi4, default
symmetry c1  #important for SAPT in psi4, default
}

set PROPERTIES_ORIGIN ["COM"]
properties('MP2/aug-cc-pvtz', properties = ['dipole'])
--------------------------------------------------------------------------

    Molecular point group: c1
  Charge       = 0
  Multiplicity = 1
  Basis Set: AUG-CC-PVTZ
    Blend: AUG-CC-PVTZ
  Basis Set: (AUG-CC-PVTZ AUX)
    Blend: AUG-CC-PVTZ-JKFIT

    Orbital Energies [Eh]
    ---------------------

    Doubly Occupied:

       1A    -20.562838     2A    -11.283585     3A    -11.243042
       4A    -11.224291     5A    -11.221898     6A    -11.212689
       7A     -1.350291     8A     -1.092645     9A     -0.996310
      10A     -0.939201    11A     -0.846001    12A     -0.731235
      13A     -0.684894    14A     -0.651872    15A     -0.598649
      16A     -0.590547    17A     -0.566026    18A     -0.551778
      19A     -0.528102    20A     -0.514157    21A     -0.506718
      22A     -0.480796    23A     -0.442029    24A     -0.360230

  @DF-RHF Final Energy:  -270.09258706143044

   => Energetics <=

    Nuclear Repulsion Energy =            245.3967068461887777
    One-Electron Energy =                -852.6189386224772306
    Two-Electron Energy =                 337.1296447148580455
    Total Energy =                       -270.0925870614304358
  Basis Set: (AUG-CC-PVTZ AUX)
    Blend: AUG-CC-PVTZ-RI
    Molecular point group: c1

    Geometry (in Angstrom), charge = 0, multiplicity = 1:

       Center              X                  Y                   Z               Mass
    ------------   -----------------  -----------------  -----------------  -----------------
         O           -1.276089661215    -0.344565137567     1.117419376527    15.994914619570
         C           -0.630708761215    -0.470505037567    -0.159513923473    12.000000000000
         C            0.817575238785    -0.054033037567    -0.087178923473    12.000000000000
         C           -1.501486761215     0.410802762433    -1.036129923473    12.000000000000
         C            1.109122238785     1.342019962433     0.383936076527    12.000000000000
         C            1.782751238785    -0.929564037567    -0.401043923473    12.000000000000
         H           -0.673962761215    -1.511917037567    -0.515864923473     1.007825032230
         H           -1.059728761215     0.398560962433    -2.090713923473     1.007825032230
         H           -2.493745761215     0.018352962433    -1.106104923473     1.007825032230
         H           -1.498145761215     1.422882962433    -0.701095923473     1.007825032230
         H            0.571687238785     1.543956962433     1.317243076527     1.007825032230
         H            2.180867238785     1.485104962433     0.550789076527     1.007825032230
         H            0.776065238785     2.086780962433    -0.347497923473     1.007825032230
         H            1.548508238785    -1.931839037567    -0.747074923473     1.007825032230
         H            2.834550238785    -0.665868037567    -0.351405923473     1.007825032230
         H           -0.713709761215    -0.934332037567     1.735521076527     1.007825032230

  Basis Set: AUG-CC-PVTZ
    Blend: AUG-CC-PVTZ
  Basis Set: (AUG-CC-PVTZ AUX)
    Blend: AUG-CC-PVTZ-JKFIT
	 Reference Energy          =    -270.0925870614304358 [Eh]
	 Singles Energy            =      -0.0000000000000000 [Eh]
	 Same-Spin Energy          =      -0.2765117238906663 [Eh]
	 Opposite-Spin Energy      =      -0.9527768282485876 [Eh]
	 Correlation Energy        =      -1.2292885521392538 [Eh]
	 Total Energy              =    -271.3218756135697163 [Eh]

	 ================> DF-SCS-MP2 Energies <==================
	-----------------------------------------------------------
	 SCS Same-Spin Scale       =       0.3333333333333333 [-]
	 SCS Opposite-Spin Scale   =       1.2000000000000000 [-]
	 SCS Same-Spin Energy      =      -0.0921705746302221 [Eh]
	 SCS Opposite-Spin Energy  =      -1.1433321938983050 [Eh]
	 SCS Correlation Energy    =      -1.2355027685285271 [Eh]
	 SCS Total Energy          =    -271.3280898299589694 [Eh]
	-----------------------------------------------------------

  Dipole Moment: [D]
     X:     1.1823      Y:    -0.4824      Z:    -0.3104     Total:     1.3141

*** Psi4 exiting successfully. Buy a developer a beer!
