                               Psi4 1.3.2 release

  ==> Input File <==

--------------------------------------------------------------------------
#psi4
#
memory 32 gb

molecule  {
0 1
  O       -1.2523610    -0.3679540     1.1390180
  C       -0.6414680    -0.4631600    -0.1573930
  C        0.7993197    -0.0229358    -0.0765145
  C       -1.4810420     0.4064310    -1.0751840
  C        1.0983630     1.3493650     0.3860570
  C        1.7719920    -0.9222190    -0.3989230
  H       -0.7039045    -1.5039884    -0.5126024
  H       -1.0704880     0.4059060    -2.0885930
  H       -2.5045050     0.0256980    -1.1039840
  H       -1.5089050     1.4302280    -0.6989750
  H        0.5609280     1.5513020     1.3193640
  H        2.1701080     1.4924500     0.5529100
  H        0.7653060     2.0941260    -0.3453770
  H        1.5377490    -1.9244940    -0.7449540
  H        2.8237910    -0.6585230    -0.3492850
  H       -0.7244690    -0.9269870     1.7376420
units angstrom
no_reorient  #important for SAPT in psi4, default
symmetry c1  #important for SAPT in psi4, default
}

set PROPERTIES_ORIGIN ["COM"]
properties('MP2/aug-cc-pvtz', properties = ['dipole'])
--------------------------------------------------------------------------

    Molecular point group: c1
  Charge       = 0
  Multiplicity = 1
  Basis Set: AUG-CC-PVTZ
    Blend: AUG-CC-PVTZ
  Basis Set: (AUG-CC-PVTZ AUX)
    Blend: AUG-CC-PVTZ-JKFIT

    Orbital Energies [Eh]
    ---------------------

    Doubly Occupied:

       1A    -20.557471     2A    -11.284416     3A    -11.244601
       4A    -11.225116     5A    -11.221211     6A    -11.213949
       7A     -1.357454     8A     -1.093214     9A     -0.999114
      10A     -0.938248    11A     -0.845335    12A     -0.736017
      13A     -0.691526    14A     -0.650371    15A     -0.594981
      16A     -0.591735    17A     -0.565618    18A     -0.552496
      19A     -0.531647    20A     -0.523261    21A     -0.513915
      22A     -0.475166    23A     -0.443215    24A     -0.352655

  @DF-RHF Final Energy:  -270.09987307664960

   => Energetics <=

    Nuclear Repulsion Energy =            245.5278108295999573
    One-Electron Energy =                -852.8499053486667663
    Two-Electron Energy =                 337.2222214424172080
    Total Energy =                       -270.0998730766496010
  Basis Set: (AUG-CC-PVTZ AUX)
    Blend: AUG-CC-PVTZ-RI
    Molecular point group: c1

    Geometry (in Angstrom), charge = 0, multiplicity = 1:

       Center              X                  Y                   Z               Mass
    ------------   -----------------  -----------------  -----------------  -----------------
         O           -1.251091255563    -0.371272542899     1.137813544726    15.994914619570
         C           -0.640198255563    -0.466478542899    -0.158597455274    12.000000000000
         C            0.800589444437    -0.026254342899    -0.077718955274    12.000000000000
         C           -1.479772255563     0.403112457101    -1.076388455274    12.000000000000
         C            1.099632744437     1.346046457101     0.384852544726    12.000000000000
         C            1.773261744437    -0.925537542899    -0.400127455274    12.000000000000
         H           -0.702634755563    -1.507306942899    -0.513806855274     1.007825032230
         H           -1.069218255563     0.402587457101    -2.089797455274     1.007825032230
         H           -2.503235255563     0.022379457101    -1.105188455274     1.007825032230
         H           -1.507635255563     1.426909457101    -0.700179455274     1.007825032230
         H            0.562197744437     1.547983457101     1.318159544726     1.007825032230
         H            2.171377744437     1.489131457101     0.551705544726     1.007825032230
         H            0.766575744437     2.090807457101    -0.346581455274     1.007825032230
         H            1.539018744437    -1.927812542899    -0.746158455274     1.007825032230
         H            2.825060744437    -0.661841542899    -0.350489455274     1.007825032230
         H           -0.723199255563    -0.930305542899     1.736437544726     1.007825032230

  Basis Set: AUG-CC-PVTZ
    Blend: AUG-CC-PVTZ
  Basis Set: (AUG-CC-PVTZ AUX)
    Blend: AUG-CC-PVTZ-JKFIT
	 Reference Energy          =    -270.0998730766496010 [Eh]
	 Singles Energy            =      -0.0000000000000000 [Eh]
	 Same-Spin Energy          =      -0.2760573678206816 [Eh]
	 Opposite-Spin Energy      =      -0.9513164257628303 [Eh]
	 Correlation Energy        =      -1.2273737935835118 [Eh]
	 Total Energy              =    -271.3272468702331253 [Eh]

	 ================> DF-SCS-MP2 Energies <==================
	-----------------------------------------------------------
	 SCS Same-Spin Scale       =       0.3333333333333333 [-]
	 SCS Opposite-Spin Scale   =       1.2000000000000000 [-]
	 SCS Same-Spin Energy      =      -0.0920191226068939 [Eh]
	 SCS Opposite-Spin Energy  =      -1.1415797109153962 [Eh]
	 SCS Correlation Energy    =      -1.2335988335222901 [Eh]
	 SCS Total Energy          =    -271.3334719101719088 [Eh]
	-----------------------------------------------------------

  Dipole Moment: [D]
     X:     1.1030      Y:    -0.4121      Z:    -0.3727     Total:     1.2351

*** Psi4 exiting successfully. Buy a developer a beer!
