                               Psi4 1.3.2 release

  ==> Input File <==

--------------------------------------------------------------------------
#psi4
#
memory 32 gb

molecule  {
0 1
  O       -1.2523610    -0.3679540     1.1390180
  C       -0.6414680    -0.4631600    -0.1573930
  C        0.8204830    -0.0945658    -0.1022086
  C       -1.4810420     0.4064310    -1.0751840
  C        1.0983630     1.3493650     0.3860570
  C        1.7719920    -0.9222190    -0.3989230
  H       -0.6463233    -1.5047874    -0.5157012
  H       -1.0704880     0.4059060    -2.0885930
  H       -2.5045050     0.0256980    -1.1039840
  H       -1.5089050     1.4302280    -0.6989750
  H        0.5609280     1.5513020     1.3193640
  H        2.1701080     1.4924500     0.5529100
  H        0.7653060     2.0941260    -0.3453770
  H        1.5377490    -1.9244940    -0.7449540
  H        2.8237910    -0.6585230    -0.3492850
  H       -0.7244690    -0.9269870     1.7376420
units angstrom
no_reorient  #important for SAPT in psi4, default
symmetry c1  #important for SAPT in psi4, default
}

set PROPERTIES_ORIGIN ["COM"]
properties('MP2/aug-cc-pvtz', properties = ['dipole'])
--------------------------------------------------------------------------

    Molecular point group: c1
  Charge       = 0
  Multiplicity = 1
  Basis Set: AUG-CC-PVTZ
    Blend: AUG-CC-PVTZ
  Basis Set: (AUG-CC-PVTZ AUX)
    Blend: AUG-CC-PVTZ-JKFIT

    Orbital Energies [Eh]
    ---------------------

    Doubly Occupied:

       1A    -20.559290     2A    -11.284204     3A    -11.236591
       4A    -11.221434     5A    -11.217645     6A    -11.214736
       7A     -1.357729     8A     -1.095780     9A     -0.999779
      10A     -0.936857    11A     -0.848641    12A     -0.732532
      13A     -0.692086    14A     -0.649023    15A     -0.603621
      16A     -0.589234    17A     -0.561925    18A     -0.543559
      19A     -0.530701    20A     -0.523411    21A     -0.505508
      22A     -0.483857    23A     -0.432743    24A     -0.372040

  @DF-RHF Final Energy:  -270.09986474492803

   => Energetics <=

    Nuclear Repulsion Energy =            245.5033697105985482
    One-Electron Energy =                -852.8206180273125483
    Two-Electron Energy =                 337.2173835717859447
    Total Energy =                       -270.0998647449280270
  Basis Set: (AUG-CC-PVTZ AUX)
    Blend: AUG-CC-PVTZ-RI
    Molecular point group: c1

    Geometry (in Angstrom), charge = 0, multiplicity = 1:

       Center              X                  Y                   Z               Mass
    ------------   -----------------  -----------------  -----------------  -----------------
         O           -1.254715978495    -0.361276799710     1.141432004073    15.994914619570
         C           -0.643822978495    -0.456482799710    -0.154978995927    12.000000000000
         C            0.818128021505    -0.087888599710    -0.099794595927    12.000000000000
         C           -1.483396978495     0.413108200290    -1.072769995927    12.000000000000
         C            1.096008021505     1.356042200290     0.388471004073    12.000000000000
         C            1.769637021505    -0.915541799710    -0.396508995927    12.000000000000
         H           -0.648678278495    -1.498110199710    -0.513287195927     1.007825032230
         H           -1.072842978495     0.412583200290    -2.086178995927     1.007825032230
         H           -2.506859978495     0.032375200290    -1.101569995927     1.007825032230
         H           -1.511259978495     1.436905200290    -0.696560995927     1.007825032230
         H            0.558573021505     1.557979200290     1.321778004073     1.007825032230
         H            2.167753021505     1.499127200290     0.555324004073     1.007825032230
         H            0.762951021505     2.100803200290    -0.342962995927     1.007825032230
         H            1.535394021505    -1.917816799710    -0.742539995927     1.007825032230
         H            2.821436021505    -0.651845799710    -0.346870995927     1.007825032230
         H           -0.726823978495    -0.920309799710     1.740056004073     1.007825032230

  Basis Set: AUG-CC-PVTZ
    Blend: AUG-CC-PVTZ
  Basis Set: (AUG-CC-PVTZ AUX)
    Blend: AUG-CC-PVTZ-JKFIT
	 Reference Energy          =    -270.0998647449280270 [Eh]
	 Singles Energy            =      -0.0000000000000000 [Eh]
	 Same-Spin Energy          =      -0.2751050762670161 [Eh]
	 Opposite-Spin Energy      =      -0.9496272799736714 [Eh]
	 Correlation Energy        =      -1.2247323562406875 [Eh]
	 Total Energy              =    -271.3245971011687061 [Eh]

	 ================> DF-SCS-MP2 Energies <==================
	-----------------------------------------------------------
	 SCS Same-Spin Scale       =       0.3333333333333333 [-]
	 SCS Opposite-Spin Scale   =       1.2000000000000000 [-]
	 SCS Same-Spin Energy      =      -0.0917016920890054 [Eh]
	 SCS Opposite-Spin Energy  =      -1.1395527359684057 [Eh]
	 SCS Correlation Energy    =      -1.2312544280574111 [Eh]
	 SCS Total Energy          =    -271.3311191729854386 [Eh]
	-----------------------------------------------------------

  Dipole Moment: [D]
     X:     1.1323      Y:    -0.4943      Z:    -0.3843     Total:     1.2938

*** Psi4 exiting successfully. Buy a developer a beer!
