                               Psi4 1.4a3.dev225

  ==> Input File <==

--------------------------------------------------------------------------
#psi4
#
memory 32 gb

molecule  {
0 1
  O       -1.2433940    -0.3366800     1.2074370
  C       -0.6640150    -0.4819890    -0.1009900
  C        0.7919130    -0.0810760    -0.0782340
  C       -1.5159190     0.3706220    -1.0242050
  C        1.1030690     1.3392670     0.3065330
  C        1.7446070    -0.9832150    -0.3605780
  H       -0.7308000    -1.5333880    -0.4224710
  H       -1.1307760     0.3301940    -2.0469120
  H       -2.5455460     0.0047250    -1.0155750
  H       -1.5200810     1.4081240    -0.6829090
  H        0.5415810     1.6180770     1.2025330
  H        2.1707320     1.4680310     0.5024970
  H        0.8184500     2.0371770    -0.4879450
  H        1.4952160    -2.0048880    -0.6345440
  H        2.8007100    -0.7292190    -0.3378150
  H       -0.7376410    -0.8587888     1.7776266
units angstrom
no_reorient  #important for SAPT in psi4, default
symmetry c1  #important for SAPT in psi4, default
}

set PROPERTIES_ORIGIN ["COM"]
properties('MP2/aug-cc-pvtz', properties = ['dipole'])
--------------------------------------------------------------------------

    Molecular point group: c1
  Charge       = 0
  Multiplicity = 1
  Basis Set: AUG-CC-PVTZ
    Blend: AUG-CC-PVTZ
  Basis Set: (AUG-CC-PVTZ AUX)
    Blend: AUG-CC-PVTZ-JKFIT

    Orbital Energies [Eh]
    ---------------------

    Doubly Occupied:

       1A    -20.553185     2A    -11.285154     3A    -11.242852
       4A    -11.223767     5A    -11.221204     6A    -11.214574
       7A     -1.368524     8A     -1.094193     9A     -1.000314
      10A     -0.938641    11A     -0.847585    12A     -0.738991
      13A     -0.697664    14A     -0.650062    15A     -0.599052
      16A     -0.591387    17A     -0.565054    18A     -0.548919
      19A     -0.532120    20A     -0.524123    21A     -0.511726
      22A     -0.480494    23A     -0.441324    24A     -0.359218

  @DF-RHF Final Energy:  -270.10275806103289

   => Energetics <=

    Nuclear Repulsion Energy =            245.6327162154057362
    One-Electron Energy =                -853.0106923883674881
    Two-Electron Energy =                 337.2752181119288934
    Total Energy =                       -270.1027580610328869
  Basis Set: (AUG-CC-PVTZ AUX)
    Blend: AUG-CC-PVTZ-RI
    Molecular point group: c1

    Geometry (in Angstrom), charge = 0, multiplicity = 1:

       Center              X                  Y                   Z               Mass
    ------------   -----------------  -----------------  -----------------  -----------------
         O           -1.229438612224    -0.317298817104     1.183493874340    15.994914619570
         C           -0.650059612224    -0.462607817104    -0.124933125660    12.000000000000
         C            0.805868387776    -0.061694817104    -0.102177125660    12.000000000000
         C           -1.501963612224     0.390003182896    -1.048148125660    12.000000000000
         C            1.117024387776     1.358648182896     0.282589874340    12.000000000000
         C            1.758562387776    -0.963833817104    -0.384521125660    12.000000000000
         H           -0.716844612224    -1.514006817104    -0.446414125660     1.007825032230
         H           -1.116820612224     0.349575182896    -2.070855125660     1.007825032230
         H           -2.531590612224     0.024106182896    -1.039518125660     1.007825032230
         H           -1.506125612224     1.427505182896    -0.706852125660     1.007825032230
         H            0.555536387776     1.637458182896     1.178589874340     1.007825032230
         H            2.184687387776     1.487412182896     0.478553874340     1.007825032230
         H            0.832405387776     2.056558182896    -0.511888125660     1.007825032230
         H            1.509171387776    -1.985506817104    -0.658487125660     1.007825032230
         H            2.814665387776    -0.709837817104    -0.361758125660     1.007825032230
         H           -0.723685612224    -0.839407617104     1.753683474340     1.007825032230

  Basis Set: AUG-CC-PVTZ
    Blend: AUG-CC-PVTZ
  Basis Set: (AUG-CC-PVTZ AUX)
    Blend: AUG-CC-PVTZ-JKFIT
	 Reference Energy          =    -270.1027580610328869 [Eh]
	 Singles Energy            =      -0.0000000000000000 [Eh]
	 Same-Spin Energy          =      -0.2750240291859776 [Eh]
	 Opposite-Spin Energy      =      -0.9491538064891468 [Eh]
	 Correlation Energy        =      -1.2241778356751245 [Eh]
	 Total Energy              =    -271.3269358967079938 [Eh]

	 ================> DF-SCS-MP2 Energies <==================
	-----------------------------------------------------------
	 SCS Same-Spin Scale       =       0.3333333333333333 [-]
	 SCS Opposite-Spin Scale   =       1.2000000000000000 [-]
	 SCS Same-Spin Energy      =      -0.0916746763953259 [Eh]
	 SCS Opposite-Spin Energy  =      -1.1389845677869761 [Eh]
	 SCS Correlation Energy    =      -1.2306592441823019 [Eh]
	 SCS Total Energy          =    -271.3334173052151641 [Eh]
	-----------------------------------------------------------

  Dipole Moment: [D]
     X:     1.0958      Y:    -0.4551      Z:    -0.4271     Total:     1.2611

*** Psi4 exiting successfully. Buy a developer a beer!
