                               Psi4 1.3.2 release

  ==> Input File <==

--------------------------------------------------------------------------
#psi4
#
memory 32 gb

molecule  {
0 1
  O       -1.2348353    -0.3833668     1.1481660
  C       -0.6414680    -0.4631600    -0.1573930
  C        0.8068160    -0.0466880    -0.0850580
  C       -1.4650540     0.4001744    -1.0953553
  C        1.0983630     1.3493650     0.3860570
  C        1.7719920    -0.9222190    -0.3989230
  H       -0.6847220    -1.5045720    -0.5137440
  H       -1.0704880     0.4059060    -2.0885930
  H       -2.5045050     0.0256980    -1.1039840
  H       -1.5089050     1.4302280    -0.6989750
  H        0.5609280     1.5513020     1.3193640
  H        2.1701080     1.4924500     0.5529100
  H        0.7653060     2.0941260    -0.3453770
  H        1.5377490    -1.9244940    -0.7449540
  H        2.8237910    -0.6585230    -0.3492850
  H       -0.7244690    -0.9269870     1.7376420
units angstrom
no_reorient  #important for SAPT in psi4, default
symmetry c1  #important for SAPT in psi4, default
}

set PROPERTIES_ORIGIN ["COM"]
properties('MP2/aug-cc-pvtz', properties = ['dipole'])
--------------------------------------------------------------------------

    Molecular point group: c1
  Charge       = 0
  Multiplicity = 1
  Basis Set: AUG-CC-PVTZ
    Blend: AUG-CC-PVTZ
  Basis Set: (AUG-CC-PVTZ AUX)
    Blend: AUG-CC-PVTZ-JKFIT

    Orbital Energies [Eh]
    ---------------------

    Doubly Occupied:

       1A    -20.555612     2A    -11.284857     3A    -11.241299
       4A    -11.221950     5A    -11.221103     6A    -11.215393
       7A     -1.361833     8A     -1.093979     9A     -1.000309
      10A     -0.937968    11A     -0.847250    12A     -0.737448
      13A     -0.694580    14A     -0.649022    15A     -0.597226
      16A     -0.590766    17A     -0.564023    18A     -0.550683
      19A     -0.539969    20A     -0.521646    21A     -0.509879
      22A     -0.476161    23A     -0.439553    24A     -0.358448

  @DF-RHF Final Energy:  -270.10244479456406

   => Energetics <=

    Nuclear Repulsion Energy =            245.5878557162547509
    One-Electron Energy =                -852.9586843951534547
    Two-Electron Energy =                 337.2683838843346962
    Total Energy =                       -270.1024447945640645
  Basis Set: (AUG-CC-PVTZ AUX)
    Blend: AUG-CC-PVTZ-RI
    Molecular point group: c1

    Geometry (in Angstrom), charge = 0, multiplicity = 1:

       Center              X                  Y                   Z               Mass
    ------------   -----------------  -----------------  -----------------  -----------------
         O           -1.240321044097    -0.379630644874     1.149278255797    15.994914619570
         C           -0.646953744097    -0.459423844874    -0.156280744203    12.000000000000
         C            0.801330255903    -0.042951844874    -0.083945744203    12.000000000000
         C           -1.470539744097     0.403910555126    -1.094243044203    12.000000000000
         C            1.092877255903     1.353101155126     0.387169255797    12.000000000000
         C            1.766506255903    -0.918482844874    -0.397810744203    12.000000000000
         H           -0.690207744097    -1.500835844874    -0.512631744203     1.007825032230
         H           -1.075973744097     0.409642155126    -2.087480744203     1.007825032230
         H           -2.509990744097     0.029434155126    -1.102871744203     1.007825032230
         H           -1.514390744097     1.433964155126    -0.697862744203     1.007825032230
         H            0.555442255903     1.555038155126     1.320476255797     1.007825032230
         H            2.164622255903     1.496186155126     0.554022255797     1.007825032230
         H            0.759820255903     2.097862155126    -0.344264744203     1.007825032230
         H            1.532263255903    -1.920757844874    -0.743841744203     1.007825032230
         H            2.818305255903    -0.654786844874    -0.348172744203     1.007825032230
         H           -0.729954744097    -0.923250844874     1.738754255797     1.007825032230

  Basis Set: AUG-CC-PVTZ
    Blend: AUG-CC-PVTZ
  Basis Set: (AUG-CC-PVTZ AUX)
    Blend: AUG-CC-PVTZ-JKFIT
	 Reference Energy          =    -270.1024447945640645 [Eh]
	 Singles Energy            =      -0.0000000000000000 [Eh]
	 Same-Spin Energy          =      -0.2753022869950539 [Eh]
	 Opposite-Spin Energy      =      -0.9497340508630112 [Eh]
	 Correlation Energy        =      -1.2250363378580651 [Eh]
	 Total Energy              =    -271.3274811324221218 [Eh]

	 ================> DF-SCS-MP2 Energies <==================
	-----------------------------------------------------------
	 SCS Same-Spin Scale       =       0.3333333333333333 [-]
	 SCS Opposite-Spin Scale   =       1.2000000000000000 [-]
	 SCS Same-Spin Energy      =      -0.0917674289983513 [Eh]
	 SCS Opposite-Spin Energy  =      -1.1396808610356135 [Eh]
	 SCS Correlation Energy    =      -1.2314482900339647 [Eh]
	 SCS Total Energy          =    -271.3338930845980030 [Eh]
	-----------------------------------------------------------

  Dipole Moment: [D]
     X:     1.0793      Y:    -0.4187      Z:    -0.4068     Total:     1.2271

*** Psi4 exiting successfully. Buy a developer a beer!
