                               Psi4 1.3.2 release

  ==> Input File <==

--------------------------------------------------------------------------
#psi4
#
memory 32 gb

molecule  {
0 1
  O       -1.2523610    -0.3679540     1.1390180
  C       -0.6414680    -0.4631600    -0.1573930
  C        0.7830128     0.0241592    -0.0595039
  C       -1.4810420     0.4064310    -1.0751840
  C        1.0983630     1.3493650     0.3860570
  C        1.7719920    -0.9222190    -0.3989230
  H       -0.7422066    -1.5018704    -0.5099951
  H       -1.0704880     0.4059060    -2.0885930
  H       -2.5045050     0.0256980    -1.1039840
  H       -1.5089050     1.4302280    -0.6989750
  H        0.5609280     1.5513020     1.3193640
  H        2.1701080     1.4924500     0.5529100
  H        0.7653060     2.0941260    -0.3453770
  H        1.5377490    -1.9244940    -0.7449540
  H        2.8237910    -0.6585230    -0.3492850
  H       -0.7244690    -0.9269870     1.7376420
units angstrom
no_reorient  #important for SAPT in psi4, default
symmetry c1  #important for SAPT in psi4, default
}

set PROPERTIES_ORIGIN ["COM"]
properties('MP2/aug-cc-pvtz', properties = ['dipole'])
--------------------------------------------------------------------------

    Molecular point group: c1
  Charge       = 0
  Multiplicity = 1
  Basis Set: AUG-CC-PVTZ
    Blend: AUG-CC-PVTZ
  Basis Set: (AUG-CC-PVTZ AUX)
    Blend: AUG-CC-PVTZ-JKFIT

    Orbital Energies [Eh]
    ---------------------

    Doubly Occupied:

       1A    -20.556494     2A    -11.285202     3A    -11.250317
       4A    -11.229537     5A    -11.220869     6A    -11.213653
       7A     -1.357569     8A     -1.094846     9A     -1.001016
      10A     -0.936275    11A     -0.843622    12A     -0.738756
      13A     -0.691278    14A     -0.651740    15A     -0.595170
      16A     -0.589050    17A     -0.568425    18A     -0.560500
      19A     -0.532317    20A     -0.522700    21A     -0.518840
      22A     -0.468235    23A     -0.447017    24A     -0.340157

  @DF-RHF Final Energy:  -270.08874584057412

   => Energetics <=

    Nuclear Repulsion Energy =            245.6004378933684791
    One-Electron Energy =                -852.9512008683409476
    Two-Electron Energy =                 337.2620171343983202
    Total Energy =                       -270.0887458405741199
  Basis Set: (AUG-CC-PVTZ AUX)
    Blend: AUG-CC-PVTZ-RI
    Molecular point group: c1

    Geometry (in Angstrom), charge = 0, multiplicity = 1:

       Center              X                  Y                   Z               Mass
    ------------   -----------------  -----------------  -----------------  -----------------
         O           -1.248369331543    -0.377863151874     1.135411461541    15.994914619570
         C           -0.637476331543    -0.473069151874    -0.160999538459    12.000000000000
         C            0.787004468457     0.014250048126    -0.063110438459    12.000000000000
         C           -1.477050331543     0.396521848126    -1.078790538459    12.000000000000
         C            1.102354668457     1.339455848126     0.382450461541    12.000000000000
         C            1.775983668457    -0.932128151874    -0.402529538459    12.000000000000
         H           -0.738214931543    -1.511779551874    -0.513601638459     1.007825032230
         H           -1.066496331543     0.395996848126    -2.092199538459     1.007825032230
         H           -2.500513331543     0.015788848126    -1.107590538459     1.007825032230
         H           -1.504913331543     1.420318848126    -0.702581538459     1.007825032230
         H            0.564919668457     1.541392848126     1.315757461541     1.007825032230
         H            2.174099668457     1.482540848126     0.549303461541     1.007825032230
         H            0.769297668457     2.084216848126    -0.348983538459     1.007825032230
         H            1.541740668457    -1.934403151874    -0.748560538459     1.007825032230
         H            2.827782668457    -0.668432151874    -0.352891538459     1.007825032230
         H           -0.720477331543    -0.936896151874     1.734035461541     1.007825032230

  Basis Set: AUG-CC-PVTZ
    Blend: AUG-CC-PVTZ
  Basis Set: (AUG-CC-PVTZ AUX)
    Blend: AUG-CC-PVTZ-JKFIT
	 Reference Energy          =    -270.0887458405741199 [Eh]
	 Singles Energy            =      -0.0000000000000000 [Eh]
	 Same-Spin Energy          =      -0.2771106765550904 [Eh]
	 Opposite-Spin Energy      =      -0.9531663746618632 [Eh]
	 Correlation Energy        =      -1.2302770512169534 [Eh]
	 Total Energy              =    -271.3190228917910645 [Eh]

	 ================> DF-SCS-MP2 Energies <==================
	-----------------------------------------------------------
	 SCS Same-Spin Scale       =       0.3333333333333333 [-]
	 SCS Opposite-Spin Scale   =       1.2000000000000000 [-]
	 SCS Same-Spin Energy      =      -0.0923702255183634 [Eh]
	 SCS Opposite-Spin Energy  =      -1.1437996495942357 [Eh]
	 SCS Correlation Energy    =      -1.2361698751125991 [Eh]
	 SCS Total Energy          =    -271.3249157156867000 [Eh]
	-----------------------------------------------------------

  Dipole Moment: [D]
     X:     1.0764      Y:    -0.3525      Z:    -0.3633     Total:     1.1895

*** Psi4 exiting successfully. Buy a developer a beer!
