                               Psi4 1.3.2 release

  ==> Input File <==

--------------------------------------------------------------------------
#psi4
#
memory 32 gb

molecule  {
0 1
  O       -1.2523610    -0.3679540     1.1390180
  C       -0.6414680    -0.4631600    -0.1573930
  C        0.8068160    -0.0466880    -0.0850580
  C       -1.4810420     0.4064310    -1.0751840
  C        1.0789520     1.2564169     0.3546905
  C        1.7719920    -0.9222190    -0.3989230
  H       -0.6847220    -1.5045720    -0.5137440
  H       -1.0704880     0.4059060    -2.0885930
  H       -2.5045050     0.0256980    -1.1039840
  H       -1.5089050     1.4302280    -0.6989750
  H        0.5609280     1.5513020     1.3193640
  H        2.1701080     1.4924500     0.5529100
  H        0.7653060     2.0941260    -0.3453770
  H        1.5377490    -1.9244940    -0.7449540
  H        2.8237910    -0.6585230    -0.3492850
  H       -0.7244690    -0.9269870     1.7376420
units angstrom
no_reorient  #important for SAPT in psi4, default
symmetry c1  #important for SAPT in psi4, default
}

set PROPERTIES_ORIGIN ["COM"]
properties('MP2/aug-cc-pvtz', properties = ['dipole'])
--------------------------------------------------------------------------

    Molecular point group: c1
  Charge       = 0
  Multiplicity = 1
  Basis Set: AUG-CC-PVTZ
    Blend: AUG-CC-PVTZ
  Basis Set: (AUG-CC-PVTZ AUX)
    Blend: AUG-CC-PVTZ-JKFIT

    Orbital Energies [Eh]
    ---------------------

    Doubly Occupied:

       1A    -20.558104     2A    -11.284359     3A    -11.236640
       4A    -11.225523     5A    -11.223295     6A    -11.214082
       7A     -1.357832     8A     -1.107020     9A     -1.001397
      10A     -0.936777    11A     -0.847078    12A     -0.736866
      13A     -0.694096    14A     -0.654026    15A     -0.603544
      16A     -0.590659    17A     -0.559766    18A     -0.551685
      19A     -0.531656    20A     -0.514737    21A     -0.509568
      22A     -0.475920    23A     -0.442371    24A     -0.354853

  @DF-RHF Final Energy:  -270.08936151690455

   => Energetics <=

    Nuclear Repulsion Energy =            247.0666370284637878
    One-Electron Energy =                -855.8882890685358689
    Two-Electron Energy =                 338.7322905231675350
    Total Energy =                       -270.0893615169045461
  Basis Set: (AUG-CC-PVTZ AUX)
    Blend: AUG-CC-PVTZ-RI
    Molecular point group: c1

    Geometry (in Angstrom), charge = 0, multiplicity = 1:

       Center              X                  Y                   Z               Mass
    ------------   -----------------  -----------------  -----------------  -----------------
         O           -1.249654759108    -0.354995788493     1.143391015165    15.994914619570
         C           -0.638761759108    -0.450201788493    -0.153019984835    12.000000000000
         C            0.809522240892    -0.033729788493    -0.080684984835    12.000000000000
         C           -1.478335759108     0.419389211507    -1.070810984835    12.000000000000
         C            1.081658240892     1.269375111507     0.359063515165    12.000000000000
         C            1.774698240892    -0.909260788493    -0.394549984835    12.000000000000
         H           -0.682015759108    -1.491613788493    -0.509370984835     1.007825032230
         H           -1.067781759108     0.418864211507    -2.084219984835     1.007825032230
         H           -2.501798759108     0.038656211507    -1.099610984835     1.007825032230
         H           -1.506198759108     1.443186211507    -0.694601984835     1.007825032230
         H            0.563634240892     1.564260211507     1.323737015165     1.007825032230
         H            2.172814240892     1.505408211507     0.557283015165     1.007825032230
         H            0.768012240892     2.107084211507    -0.341003984835     1.007825032230
         H            1.540455240892    -1.911535788493    -0.740580984835     1.007825032230
         H            2.826497240892    -0.645564788493    -0.344911984835     1.007825032230
         H           -0.721762759108    -0.914028788493     1.742015015165     1.007825032230

  Basis Set: AUG-CC-PVTZ
    Blend: AUG-CC-PVTZ
  Basis Set: (AUG-CC-PVTZ AUX)
    Blend: AUG-CC-PVTZ-JKFIT
	 Reference Energy          =    -270.0893615169045461 [Eh]
	 Singles Energy            =      -0.0000000000000000 [Eh]
	 Same-Spin Energy          =      -0.2770266251285416 [Eh]
	 Opposite-Spin Energy      =      -0.9521394103944918 [Eh]
	 Correlation Energy        =      -1.2291660355230334 [Eh]
	 Total Energy              =    -271.3185275524275539 [Eh]

	 ================> DF-SCS-MP2 Energies <==================
	-----------------------------------------------------------
	 SCS Same-Spin Scale       =       0.3333333333333333 [-]
	 SCS Opposite-Spin Scale   =       1.2000000000000000 [-]
	 SCS Same-Spin Energy      =      -0.0923422083761805 [Eh]
	 SCS Opposite-Spin Energy  =      -1.1425672924733901 [Eh]
	 SCS Correlation Energy    =      -1.2349095008495705 [Eh]
	 SCS Total Energy          =    -271.3242710177541426 [Eh]
	-----------------------------------------------------------

  Dipole Moment: [D]
     X:     1.1054      Y:    -0.4066      Z:    -0.3603     Total:     1.2318

*** Psi4 exiting successfully. Buy a developer a beer!
