                               Psi4 1.3.2 release

  ==> Input File <==

--------------------------------------------------------------------------
#psi4
#
memory 32 gb

molecule  {
0 1
  O       -1.2085692    -0.3520317     1.1575148
  C       -0.6414680    -0.4631600    -0.1573930
  C        0.8007415    -0.0378480    -0.0335006
  C       -1.4810420     0.4064310    -1.0751840
  C        1.0983630     1.3493650     0.3860570
  C        1.7719920    -0.9222190    -0.3989230
  H       -0.6847220    -1.5045720    -0.5137440
  H       -1.0704880     0.4059060    -2.0885930
  H       -2.5045050     0.0256980    -1.1039840
  H       -1.5089050     1.4302280    -0.6989750
  H        0.5609280     1.5513020     1.3193640
  H        2.1701080     1.4924500     0.5529100
  H        0.7653060     2.0941260    -0.3453770
  H        1.5377490    -1.9244940    -0.7449540
  H        2.8237910    -0.6585230    -0.3492850
  H       -0.7244690    -0.9269870     1.7376420
units angstrom
no_reorient  #important for SAPT in psi4, default
symmetry c1  #important for SAPT in psi4, default
}

set PROPERTIES_ORIGIN ["COM"]
properties('MP2/aug-cc-pvtz', properties = ['dipole'])
--------------------------------------------------------------------------

    Molecular point group: c1
  Charge       = 0
  Multiplicity = 1
  Basis Set: AUG-CC-PVTZ
    Blend: AUG-CC-PVTZ
  Basis Set: (AUG-CC-PVTZ AUX)
    Blend: AUG-CC-PVTZ-JKFIT

    Orbital Energies [Eh]
    ---------------------

    Doubly Occupied:

       1A    -20.553489     2A    -11.285280     3A    -11.243171
       4A    -11.223751     5A    -11.219937     6A    -11.216013
       7A     -1.362285     8A     -1.092297     9A     -1.000383
      10A     -0.937231    11A     -0.847593    12A     -0.735833
      13A     -0.697236    14A     -0.648995    15A     -0.594246
      16A     -0.591633    17A     -0.566589    18A     -0.551190
      19A     -0.534380    20A     -0.522247    21A     -0.514048
      22A     -0.476798    23A     -0.441320    24A     -0.351493

  @DF-RHF Final Energy:  -270.09966544212625

   => Energetics <=

    Nuclear Repulsion Energy =            245.9201266605111869
    One-Electron Energy =                -853.6247095453350084
    Two-Electron Energy =                 337.6049174426975696
    Total Energy =                       -270.0996654421262519
  Basis Set: (AUG-CC-PVTZ AUX)
    Blend: AUG-CC-PVTZ-RI
    Molecular point group: c1

    Geometry (in Angstrom), charge = 0, multiplicity = 1:

       Center              X                  Y                   Z               Mass
    ------------   -----------------  -----------------  -----------------  -----------------
         O           -1.215860083097    -0.356223235804     1.146889626849    15.994914619570
         C           -0.648758883097    -0.467351535804    -0.168018173151    12.000000000000
         C            0.793450616903    -0.042039535804    -0.044125773151    12.000000000000
         C           -1.488332883097     0.402239464196    -1.085809173151    12.000000000000
         C            1.091072116903     1.345173464196     0.375431826849    12.000000000000
         C            1.764701116903    -0.926410535804    -0.409548173151    12.000000000000
         H           -0.692012883097    -1.508763535804    -0.524369173151     1.007825032230
         H           -1.077778883097     0.401714464196    -2.099218173151     1.007825032230
         H           -2.511795883097     0.021506464196    -1.114609173151     1.007825032230
         H           -1.516195883097     1.426036464196    -0.709600173151     1.007825032230
         H            0.553637116903     1.547110464196     1.308738826849     1.007825032230
         H            2.162817116903     1.488258464196     0.542284826849     1.007825032230
         H            0.758015116903     2.089934464196    -0.356002173151     1.007825032230
         H            1.530458116903    -1.928685535804    -0.755579173151     1.007825032230
         H            2.816500116903    -0.662714535804    -0.359910173151     1.007825032230
         H           -0.731759883097    -0.931178535804     1.727016826849     1.007825032230

  Basis Set: AUG-CC-PVTZ
    Blend: AUG-CC-PVTZ
  Basis Set: (AUG-CC-PVTZ AUX)
    Blend: AUG-CC-PVTZ-JKFIT
	 Reference Energy          =    -270.0996654421262519 [Eh]
	 Singles Energy            =      -0.0000000000000000 [Eh]
	 Same-Spin Energy          =      -0.2757638494147234 [Eh]
	 Opposite-Spin Energy      =      -0.9504792709928810 [Eh]
	 Correlation Energy        =      -1.2262431204076045 [Eh]
	 Total Energy              =    -271.3259085625338685 [Eh]

	 ================> DF-SCS-MP2 Energies <==================
	-----------------------------------------------------------
	 SCS Same-Spin Scale       =       0.3333333333333333 [-]
	 SCS Opposite-Spin Scale   =       1.2000000000000000 [-]
	 SCS Same-Spin Energy      =      -0.0919212831382411 [Eh]
	 SCS Opposite-Spin Energy  =      -1.1405751251914571 [Eh]
	 SCS Correlation Energy    =      -1.2324964083296983 [Eh]
	 SCS Total Energy          =    -271.3321618504559751 [Eh]
	-----------------------------------------------------------

  Dipole Moment: [D]
     X:     0.9752      Y:    -0.4444      Z:    -0.4626     Total:     1.1673

*** Psi4 exiting successfully. Buy a developer a beer!
