                               Psi4 1.4a3.dev225

  ==> Input File <==

--------------------------------------------------------------------------
#psi4
#
memory 32 gb

molecule  {
0 1
  O       -1.2433940    -0.3366800     1.2074370
  C       -0.6640150    -0.4819890    -0.1009900
  C        0.7919130    -0.0810760    -0.0782340
  C       -1.5159190     0.3706220    -1.0242050
  C        1.1030690     1.3392670     0.3065330
  C        1.7446070    -0.9832150    -0.3605780
  H       -0.7308000    -1.5333880    -0.4224710
  H       -1.1307760     0.3301940    -2.0469120
  H       -2.5455460     0.0047250    -1.0155750
  H       -1.5200810     1.4081240    -0.6829090
  H        0.5415810     1.6180770     1.2025330
  H        2.1707320     1.4680310     0.5024970
  H        0.8184500     2.0371770    -0.4879450
  H        1.4906264    -2.0236900    -0.6395858
  H        2.8007100    -0.7292190    -0.3378150
  H       -0.7102690    -0.8870460     1.8084860
units angstrom
no_reorient  #important for SAPT in psi4, default
symmetry c1  #important for SAPT in psi4, default
}

set PROPERTIES_ORIGIN ["COM"]
properties('MP2/aug-cc-pvtz', properties = ['dipole'])
--------------------------------------------------------------------------

    Molecular point group: c1
  Charge       = 0
  Multiplicity = 1
  Basis Set: AUG-CC-PVTZ
    Blend: AUG-CC-PVTZ
  Basis Set: (AUG-CC-PVTZ AUX)
    Blend: AUG-CC-PVTZ-JKFIT

    Orbital Energies [Eh]
    ---------------------

    Doubly Occupied:

       1A    -20.557982     2A    -11.284639     3A    -11.242794
       4A    -11.225852     5A    -11.221218     6A    -11.214443
       7A     -1.356847     8A     -1.092661     9A     -0.998478
      10A     -0.937674    11A     -0.845766    12A     -0.733748
      13A     -0.691214    14A     -0.647661    15A     -0.597173
      16A     -0.590738    17A     -0.564329    18A     -0.548669
      19A     -0.530847    20A     -0.522916    21A     -0.510220
      22A     -0.478571    23A     -0.440341    24A     -0.359140

  @DF-RHF Final Energy:  -270.10144265283753

   => Energetics <=

    Nuclear Repulsion Energy =            245.2490530652974883
    One-Electron Energy =                -852.3131503985899826
    Two-Electron Energy =                 336.9626546804549321
    Total Energy =                       -270.1014426528375338
  Basis Set: (AUG-CC-PVTZ AUX)
    Blend: AUG-CC-PVTZ-RI
    Molecular point group: c1

    Geometry (in Angstrom), charge = 0, multiplicity = 1:

       Center              X                  Y                   Z               Mass
    ------------   -----------------  -----------------  -----------------  -----------------
         O           -1.229705369848    -0.316747804024     1.183191577758    15.994914619570
         C           -0.650326369848    -0.462056804024    -0.125235422242    12.000000000000
         C            0.805601630152    -0.061143804024    -0.102479422242    12.000000000000
         C           -1.502230369848     0.390554195976    -1.048450422242    12.000000000000
         C            1.116757630152     1.359199195976     0.282287577758    12.000000000000
         C            1.758295630152    -0.963282804024    -0.384823422242    12.000000000000
         H           -0.717111369848    -1.513455804024    -0.446716422242     1.007825032230
         H           -1.117087369848     0.350126195976    -2.071157422242     1.007825032230
         H           -2.531857369848     0.024657195976    -1.039820422242     1.007825032230
         H           -1.506392369848     1.428056195976    -0.707154422242     1.007825032230
         H            0.555269630152     1.638009195976     1.178287577758     1.007825032230
         H            2.184420630152     1.487963195976     0.478251577758     1.007825032230
         H            0.832138630152     2.057109195976    -0.512190422242     1.007825032230
         H            1.504315030152    -2.003757804024    -0.663831222242     1.007825032230
         H            2.814398630152    -0.709286804024    -0.362060422242     1.007825032230
         H           -0.696580369848    -0.867113804024     1.784240577758     1.007825032230

  Basis Set: AUG-CC-PVTZ
    Blend: AUG-CC-PVTZ
  Basis Set: (AUG-CC-PVTZ AUX)
    Blend: AUG-CC-PVTZ-JKFIT
	 Reference Energy          =    -270.1014426528375338 [Eh]
	 Singles Energy            =      -0.0000000000000000 [Eh]
	 Same-Spin Energy          =      -0.2756697063140581 [Eh]
	 Opposite-Spin Energy      =      -0.9508591083409482 [Eh]
	 Correlation Energy        =      -1.2265288146550064 [Eh]
	 Total Energy              =    -271.3279714674925458 [Eh]

	 ================> DF-SCS-MP2 Energies <==================
	-----------------------------------------------------------
	 SCS Same-Spin Scale       =       0.3333333333333333 [-]
	 SCS Opposite-Spin Scale   =       1.2000000000000000 [-]
	 SCS Same-Spin Energy      =      -0.0918899021046860 [Eh]
	 SCS Opposite-Spin Energy  =      -1.1410309300091379 [Eh]
	 SCS Correlation Energy    =      -1.2329208321138239 [Eh]
	 SCS Total Energy          =    -271.3343634849513819 [Eh]
	-----------------------------------------------------------

  Dipole Moment: [D]
     X:     1.1042      Y:    -0.4635      Z:    -0.3947     Total:     1.2609

*** Psi4 exiting successfully. Buy a developer a beer!
