                               Psi4 1.3.2 release

  ==> Input File <==

--------------------------------------------------------------------------
#psi4
#
memory 32 gb

molecule  {
0 1
  O       -1.2523610    -0.3679540     1.1390180
  C       -0.6414680    -0.4631600    -0.1573930
  C        0.8068160    -0.0466880    -0.0850580
  C       -1.4810420     0.4064310    -1.0751840
  C        1.0983630     1.3493650     0.3860570
  C        1.6279772    -0.7915802    -0.3520909
  H       -0.6847220    -1.5045720    -0.5137440
  H       -1.0704880     0.4059060    -2.0885930
  H       -2.5045050     0.0256980    -1.1039840
  H       -1.5089050     1.4302280    -0.6989750
  H        0.5609280     1.5513020     1.3193640
  H        2.1701080     1.4924500     0.5529100
  H        0.7653060     2.0941260    -0.3453770
  H        1.5377490    -1.9244940    -0.7449540
  H        2.8237910    -0.6585230    -0.3492850
  H       -0.7244690    -0.9269870     1.7376420
units angstrom
no_reorient  #important for SAPT in psi4, default
symmetry c1  #important for SAPT in psi4, default
}

set PROPERTIES_ORIGIN ["COM"]
properties('MP2/aug-cc-pvtz', properties = ['dipole'])
--------------------------------------------------------------------------

    Molecular point group: c1
  Charge       = 0
  Multiplicity = 1
  Basis Set: AUG-CC-PVTZ
    Blend: AUG-CC-PVTZ
  Basis Set: (AUG-CC-PVTZ AUX)
    Blend: AUG-CC-PVTZ-JKFIT

    Orbital Energies [Eh]
    ---------------------

    Doubly Occupied:

       1A    -20.557673     2A    -11.282971     3A    -11.219278
       4A    -11.215251     5A    -11.213375     6A    -11.204148
       7A     -1.357294     8A     -1.134390     9A     -1.005278
      10A     -0.944635    11A     -0.840719    12A     -0.721937
      13A     -0.693133    14A     -0.654895    15A     -0.597096
      16A     -0.595410    17A     -0.564143    18A     -0.547285
      19A     -0.530573    20A     -0.519764    21A     -0.501054
      22A     -0.462159    23A     -0.419295    24A     -0.411190

  @DF-RHF Final Energy:  -270.02754890612158

   => Energetics <=

    Nuclear Repulsion Energy =            249.5522232520925172
    One-Electron Energy =                -860.7736490768133990
    Two-Electron Energy =                 341.1938769185993010
    Total Energy =                       -270.0275489061215808
  Basis Set: (AUG-CC-PVTZ AUX)
    Blend: AUG-CC-PVTZ-RI
    Molecular point group: c1

    Geometry (in Angstrom), charge = 0, multiplicity = 1:

       Center              X                  Y                   Z               Mass
    ------------   -----------------  -----------------  -----------------  -----------------
         O           -1.232282961510    -0.386167441142     1.132488857673    15.994914619570
         C           -0.621389961510    -0.481373441142    -0.163922142327    12.000000000000
         C            0.826894038490    -0.064901441142    -0.091587142327    12.000000000000
         C           -1.460963961510     0.388217558858    -1.081713142327    12.000000000000
         C            1.118441038490     1.331151558858     0.379527857673    12.000000000000
         C            1.648055238490    -0.809793641142    -0.358620042327    12.000000000000
         H           -0.664643961510    -1.522785441142    -0.520273142327     1.007825032230
         H           -1.050409961510     0.387692558858    -2.095122142327     1.007825032230
         H           -2.484426961510     0.007484558858    -1.110513142327     1.007825032230
         H           -1.488826961510     1.412014558858    -0.705504142327     1.007825032230
         H            0.581006038490     1.533088558858     1.312834857673     1.007825032230
         H            2.190186038490     1.474236558858     0.546380857673     1.007825032230
         H            0.785384038490     2.075912558858    -0.351906142327     1.007825032230
         H            1.557827038490    -1.942707441142    -0.751483142327     1.007825032230
         H            2.843869038490    -0.676736441142    -0.355814142327     1.007825032230
         H           -0.704390961510    -0.945200441142     1.731112857673     1.007825032230

  Basis Set: AUG-CC-PVTZ
    Blend: AUG-CC-PVTZ
  Basis Set: (AUG-CC-PVTZ AUX)
    Blend: AUG-CC-PVTZ-JKFIT
	 Reference Energy          =    -270.0275489061215808 [Eh]
	 Singles Energy            =      -0.0000000000000000 [Eh]
	 Same-Spin Energy          =      -0.2758572492090939 [Eh]
	 Opposite-Spin Energy      =      -0.9492394985498473 [Eh]
	 Correlation Energy        =      -1.2250967477589412 [Eh]
	 Total Energy              =    -271.2526456538805064 [Eh]

	 ================> DF-SCS-MP2 Energies <==================
	-----------------------------------------------------------
	 SCS Same-Spin Scale       =       0.3333333333333333 [-]
	 SCS Opposite-Spin Scale   =       1.2000000000000000 [-]
	 SCS Same-Spin Energy      =      -0.0919524164030313 [Eh]
	 SCS Opposite-Spin Energy  =      -1.1390873982598169 [Eh]
	 SCS Correlation Energy    =      -1.2310398146628483 [Eh]
	 SCS Total Energy          =    -271.2585887207844166 [Eh]
	-----------------------------------------------------------

  Dipole Moment: [D]
     X:     1.1020      Y:    -0.4820      Z:    -0.3722     Total:     1.2591

*** Psi4 exiting successfully. Buy a developer a beer!
