                               Psi4 1.3.2 release

  ==> Input File <==

--------------------------------------------------------------------------
#psi4
#
memory 32 gb

molecule  {
0 1
  O       -1.2171289    -0.3988039     1.1569162
  C       -0.6414680    -0.4631600    -0.1573930
  C        0.8068160    -0.0466880    -0.0850580
  C       -1.4488151     0.3936547    -1.1152408
  C        1.0983630     1.3493650     0.3860570
  C        1.7719920    -0.9222190    -0.3989230
  H       -0.6847220    -1.5045720    -0.5137440
  H       -1.0704880     0.4059060    -2.0885930
  H       -2.5045050     0.0256980    -1.1039840
  H       -1.5089050     1.4302280    -0.6989750
  H        0.5609280     1.5513020     1.3193640
  H        2.1701080     1.4924500     0.5529100
  H        0.7653060     2.0941260    -0.3453770
  H        1.5377490    -1.9244940    -0.7449540
  H        2.8237910    -0.6585230    -0.3492850
  H       -0.7244690    -0.9269870     1.7376420
units angstrom
no_reorient  #important for SAPT in psi4, default
symmetry c1  #important for SAPT in psi4, default
}

set PROPERTIES_ORIGIN ["COM"]
properties('MP2/aug-cc-pvtz', properties = ['dipole'])
--------------------------------------------------------------------------

    Molecular point group: c1
  Charge       = 0
  Multiplicity = 1
  Basis Set: AUG-CC-PVTZ
    Blend: AUG-CC-PVTZ
  Basis Set: (AUG-CC-PVTZ AUX)
    Blend: AUG-CC-PVTZ-JKFIT

    Orbital Energies [Eh]
    ---------------------

    Doubly Occupied:

       1A    -20.553167     2A    -11.285721     3A    -11.240802
       4A    -11.221218     5A    -11.220886     6A    -11.216923
       7A     -1.366659     8A     -1.094677     9A     -1.001823
      10A     -0.937617    11A     -0.848789    12A     -0.740677
      13A     -0.697001    14A     -0.648306    15A     -0.596689
      16A     -0.590805    17A     -0.564129    18A     -0.559117
      19A     -0.542160    20A     -0.519710    21A     -0.508204
      22A     -0.473603    23A     -0.438667    24A     -0.357876

  @DF-RHF Final Energy:  -270.09940284168698

   => Energetics <=

    Nuclear Repulsion Energy =            245.6833118728272893
    One-Electron Energy =                -853.1149795735726684
    Two-Electron Energy =                 337.3322648590583981
    Total Energy =                       -270.0994028416869810
  Basis Set: (AUG-CC-PVTZ AUX)
    Blend: AUG-CC-PVTZ-RI
    Molecular point group: c1

    Geometry (in Angstrom), charge = 0, multiplicity = 1:

       Center              X                  Y                   Z               Mass
    ------------   -----------------  -----------------  -----------------  -----------------
         O           -1.228168978674    -0.391290127347     1.159174774724    15.994914619570
         C           -0.652508078674    -0.455646227347    -0.155134425276    12.000000000000
         C            0.795775921326    -0.039174227347    -0.082799425276    12.000000000000
         C           -1.459855178674     0.401168472653    -1.112982225276    12.000000000000
         C            1.087322921326     1.356878772653     0.388315574724    12.000000000000
         C            1.760951921326    -0.914705227347    -0.396664425276    12.000000000000
         H           -0.695762078674    -1.497058227347    -0.511485425276     1.007825032230
         H           -1.081528078674     0.413419772653    -2.086334425276     1.007825032230
         H           -2.515545078674     0.033211772653    -1.101725425276     1.007825032230
         H           -1.519945078674     1.437741772653    -0.696716425276     1.007825032230
         H            0.549887921326     1.558815772653     1.321622574724     1.007825032230
         H            2.159067921326     1.499963772653     0.555168574724     1.007825032230
         H            0.754265921326     2.101639772653    -0.343118425276     1.007825032230
         H            1.526708921326    -1.916980227347    -0.742695425276     1.007825032230
         H            2.812750921326    -0.651009227347    -0.347026425276     1.007825032230
         H           -0.735509078674    -0.919473227347     1.739900574724     1.007825032230

  Basis Set: AUG-CC-PVTZ
    Blend: AUG-CC-PVTZ
  Basis Set: (AUG-CC-PVTZ AUX)
    Blend: AUG-CC-PVTZ-JKFIT
	 Reference Energy          =    -270.0994028416869810 [Eh]
	 Singles Energy            =      -0.0000000000000000 [Eh]
	 Same-Spin Energy          =      -0.2749998622820325 [Eh]
	 Opposite-Spin Energy      =      -0.9490015332887097 [Eh]
	 Correlation Energy        =      -1.2240013955707423 [Eh]
	 Total Energy              =    -271.3234042372577051 [Eh]

	 ================> DF-SCS-MP2 Energies <==================
	-----------------------------------------------------------
	 SCS Same-Spin Scale       =       0.3333333333333333 [-]
	 SCS Opposite-Spin Scale   =       1.2000000000000000 [-]
	 SCS Same-Spin Energy      =      -0.0916666207606775 [Eh]
	 SCS Opposite-Spin Energy  =      -1.1388018399464517 [Eh]
	 SCS Correlation Energy    =      -1.2304684607071292 [Eh]
	 SCS Total Energy          =    -271.3298713023941104 [Eh]
	-----------------------------------------------------------

  Dipole Moment: [D]
     X:     1.0440      Y:    -0.3971      Z:    -0.4348     Total:     1.1986

*** Psi4 exiting successfully. Buy a developer a beer!
