                               Psi4 1.3.2 release

  ==> Input File <==

--------------------------------------------------------------------------
#psi4
#
memory 32 gb

molecule  {
0 1
  O       -1.2697006    -0.3525702     1.1294751
  C       -0.6414680    -0.4631600    -0.1573930
  C        0.8068160    -0.0466880    -0.0850580
  C       -1.4967743     0.4124228    -1.0547332
  C        1.0983630     1.3493650     0.3860570
  C        1.7719920    -0.9222190    -0.3989230
  H       -0.6847220    -1.5045720    -0.5137440
  H       -1.0704880     0.4059060    -2.0885930
  H       -2.5045050     0.0256980    -1.1039840
  H       -1.5089050     1.4302280    -0.6989750
  H        0.5609280     1.5513020     1.3193640
  H        2.1701080     1.4924500     0.5529100
  H        0.7653060     2.0941260    -0.3453770
  H        1.5377490    -1.9244940    -0.7449540
  H        2.8237910    -0.6585230    -0.3492850
  H       -0.7244690    -0.9269870     1.7376420
units angstrom
no_reorient  #important for SAPT in psi4, default
symmetry c1  #important for SAPT in psi4, default
}

set PROPERTIES_ORIGIN ["COM"]
properties('MP2/aug-cc-pvtz', properties = ['dipole'])
--------------------------------------------------------------------------

    Molecular point group: c1
  Charge       = 0
  Multiplicity = 1
  Basis Set: AUG-CC-PVTZ
    Blend: AUG-CC-PVTZ
  Basis Set: (AUG-CC-PVTZ AUX)
    Blend: AUG-CC-PVTZ-JKFIT

    Orbital Energies [Eh]
    ---------------------

    Doubly Occupied:

       1A    -20.560437     2A    -11.283795     3A    -11.242420
       4A    -11.223487     5A    -11.221608     6A    -11.213261
       7A     -1.353636     8A     -1.092970     9A     -0.997550
      10A     -0.938761    11A     -0.845942    12A     -0.732692
      13A     -0.688397    14A     -0.650806    15A     -0.598219
      16A     -0.590704    17A     -0.564990    18A     -0.550142
      19A     -0.526671    20A     -0.519093    21A     -0.511616
      22A     -0.480149    23A     -0.441203    24A     -0.359626

  @DF-RHF Final Energy:  -270.09877344135970

   => Energetics <=

    Nuclear Repulsion Energy =            245.4447661854855482
    One-Electron Energy =                -852.7107264786707219
    Two-Electron Energy =                 337.1671868518254200
    Total Energy =                       -270.0987734413596968
  Basis Set: (AUG-CC-PVTZ AUX)
    Blend: AUG-CC-PVTZ-RI
    Molecular point group: c1

    Geometry (in Angstrom), charge = 0, multiplicity = 1:

       Center              X                  Y                   Z               Mass
    ------------   -----------------  -----------------  -----------------  -----------------
         O           -1.264285024303    -0.356264581302     1.128397290514    15.994914619570
         C           -0.636052424303    -0.466854381302    -0.158470809486    12.000000000000
         C            0.812231575697    -0.050382381302    -0.086135809486    12.000000000000
         C           -1.491358724303     0.408728418698    -1.055811009486    12.000000000000
         C            1.103778575697     1.345670618698     0.384979190514    12.000000000000
         C            1.777407575697    -0.925913381302    -0.400000809486    12.000000000000
         H           -0.679306424303    -1.508266381302    -0.514821809486     1.007825032230
         H           -1.065072424303     0.402211618698    -2.089670809486     1.007825032230
         H           -2.499089424303     0.022003618698    -1.105061809486     1.007825032230
         H           -1.503489424303     1.426533618698    -0.700052809486     1.007825032230
         H            0.566343575697     1.547607618698     1.318286190514     1.007825032230
         H            2.175523575697     1.488755618698     0.551832190514     1.007825032230
         H            0.770721575697     2.090431618698    -0.346454809486     1.007825032230
         H            1.543164575697    -1.928188381302    -0.746031809486     1.007825032230
         H            2.829206575697    -0.662217381302    -0.350362809486     1.007825032230
         H           -0.719053424303    -0.930681381302     1.736564190514     1.007825032230

  Basis Set: AUG-CC-PVTZ
    Blend: AUG-CC-PVTZ
  Basis Set: (AUG-CC-PVTZ AUX)
    Blend: AUG-CC-PVTZ-JKFIT
	 Reference Energy          =    -270.0987734413596968 [Eh]
	 Singles Energy            =      -0.0000000000000000 [Eh]
	 Same-Spin Energy          =      -0.2760589770349107 [Eh]
	 Opposite-Spin Energy      =      -0.9516247637320565 [Eh]
	 Correlation Energy        =      -1.2276837407669672 [Eh]
	 Total Energy              =    -271.3264571821266600 [Eh]

	 ================> DF-SCS-MP2 Energies <==================
	-----------------------------------------------------------
	 SCS Same-Spin Scale       =       0.3333333333333333 [-]
	 SCS Opposite-Spin Scale   =       1.2000000000000000 [-]
	 SCS Same-Spin Energy      =      -0.0920196590116369 [Eh]
	 SCS Opposite-Spin Energy  =      -1.1419497164784678 [Eh]
	 SCS Correlation Energy    =      -1.2339693754901047 [Eh]
	 SCS Total Energy          =    -271.3327428168498159 [Eh]
	-----------------------------------------------------------

  Dipole Moment: [D]
     X:     1.1486      Y:    -0.4614      Z:    -0.3447     Total:     1.2849

*** Psi4 exiting successfully. Buy a developer a beer!
