                               Psi4 1.3.2 release

  ==> Input File <==

--------------------------------------------------------------------------
#psi4
#
memory 32 gb

molecule  {
0 1
  O       -1.2523610    -0.3679540     1.1390180
  C       -0.6414680    -0.4631600    -0.1573930
  C        0.8224083    -0.0427145    -0.1057526
  C       -1.4810420     0.4064310    -1.0751840
  C        1.0983630     1.3493650     0.3860570
  C        1.7719920    -0.9222190    -0.3989230
  H       -0.6847220    -1.5045720    -0.5137440
  H       -1.0704880     0.4059060    -2.0885930
  H       -2.5045050     0.0256980    -1.1039840
  H       -1.5089050     1.4302280    -0.6989750
  H        0.5683899     1.5689081     1.3196555
  H        2.1701080     1.4924500     0.5529100
  H        0.7653060     2.0941260    -0.3453770
  H        1.5377490    -1.9244940    -0.7449540
  H        2.8237910    -0.6585230    -0.3492850
  H       -0.7244690    -0.9269870     1.7376420
units angstrom
no_reorient  #important for SAPT in psi4, default
symmetry c1  #important for SAPT in psi4, default
}

set PROPERTIES_ORIGIN ["COM"]
properties('MP2/aug-cc-pvtz', properties = ['dipole'])
--------------------------------------------------------------------------

    Molecular point group: c1
  Charge       = 0
  Multiplicity = 1
  Basis Set: AUG-CC-PVTZ
    Blend: AUG-CC-PVTZ
  Basis Set: (AUG-CC-PVTZ AUX)
    Blend: AUG-CC-PVTZ-JKFIT

    Orbital Energies [Eh]
    ---------------------

    Doubly Occupied:

       1A    -20.558476     2A    -11.284619     3A    -11.240706
       4A    -11.221275     5A    -11.221115     6A    -11.213531
       7A     -1.357020     8A     -1.093789     9A     -0.999027
      10A     -0.939630    11A     -0.843928    12A     -0.734293
      13A     -0.691497    14A     -0.649954    15A     -0.598868
      16A     -0.589916    17A     -0.563451    18A     -0.548284
      19A     -0.531019    20A     -0.524677    21A     -0.511470
      22A     -0.477310    23A     -0.437734    24A     -0.362542

  @DF-RHF Final Energy:  -270.10220314386504

   => Energetics <=

    Nuclear Repulsion Energy =            245.3652496585331448
    One-Electron Energy =                -852.5466384046534358
    Two-Electron Energy =                 337.0791856022552793
    Total Energy =                       -270.1022031438650401
  Basis Set: (AUG-CC-PVTZ AUX)
    Blend: AUG-CC-PVTZ-RI
    Molecular point group: c1

    Geometry (in Angstrom), charge = 0, multiplicity = 1:

       Center              X                  Y                   Z               Mass
    ------------   -----------------  -----------------  -----------------  -----------------
         O           -1.254622159690    -0.368714385562     1.141899765470    15.994914619570
         C           -0.643729159690    -0.463920385562    -0.154511234530    12.000000000000
         C            0.820147140310    -0.043474885562    -0.102870834530    12.000000000000
         C           -1.483303159690     0.405670614438    -1.072302234530    12.000000000000
         C            1.096101840310     1.348604614438     0.388938765470    12.000000000000
         C            1.769730840310    -0.922979385562    -0.396041234530    12.000000000000
         H           -0.686983159690    -1.505332385562    -0.510862234530     1.007825032230
         H           -1.072749159690     0.405145614438    -2.085711234530     1.007825032230
         H           -2.506766159690     0.024937614438    -1.101102234530     1.007825032230
         H           -1.511166159690     1.429467614438    -0.696093234530     1.007825032230
         H            0.566128740310     1.568147714438     1.322537265470     1.007825032230
         H            2.167846840310     1.491689614438     0.555791765470     1.007825032230
         H            0.763044840310     2.093365614438    -0.342495234530     1.007825032230
         H            1.535487840310    -1.925254385562    -0.742072234530     1.007825032230
         H            2.821529840310    -0.659283385562    -0.346403234530     1.007825032230
         H           -0.726730159690    -0.927747385562     1.740523765470     1.007825032230

  Basis Set: AUG-CC-PVTZ
    Blend: AUG-CC-PVTZ
  Basis Set: (AUG-CC-PVTZ AUX)
    Blend: AUG-CC-PVTZ-JKFIT
	 Reference Energy          =    -270.1022031438650401 [Eh]
	 Singles Energy            =      -0.0000000000000000 [Eh]
	 Same-Spin Energy          =      -0.2754577748254845 [Eh]
	 Opposite-Spin Energy      =      -0.9502691737535347 [Eh]
	 Correlation Energy        =      -1.2257269485790192 [Eh]
	 Total Energy              =    -271.3279300924440349 [Eh]

	 ================> DF-SCS-MP2 Energies <==================
	-----------------------------------------------------------
	 SCS Same-Spin Scale       =       0.3333333333333333 [-]
	 SCS Opposite-Spin Scale   =       1.2000000000000000 [-]
	 SCS Same-Spin Energy      =      -0.0918192582751615 [Eh]
	 SCS Opposite-Spin Energy  =      -1.1403230085042415 [Eh]
	 SCS Correlation Energy    =      -1.2321422667794031 [Eh]
	 SCS Total Energy          =    -271.3343454106444597 [Eh]
	-----------------------------------------------------------

  Dipole Moment: [D]
     X:     1.1236      Y:    -0.4513      Z:    -0.3467     Total:     1.2595

*** Psi4 exiting successfully. Buy a developer a beer!
