                               Psi4 1.3.2 release

  ==> Input File <==

--------------------------------------------------------------------------
#psi4
#
memory 32 gb

molecule  {
0 1
  O       -1.2523610    -0.3679540     1.1390180
  C       -0.6414680    -0.4631600    -0.1573930
  C        0.8398606    -0.0153030    -0.0744772
  C       -1.4810420     0.4064310    -1.0751840
  C        1.0983630     1.3493650     0.3860570
  C        1.7719920    -0.9222190    -0.3989230
  H       -0.6847220    -1.5045720    -0.5137440
  H       -1.0704880     0.4059060    -2.0885930
  H       -2.5045050     0.0256980    -1.1039840
  H       -1.5089050     1.4302280    -0.6989750
  H        0.5609280     1.5513020     1.3193640
  H        2.1701080     1.4924500     0.5529100
  H        0.7653060     2.0941260    -0.3453770
  H        1.5748949    -1.9314919    -0.7477543
  H        2.8237910    -0.6585230    -0.3492850
  H       -0.7244690    -0.9269870     1.7376420
units angstrom
no_reorient  #important for SAPT in psi4, default
symmetry c1  #important for SAPT in psi4, default
}

set PROPERTIES_ORIGIN ["COM"]
properties('MP2/aug-cc-pvtz', properties = ['dipole'])
--------------------------------------------------------------------------

    Molecular point group: c1
  Charge       = 0
  Multiplicity = 1
  Basis Set: AUG-CC-PVTZ
    Blend: AUG-CC-PVTZ
  Basis Set: (AUG-CC-PVTZ AUX)
    Blend: AUG-CC-PVTZ-JKFIT

    Orbital Energies [Eh]
    ---------------------

    Doubly Occupied:

       1A    -20.557353     2A    -11.285503     3A    -11.242448
       4A    -11.222048     5A    -11.220598     6A    -11.213424
       7A     -1.356163     8A     -1.093670     9A     -0.999295
      10A     -0.941904    11A     -0.840121    12A     -0.734537
      13A     -0.690799    14A     -0.651852    15A     -0.594419
      16A     -0.590736    17A     -0.566147    18A     -0.552643
      19A     -0.531374    20A     -0.526883    21A     -0.515632
      22A     -0.473184    23A     -0.434718    24A     -0.358156

  @DF-RHF Final Energy:  -270.09952278139178

   => Energetics <=

    Nuclear Repulsion Energy =            245.2571016800144434
    One-Electron Energy =                -852.3260326469271604
    Two-Electron Energy =                 336.9694081855209333
    Total Energy =                       -270.0995227813917836
  Basis Set: (AUG-CC-PVTZ AUX)
    Blend: AUG-CC-PVTZ-RI
    Molecular point group: c1

    Geometry (in Angstrom), charge = 0, multiplicity = 1:

       Center              X                  Y                   Z               Mass
    ------------   -----------------  -----------------  -----------------  -----------------
         O           -1.257402862345    -0.372247908154     1.137575667398    15.994914619570
         C           -0.646509862345    -0.467453908154    -0.158835332602    12.000000000000
         C            0.834818737655    -0.019596908154    -0.075919532602    12.000000000000
         C           -1.486083862345     0.402137091846    -1.076626332602    12.000000000000
         C            1.093321137655     1.345071091846     0.384614667398    12.000000000000
         C            1.766950137655    -0.926512908154    -0.400365332602    12.000000000000
         H           -0.689763862345    -1.508865908154    -0.515186332602     1.007825032230
         H           -1.075529862345     0.401612091846    -2.090035332602     1.007825032230
         H           -2.509546862345     0.021404091846    -1.105426332602     1.007825032230
         H           -1.513946862345     1.425934091846    -0.700417332602     1.007825032230
         H            0.555886137655     1.547008091846     1.317921667398     1.007825032230
         H            2.165066137655     1.488156091846     0.551467667398     1.007825032230
         H            0.760264137655     2.089832091846    -0.346819332602     1.007825032230
         H            1.569853037655    -1.935785808154    -0.749196632602     1.007825032230
         H            2.818749137655    -0.662816908154    -0.350727332602     1.007825032230
         H           -0.729510862345    -0.931280908154     1.736199667398     1.007825032230

  Basis Set: AUG-CC-PVTZ
    Blend: AUG-CC-PVTZ
  Basis Set: (AUG-CC-PVTZ AUX)
    Blend: AUG-CC-PVTZ-JKFIT
	 Reference Energy          =    -270.0995227813917836 [Eh]
	 Singles Energy            =      -0.0000000000000000 [Eh]
	 Same-Spin Energy          =      -0.2757315255395245 [Eh]
	 Opposite-Spin Energy      =      -0.9506688777214323 [Eh]
	 Correlation Energy        =      -1.2264004032609568 [Eh]
	 Total Energy              =    -271.3259231846527655 [Eh]

	 ================> DF-SCS-MP2 Energies <==================
	-----------------------------------------------------------
	 SCS Same-Spin Scale       =       0.3333333333333333 [-]
	 SCS Opposite-Spin Scale   =       1.2000000000000000 [-]
	 SCS Same-Spin Energy      =      -0.0919105085131748 [Eh]
	 SCS Opposite-Spin Energy  =      -1.1408026532657187 [Eh]
	 SCS Correlation Energy    =      -1.2327131617788936 [Eh]
	 SCS Total Energy          =    -271.3322359431707014 [Eh]
	-----------------------------------------------------------

  Dipole Moment: [D]
     X:     1.1115      Y:    -0.4151      Z:    -0.3641     Total:     1.2410

*** Psi4 exiting successfully. Buy a developer a beer!
