                               Psi4 1.4a3.dev225

  ==> Input File <==

--------------------------------------------------------------------------
#psi4
#
memory 32 gb

molecule  {
0 1
  O       -1.2433940    -0.3366800     1.2074370
  C       -0.6640150    -0.4819890    -0.1009900
  C        0.7919130    -0.0810760    -0.0782340
  C       -1.5159190     0.3706220    -1.0242050
  C        1.1030690     1.3392670     0.3065330
  C        1.7446070    -0.9832150    -0.3605780
  H       -0.7308000    -1.5333880    -0.4224710
  H       -1.1307760     0.3301940    -2.0469120
  H       -2.5455460     0.0047250    -1.0155750
  H       -1.5200810     1.4081240    -0.6829090
  H        0.5415810     1.6180770     1.2025330
  H        2.1707320     1.4680310     0.5024970
  H        0.8184500     2.0371770    -0.4879450
  H        1.4837420    -2.0518930    -0.6471486
  H        2.8007100    -0.7292190    -0.3378150
  H       -0.7102690    -0.8870460     1.8084860
units angstrom
no_reorient  #important for SAPT in psi4, default
symmetry c1  #important for SAPT in psi4, default
}

set PROPERTIES_ORIGIN ["COM"]
properties('MP2/aug-cc-pvtz', properties = ['dipole'])
--------------------------------------------------------------------------

    Molecular point group: c1
  Charge       = 0
  Multiplicity = 1
  Basis Set: AUG-CC-PVTZ
    Blend: AUG-CC-PVTZ
  Basis Set: (AUG-CC-PVTZ AUX)
    Blend: AUG-CC-PVTZ-JKFIT

    Orbital Energies [Eh]
    ---------------------

    Doubly Occupied:

       1A    -20.557990     2A    -11.284634     3A    -11.243101
       4A    -11.229345     5A    -11.221566     6A    -11.214451
       7A     -1.356855     8A     -1.092527     9A     -0.998407
      10A     -0.936687    11A     -0.845314    12A     -0.732756
      13A     -0.690994    14A     -0.645004    15A     -0.596505
      16A     -0.590842    17A     -0.564434    18A     -0.548750
      19A     -0.530798    20A     -0.521955    21A     -0.508806
      22A     -0.478366    23A     -0.440355    24A     -0.359416

  @DF-RHF Final Energy:  -270.09970805615512

   => Energetics <=

    Nuclear Repulsion Energy =            245.1294024820752782
    One-Electron Energy =                -852.0785031978039115
    Two-Electron Energy =                 336.8493926595734820
    Total Energy =                       -270.0997080561551229
  Basis Set: (AUG-CC-PVTZ AUX)
    Blend: AUG-CC-PVTZ-RI
    Molecular point group: c1

    Geometry (in Angstrom), charge = 0, multiplicity = 1:

       Center              X                  Y                   Z               Mass
    ------------   -----------------  -----------------  -----------------  -----------------
         O           -1.229624760861    -0.316417576950     1.183280130086    15.994914619570
         C           -0.650245760861    -0.461726576950    -0.125146869914    12.000000000000
         C            0.805682239139    -0.060813576950    -0.102390869914    12.000000000000
         C           -1.502149760861     0.390884423050    -1.048361869914    12.000000000000
         C            1.116838239139     1.359529423050     0.282376130086    12.000000000000
         C            1.758376239139    -0.962952576950    -0.384734869914    12.000000000000
         H           -0.717030760861    -1.513125576950    -0.446627869914     1.007825032230
         H           -1.117006760861     0.350456423050    -2.071068869914     1.007825032230
         H           -2.531776760861     0.024987423050    -1.039731869914     1.007825032230
         H           -1.506311760861     1.428386423050    -0.707065869914     1.007825032230
         H            0.555350239139     1.638339423050     1.178376130086     1.007825032230
         H            2.184501239139     1.488293423050     0.478340130086     1.007825032230
         H            0.832219239139     2.057439423050    -0.512101869914     1.007825032230
         H            1.497511239139    -2.031630576950    -0.671305469914     1.007825032230
         H            2.814479239139    -0.708956576950    -0.361971869914     1.007825032230
         H           -0.696499760861    -0.866783576950     1.784329130086     1.007825032230

  Basis Set: AUG-CC-PVTZ
    Blend: AUG-CC-PVTZ
  Basis Set: (AUG-CC-PVTZ AUX)
    Blend: AUG-CC-PVTZ-JKFIT
	 Reference Energy          =    -270.0997080561551229 [Eh]
	 Singles Energy            =      -0.0000000000000000 [Eh]
	 Same-Spin Energy          =      -0.2757201748223527 [Eh]
	 Opposite-Spin Energy      =      -0.9511102765325644 [Eh]
	 Correlation Energy        =      -1.2268304513549171 [Eh]
	 Total Energy              =    -271.3265385075100653 [Eh]

	 ================> DF-SCS-MP2 Energies <==================
	-----------------------------------------------------------
	 SCS Same-Spin Scale       =       0.3333333333333333 [-]
	 SCS Opposite-Spin Scale   =       1.2000000000000000 [-]
	 SCS Same-Spin Energy      =      -0.0919067249407842 [Eh]
	 SCS Opposite-Spin Energy  =      -1.1413323318390773 [Eh]
	 SCS Correlation Energy    =      -1.2332390567798615 [Eh]
	 SCS Total Energy          =    -271.3329471129349599 [Eh]
	-----------------------------------------------------------

  Dipole Moment: [D]
     X:     1.1055      Y:    -0.4488      Z:    -0.3909     Total:     1.2556

*** Psi4 exiting successfully. Buy a developer a beer!
