                               Psi4 1.3.2 release

  ==> Input File <==

--------------------------------------------------------------------------
#psi4
#
memory 32 gb

molecule  {
0 1
  O       -1.2523610    -0.3679540     1.1390180
  C       -0.6414680    -0.4631600    -0.1573930
  C        0.8068160    -0.0466880    -0.0850580
  C       -1.4810420     0.4064310    -1.0751840
  C        1.0983630     1.3493650     0.3860570
  C        1.7719920    -0.9222190    -0.3989230
  H       -0.6847220    -1.5045720    -0.5137440
  H       -1.0704880     0.4059060    -2.0885930
  H       -2.5045050     0.0256980    -1.1039840
  H       -1.5089050     1.4302280    -0.6989750
  H        0.5609280     1.5513020     1.3193640
  H        2.1701080     1.4924500     0.5529100
  H        0.7653060     2.0941260    -0.3453770
  H        1.5377490    -1.9244940    -0.7449540
  H        2.8237910    -0.6585230    -0.3492850
  H       -0.7786427    -0.8696175     1.6762096
units angstrom
no_reorient  #important for SAPT in psi4, default
symmetry c1  #important for SAPT in psi4, default
}

set PROPERTIES_ORIGIN ["COM"]
properties('MP2/aug-cc-pvtz', properties = ['dipole'])
--------------------------------------------------------------------------

    Molecular point group: c1
  Charge       = 0
  Multiplicity = 1
  Basis Set: AUG-CC-PVTZ
    Blend: AUG-CC-PVTZ
  Basis Set: (AUG-CC-PVTZ AUX)
    Blend: AUG-CC-PVTZ-JKFIT

    Orbital Energies [Eh]
    ---------------------

    Doubly Occupied:

       1A    -20.547987     2A    -11.285281     3A    -11.242353
       4A    -11.223282     5A    -11.221765     6A    -11.214487
       7A     -1.382852     8A     -1.096396     9A     -1.002638
      10A     -0.938810    11A     -0.849599    12A     -0.745136
      13A     -0.703063    14A     -0.650892    15A     -0.600655
      16A     -0.592153    17A     -0.565950    18A     -0.549618
      19A     -0.533797    20A     -0.524371    21A     -0.512592
      22A     -0.481933    23A     -0.442482    24A     -0.359520

  @DF-RHF Final Energy:  -270.09749716670530

   => Energetics <=

    Nuclear Repulsion Energy =            246.1377437799026211
    One-Electron Energy =                -853.9352553948281184
    Two-Electron Energy =                 337.7000144482202018
    Total Energy =                       -270.0974971667052955
  Basis Set: (AUG-CC-PVTZ AUX)
    Blend: AUG-CC-PVTZ-RI
    Molecular point group: c1

    Geometry (in Angstrom), charge = 0, multiplicity = 1:

       Center              X                  Y                   Z               Mass
    ------------   -----------------  -----------------  -----------------  -----------------
         O           -1.251726652121    -0.368626002033     1.139737322522    15.994914619570
         C           -0.640833652121    -0.463832002033    -0.156673677478    12.000000000000
         C            0.807450347879    -0.047360002033    -0.084338677478    12.000000000000
         C           -1.480407652121     0.405758997967    -1.074464677478    12.000000000000
         C            1.098997347879     1.348692997967     0.386776322522    12.000000000000
         C            1.772626347879    -0.922891002033    -0.398203677478    12.000000000000
         H           -0.684087652121    -1.505244002033    -0.513024677478     1.007825032230
         H           -1.069853652121     0.405233997967    -2.087873677478     1.007825032230
         H           -2.503870652121     0.025025997967    -1.103264677478     1.007825032230
         H           -1.508270652121     1.429555997967    -0.698255677478     1.007825032230
         H            0.561562347879     1.550629997967     1.320083322522     1.007825032230
         H            2.170742347879     1.491777997967     0.553629322522     1.007825032230
         H            0.765940347879     2.093453997967    -0.344657677478     1.007825032230
         H            1.538383347879    -1.925166002033    -0.744234677478     1.007825032230
         H            2.824425347879    -0.659195002033    -0.348565677478     1.007825032230
         H           -0.778008352121    -0.870289502033     1.676928922522     1.007825032230

  Basis Set: AUG-CC-PVTZ
    Blend: AUG-CC-PVTZ
  Basis Set: (AUG-CC-PVTZ AUX)
    Blend: AUG-CC-PVTZ-JKFIT
	 Reference Energy          =    -270.0974971667052955 [Eh]
	 Singles Energy            =      -0.0000000000000000 [Eh]
	 Same-Spin Energy          =      -0.2744265137719856 [Eh]
	 Opposite-Spin Energy      =      -0.9475860256214211 [Eh]
	 Correlation Energy        =      -1.2220125393934067 [Eh]
	 Total Energy              =    -271.3195097060986996 [Eh]

	 ================> DF-SCS-MP2 Energies <==================
	-----------------------------------------------------------
	 SCS Same-Spin Scale       =       0.3333333333333333 [-]
	 SCS Opposite-Spin Scale   =       1.2000000000000000 [-]
	 SCS Same-Spin Energy      =      -0.0914755045906619 [Eh]
	 SCS Opposite-Spin Energy  =      -1.1371032307457054 [Eh]
	 SCS Correlation Energy    =      -1.2285787353363673 [Eh]
	 SCS Total Energy          =    -271.3260759020416799 [Eh]
	-----------------------------------------------------------

  Dipole Moment: [D]
     X:     1.1004      Y:    -0.4028      Z:    -0.4394     Total:     1.2515

*** Psi4 exiting successfully. Buy a developer a beer!
