                               Psi4 1.4a3.dev225

  ==> Input File <==

--------------------------------------------------------------------------
#psi4
#
memory 32 gb

molecule  {
0 1
  O       -1.2433940    -0.3366800     1.2074370
  C       -0.6640150    -0.4819890    -0.1009900
  C        0.7919130    -0.0810760    -0.0782340
  C       -1.5159190     0.3706220    -1.0242050
  C        1.1030690     1.3392670     0.3065330
  C        1.7446070    -0.9832150    -0.3605780
  H       -0.7308000    -1.5333880    -0.4224710
  H       -1.1307760     0.3301940    -2.0469120
  H       -2.5455460     0.0047250    -1.0155750
  H       -1.5200810     1.4081240    -0.6829090
  H        0.5415810     1.6180770     1.2025330
  H        2.1707320     1.4680310     0.5024970
  H        0.8184500     2.0371770    -0.4879450
  H        1.5066900    -1.9578830    -0.6219394
  H        2.8007100    -0.7292190    -0.3378150
  H       -0.7102690    -0.8870460     1.8084860
units angstrom
no_reorient  #important for SAPT in psi4, default
symmetry c1  #important for SAPT in psi4, default
}

set PROPERTIES_ORIGIN ["COM"]
properties('MP2/aug-cc-pvtz', properties = ['dipole'])
--------------------------------------------------------------------------

    Molecular point group: c1
  Charge       = 0
  Multiplicity = 1
  Basis Set: AUG-CC-PVTZ
    Blend: AUG-CC-PVTZ
  Basis Set: (AUG-CC-PVTZ AUX)
    Blend: AUG-CC-PVTZ-JKFIT

    Orbital Energies [Eh]
    ---------------------

    Doubly Occupied:

       1A    -20.557993     2A    -11.284681     3A    -11.242207
       4A    -11.220493     5A    -11.217434     6A    -11.214452
       7A     -1.356859     8A     -1.093239     9A     -0.998802
      10A     -0.940600    11A     -0.847110    12A     -0.736761
      13A     -0.691873    14A     -0.654512    15A     -0.598546
      16A     -0.590542    17A     -0.564132    18A     -0.548562
      19A     -0.531141    20A     -0.525487    21A     -0.512399
      22A     -0.478903    23A     -0.440316    24A     -0.358618

  @DF-RHF Final Energy:  -270.10110299264545

   => Energetics <=

    Nuclear Repulsion Energy =            245.5466963468606991
    One-Electron Energy =                -852.8842760649135926
    Two-Electron Energy =                 337.2364767254074422
    Total Energy =                       -270.1011029926454512
  Basis Set: (AUG-CC-PVTZ AUX)
    Blend: AUG-CC-PVTZ-RI
    Molecular point group: c1

    Geometry (in Angstrom), charge = 0, multiplicity = 1:

       Center              X                  Y                   Z               Mass
    ------------   -----------------  -----------------  -----------------  -----------------
         O           -1.229893457485    -0.317518333862     1.182984957220    15.994914619570
         C           -0.650514457485    -0.462827333862    -0.125442042780    12.000000000000
         C            0.805413542515    -0.061914333862    -0.102686042780    12.000000000000
         C           -1.502418457485     0.389783666138    -1.048657042780    12.000000000000
         C            1.116569542515     1.358428666138     0.282080957220    12.000000000000
         C            1.758107542515    -0.964053333862    -0.385030042780    12.000000000000
         H           -0.717299457485    -1.514226333862    -0.446923042780     1.007825032230
         H           -1.117275457485     0.349355666138    -2.071364042780     1.007825032230
         H           -2.532045457485     0.023886666138    -1.040027042780     1.007825032230
         H           -1.506580457485     1.427285666138    -0.707361042780     1.007825032230
         H            0.555081542515     1.637238666138     1.178080957220     1.007825032230
         H            2.184232542515     1.487192666138     0.478044957220     1.007825032230
         H            0.831950542515     2.056338666138    -0.512397042780     1.007825032230
         H            1.520190542515    -1.938721333862    -0.646391442780     1.007825032230
         H            2.814210542515    -0.710057333862    -0.362267042780     1.007825032230
         H           -0.696768457485    -0.867884333862     1.784033957220     1.007825032230

  Basis Set: AUG-CC-PVTZ
    Blend: AUG-CC-PVTZ
  Basis Set: (AUG-CC-PVTZ AUX)
    Blend: AUG-CC-PVTZ-JKFIT
	 Reference Energy          =    -270.1011029926454512 [Eh]
	 Singles Energy            =      -0.0000000000000000 [Eh]
	 Same-Spin Energy          =      -0.2755711485057728 [Eh]
	 Opposite-Spin Energy      =      -0.9504041025407539 [Eh]
	 Correlation Energy        =      -1.2259752510465267 [Eh]
	 Total Energy              =    -271.3270782436919717 [Eh]

	 ================> DF-SCS-MP2 Energies <==================
	-----------------------------------------------------------
	 SCS Same-Spin Scale       =       0.3333333333333333 [-]
	 SCS Opposite-Spin Scale   =       1.2000000000000000 [-]
	 SCS Same-Spin Energy      =      -0.0918570495019243 [Eh]
	 SCS Opposite-Spin Energy  =      -1.1404849230489047 [Eh]
	 SCS Correlation Energy    =      -1.2323419725508289 [Eh]
	 SCS Total Energy          =    -271.3334449651962927 [Eh]
	-----------------------------------------------------------

  Dipole Moment: [D]
     X:     1.1006      Y:    -0.4927      Z:    -0.4021     Total:     1.2711

*** Psi4 exiting successfully. Buy a developer a beer!
