                               Psi4 1.3.2 release

  ==> Input File <==

--------------------------------------------------------------------------
#psi4
#
memory 32 gb

molecule  {
0 1
  O       -1.2523610    -0.3679540     1.1390180
  C       -0.6414680    -0.4631600    -0.1573930
  C        0.8149685    -0.0387402    -0.0823764
  C       -1.4810420     0.4064310    -1.0751840
  C        1.0983630     1.3493650     0.3860570
  C        1.7719920    -0.9222190    -0.3989230
  H       -0.6847220    -1.5045720    -0.5137440
  H       -1.0704880     0.4059060    -2.0885930
  H       -2.5045050     0.0256980    -1.1039840
  H       -1.5089050     1.4302280    -0.6989750
  H        0.5609280     1.5513020     1.3193640
  H        2.1701080     1.4924500     0.5529100
  H        0.7653060     2.0941260    -0.3453770
  H        1.5470105    -1.9263583    -0.7456937
  H        2.8237910    -0.6585230    -0.3492850
  H       -0.7244690    -0.9269870     1.7376420
units angstrom
no_reorient  #important for SAPT in psi4, default
symmetry c1  #important for SAPT in psi4, default
}

set PROPERTIES_ORIGIN ["COM"]
properties('MP2/aug-cc-pvtz', properties = ['dipole'])
--------------------------------------------------------------------------

    Molecular point group: c1
  Charge       = 0
  Multiplicity = 1
  Basis Set: AUG-CC-PVTZ
    Blend: AUG-CC-PVTZ
  Basis Set: (AUG-CC-PVTZ AUX)
    Blend: AUG-CC-PVTZ-JKFIT

    Orbital Energies [Eh]
    ---------------------

    Doubly Occupied:

       1A    -20.557856     2A    -11.284561     3A    -11.241964
       4A    -11.222503     5A    -11.221167     6A    -11.213977
       7A     -1.357151     8A     -1.093335     9A     -0.998987
      10A     -0.939243    11A     -0.844725    12A     -0.734691
      13A     -0.691460    14A     -0.650376    15A     -0.596752
      16A     -0.590699    17A     -0.564826    18A     -0.549834
      19A     -0.531270    20A     -0.524043    21A     -0.512723
      22A     -0.476954    23A     -0.439309    24A     -0.358804

  @DF-RHF Final Energy:  -270.10198219959670

   => Energetics <=

    Nuclear Repulsion Energy =            245.4444587799517592
    One-Electron Energy =                -852.6984625571692504
    Two-Electron Energy =                 337.1520215776207579
    Total Energy =                       -270.1019821995967050
  Basis Set: (AUG-CC-PVTZ AUX)
    Blend: AUG-CC-PVTZ-RI
    Molecular point group: c1

    Geometry (in Angstrom), charge = 0, multiplicity = 1:

       Center              X                  Y                   Z               Mass
    ------------   -----------------  -----------------  -----------------  -----------------
         O           -1.253606001888    -0.369040490028     1.138652817004    15.994914619570
         C           -0.642713001888    -0.464246490028    -0.157758182996    12.000000000000
         C            0.813723498112    -0.039826690028    -0.082741582996    12.000000000000
         C           -1.482287001888     0.405344509972    -1.075549182996    12.000000000000
         C            1.097117998112     1.348278509972     0.385691817004    12.000000000000
         C            1.770746998112    -0.923305490028    -0.399288182996    12.000000000000
         H           -0.685967001888    -1.505658490028    -0.514109182996     1.007825032230
         H           -1.071733001888     0.404819509972    -2.088958182996     1.007825032230
         H           -2.505750001888     0.024611509972    -1.104349182996     1.007825032230
         H           -1.510150001888     1.429141509972    -0.699340182996     1.007825032230
         H            0.559682998112     1.550215509972     1.318998817004     1.007825032230
         H            2.168862998112     1.491363509972     0.552544817004     1.007825032230
         H            0.764060998112     2.093039509972    -0.345742182996     1.007825032230
         H            1.545765498112    -1.927444790028    -0.746058882996     1.007825032230
         H            2.822545998112    -0.659609490028    -0.349650182996     1.007825032230
         H           -0.725714001888    -0.928073490028     1.737276817004     1.007825032230

  Basis Set: AUG-CC-PVTZ
    Blend: AUG-CC-PVTZ
  Basis Set: (AUG-CC-PVTZ AUX)
    Blend: AUG-CC-PVTZ-JKFIT
	 Reference Energy          =    -270.1019821995967050 [Eh]
	 Singles Energy            =      -0.0000000000000000 [Eh]
	 Same-Spin Energy          =      -0.2756511182060077 [Eh]
	 Opposite-Spin Energy      =      -0.9505842374248643 [Eh]
	 Correlation Energy        =      -1.2262353556308720 [Eh]
	 Total Energy              =    -271.3282175552275817 [Eh]

	 ================> DF-SCS-MP2 Energies <==================
	-----------------------------------------------------------
	 SCS Same-Spin Scale       =       0.3333333333333333 [-]
	 SCS Opposite-Spin Scale   =       1.2000000000000000 [-]
	 SCS Same-Spin Energy      =      -0.0918837060686692 [Eh]
	 SCS Opposite-Spin Energy  =      -1.1407010849098371 [Eh]
	 SCS Correlation Energy    =      -1.2325847909785064 [Eh]
	 SCS Total Energy          =    -271.3345669905751834 [Eh]
	-----------------------------------------------------------

  Dipole Moment: [D]
     X:     1.1135      Y:    -0.4340      Z:    -0.3737     Total:     1.2521

*** Psi4 exiting successfully. Buy a developer a beer!
