                               Psi4 1.3.2 release

  ==> Input File <==

--------------------------------------------------------------------------
#psi4
#
memory 32 gb

molecule  {
0 1
  O       -1.2523610    -0.3679540     1.1390180
  C       -0.7265333    -0.4499028     0.0231289
  C        0.8068160    -0.0466880    -0.0850580
  C       -1.4810420     0.4064310    -1.0751840
  C        1.0983630     1.3493650     0.3860570
  C        1.7719920    -0.9222190    -0.3989230
  H       -0.6847220    -1.5045720    -0.5137440
  H       -1.0704880     0.4059060    -2.0885930
  H       -2.5045050     0.0256980    -1.1039840
  H       -1.5089050     1.4302280    -0.6989750
  H        0.5609280     1.5513020     1.3193640
  H        2.1701080     1.4924500     0.5529100
  H        0.7653060     2.0941260    -0.3453770
  H        1.5377490    -1.9244940    -0.7449540
  H        2.8237910    -0.6585230    -0.3492850
  H       -0.7244690    -0.9269870     1.7376420
units angstrom
no_reorient  #important for SAPT in psi4, default
symmetry c1  #important for SAPT in psi4, default
}

set PROPERTIES_ORIGIN ["COM"]
properties('MP2/aug-cc-pvtz', properties = ['dipole'])
--------------------------------------------------------------------------

    Molecular point group: c1
  Charge       = 0
  Multiplicity = 1
  Basis Set: AUG-CC-PVTZ
    Blend: AUG-CC-PVTZ
  Basis Set: (AUG-CC-PVTZ AUX)
    Blend: AUG-CC-PVTZ-JKFIT

    Orbital Energies [Eh]
    ---------------------

    Doubly Occupied:

       1A    -20.583594     2A    -11.292853     3A    -11.236758
       4A    -11.217919     5A    -11.216792     6A    -11.211786
       7A     -1.461001     8A     -1.077345     9A     -0.984606
      10A     -0.932207    11A     -0.843199    12A     -0.774738
      13A     -0.704881    14A     -0.659425    15A     -0.636572
      16A     -0.587901    17A     -0.573400    18A     -0.552289
      19A     -0.542549    20A     -0.529794    21A     -0.512784
      22A     -0.441319    23A     -0.400009    24A     -0.351855

  @DF-RHF Final Energy:  -270.06046301236910

   => Energetics <=

    Nuclear Repulsion Energy =            246.6043373463847388
    One-Electron Energy =                -854.6784543653507171
    Two-Electron Energy =                 338.0136540065969371
    Total Energy =                       -270.0604630123690981
  Basis Set: (AUG-CC-PVTZ AUX)
    Blend: AUG-CC-PVTZ-RI
    Molecular point group: c1

    Geometry (in Angstrom), charge = 0, multiplicity = 1:

       Center              X                  Y                   Z               Mass
    ------------   -----------------  -----------------  -----------------  -----------------
         O           -1.240501481190    -0.369802535763     1.113850323804    15.994914619570
         C           -0.714673781190    -0.451751335763    -0.002038776196    12.000000000000
         C            0.818675518810    -0.048536535763    -0.110225676196    12.000000000000
         C           -1.469182481190     0.404582464237    -1.100351676196    12.000000000000
         C            1.110222518810     1.347516464237     0.360889323804    12.000000000000
         C            1.783851518810    -0.924067535763    -0.424090676196    12.000000000000
         H           -0.672862481190    -1.506420535763    -0.538911676196     1.007825032230
         H           -1.058628481190     0.404057464237    -2.113760676196     1.007825032230
         H           -2.492645481190     0.023849464237    -1.129151676196     1.007825032230
         H           -1.497045481190     1.428379464237    -0.724142676196     1.007825032230
         H            0.572787518810     1.549453464237     1.294196323804     1.007825032230
         H            2.181967518810     1.490601464237     0.527742323804     1.007825032230
         H            0.777165518810     2.092277464237    -0.370544676196     1.007825032230
         H            1.549608518810    -1.926342535763    -0.770121676196     1.007825032230
         H            2.835650518810    -0.660371535763    -0.374452676196     1.007825032230
         H           -0.712609481190    -0.928835535763     1.712474323804     1.007825032230

  Basis Set: AUG-CC-PVTZ
    Blend: AUG-CC-PVTZ
  Basis Set: (AUG-CC-PVTZ AUX)
    Blend: AUG-CC-PVTZ-JKFIT
	 Reference Energy          =    -270.0604630123690981 [Eh]
	 Singles Energy            =      -0.0000000000000000 [Eh]
	 Same-Spin Energy          =      -0.2761189263433462 [Eh]
	 Opposite-Spin Energy      =      -0.9494889771730430 [Eh]
	 Correlation Energy        =      -1.2256079035163894 [Eh]
	 Total Energy              =    -271.2860709158854888 [Eh]

	 ================> DF-SCS-MP2 Energies <==================
	-----------------------------------------------------------
	 SCS Same-Spin Scale       =       0.3333333333333333 [-]
	 SCS Opposite-Spin Scale   =       1.2000000000000000 [-]
	 SCS Same-Spin Energy      =      -0.0920396421144487 [Eh]
	 SCS Opposite-Spin Energy  =      -1.1393867726076516 [Eh]
	 SCS Correlation Energy    =      -1.2314264147221003 [Eh]
	 SCS Total Energy          =    -271.2918894270911778 [Eh]
	-----------------------------------------------------------

  Dipole Moment: [D]
     X:     0.7255      Y:    -0.4256      Z:     0.4338     Total:     0.9463

*** Psi4 exiting successfully. Buy a developer a beer!
