                               Psi4 1.3.2 release

  ==> Input File <==

--------------------------------------------------------------------------
#psi4
#
memory 32 gb

molecule  {
0 1
  O       -1.3038005    -0.3219083     1.1092165
  C       -0.6414680    -0.4631600    -0.1573930
  C        0.8068160    -0.0466880    -0.0850580
  C       -1.5274525     0.4236044    -1.0130178
  C        1.0983630     1.3493650     0.3860570
  C        1.7719920    -0.9222190    -0.3989230
  H       -0.6847220    -1.5045720    -0.5137440
  H       -1.0704880     0.4059060    -2.0885930
  H       -2.5045050     0.0256980    -1.1039840
  H       -1.5089050     1.4302280    -0.6989750
  H        0.5609280     1.5513020     1.3193640
  H        2.1701080     1.4924500     0.5529100
  H        0.7653060     2.0941260    -0.3453770
  H        1.5377490    -1.9244940    -0.7449540
  H        2.8237910    -0.6585230    -0.3492850
  H       -0.7244690    -0.9269870     1.7376420
units angstrom
no_reorient  #important for SAPT in psi4, default
symmetry c1  #important for SAPT in psi4, default
}

set PROPERTIES_ORIGIN ["COM"]
properties('MP2/aug-cc-pvtz', properties = ['dipole'])
--------------------------------------------------------------------------

    Molecular point group: c1
  Charge       = 0
  Multiplicity = 1
  Basis Set: AUG-CC-PVTZ
    Blend: AUG-CC-PVTZ
  Basis Set: (AUG-CC-PVTZ AUX)
    Blend: AUG-CC-PVTZ-JKFIT

    Orbital Energies [Eh]
    ---------------------

    Doubly Occupied:

       1A    -20.565252     2A    -11.283581     3A    -11.243703
       4A    -11.225118     5A    -11.222212     6A    -11.212470
       7A     -1.347466     8A     -1.092432     9A     -0.995164
      10A     -0.939668    11A     -0.846436    12A     -0.730325
      13A     -0.681396    14A     -0.653043    15A     -0.599042
      16A     -0.590283    17A     -0.567619    18A     -0.553294
      19A     -0.529594    20A     -0.514458    21A     -0.498726
      22A     -0.478591    23A     -0.442891    24A     -0.360844

  @DF-RHF Final Energy:  -270.08382901518792

   => Energetics <=

    Nuclear Repulsion Energy =            245.3640426551833684
    One-Electron Energy =                -852.5485234934218397
    Two-Electron Energy =                 337.1006518230504980
    Total Energy =                       -270.0838290151879164
  Basis Set: (AUG-CC-PVTZ AUX)
    Blend: AUG-CC-PVTZ-RI
    Molecular point group: c1

    Geometry (in Angstrom), charge = 0, multiplicity = 1:

       Center              X                  Y                   Z               Mass
    ------------   -----------------  -----------------  -----------------  -----------------
         O           -1.287771123943    -0.332859457243     1.106087525986    15.994914619570
         C           -0.625438623943    -0.474111157243    -0.160521974014    12.000000000000
         C            0.822845376057    -0.057639157243    -0.088186974014    12.000000000000
         C           -1.511423123943     0.412653242757    -1.016146774014    12.000000000000
         C            1.114392376057     1.338413842757     0.382928025986    12.000000000000
         C            1.788021376057    -0.933170157243    -0.402051974014    12.000000000000
         H           -0.668692623943    -1.515523157243    -0.516872974014     1.007825032230
         H           -1.054458623943     0.394954842757    -2.091721974014     1.007825032230
         H           -2.488475623943     0.014746842757    -1.107112974014     1.007825032230
         H           -1.492875623943     1.419276842757    -0.702103974014     1.007825032230
         H            0.576957376057     1.540350842757     1.316235025986     1.007825032230
         H            2.186137376057     1.481498842757     0.549781025986     1.007825032230
         H            0.781335376057     2.083174842757    -0.348505974014     1.007825032230
         H            1.553778376057    -1.935445157243    -0.748082974014     1.007825032230
         H            2.839820376057    -0.669474157243    -0.352413974014     1.007825032230
         H           -0.708439623943    -0.937938157243     1.734513025986     1.007825032230

  Basis Set: AUG-CC-PVTZ
    Blend: AUG-CC-PVTZ
  Basis Set: (AUG-CC-PVTZ AUX)
    Blend: AUG-CC-PVTZ-JKFIT
	 Reference Energy          =    -270.0838290151879164 [Eh]
	 Singles Energy            =      -0.0000000000000000 [Eh]
	 Same-Spin Energy          =      -0.2770141283941805 [Eh]
	 Opposite-Spin Energy      =      -0.9540644084556467 [Eh]
	 Correlation Energy        =      -1.2310785368498272 [Eh]
	 Total Energy              =    -271.3149075520377664 [Eh]

	 ================> DF-SCS-MP2 Energies <==================
	-----------------------------------------------------------
	 SCS Same-Spin Scale       =       0.3333333333333333 [-]
	 SCS Opposite-Spin Scale   =       1.2000000000000000 [-]
	 SCS Same-Spin Energy      =      -0.0923380427980602 [Eh]
	 SCS Opposite-Spin Energy  =      -1.1448772901467759 [Eh]
	 SCS Correlation Energy    =      -1.2372153329448361 [Eh]
	 SCS Total Energy          =    -271.3210443481327729 [Eh]
	-----------------------------------------------------------

  Dipole Moment: [D]
     X:     1.2152      Y:    -0.5029      Z:    -0.2741     Total:     1.3434

*** Psi4 exiting successfully. Buy a developer a beer!
