                               Psi4 1.3.2 release

  ==> Input File <==

--------------------------------------------------------------------------
#psi4
#
memory 32 gb

molecule  {
0 1
  O       -1.2617360    -0.4171712     1.1372454
  C       -0.6414680    -0.4631600    -0.1573930
  C        0.8068160    -0.0466880    -0.0850580
  C       -1.4810420     0.4064310    -1.0751840
  C        1.0983630     1.3493650     0.3860570
  C        1.7719920    -0.9222190    -0.3989230
  H       -0.7026109    -1.5142811    -0.4811241
  H       -1.0704880     0.4059060    -2.0885930
  H       -2.5045050     0.0256980    -1.1039840
  H       -1.5089050     1.4302280    -0.6989750
  H        0.5609280     1.5513020     1.3193640
  H        2.1701080     1.4924500     0.5529100
  H        0.7653060     2.0941260    -0.3453770
  H        1.5377490    -1.9244940    -0.7449540
  H        2.8237910    -0.6585230    -0.3492850
  H       -0.7244690    -0.9269870     1.7376420
units angstrom
no_reorient  #important for SAPT in psi4, default
symmetry c1  #important for SAPT in psi4, default
}

set PROPERTIES_ORIGIN ["COM"]
properties('MP2/aug-cc-pvtz', properties = ['dipole'])
--------------------------------------------------------------------------

    Molecular point group: c1
  Charge       = 0
  Multiplicity = 1
  Basis Set: AUG-CC-PVTZ
    Blend: AUG-CC-PVTZ
  Basis Set: (AUG-CC-PVTZ AUX)
    Blend: AUG-CC-PVTZ-JKFIT

    Orbital Energies [Eh]
    ---------------------

    Doubly Occupied:

       1A    -20.553756     2A    -11.284112     3A    -11.242655
       4A    -11.223390     5A    -11.222423     6A    -11.214981
       7A     -1.360062     8A     -1.094282     9A     -0.999707
      10A     -0.938992    11A     -0.847151    12A     -0.739031
      13A     -0.690333    14A     -0.650959    15A     -0.598102
      16A     -0.591050    17A     -0.564527    18A     -0.549720
      19A     -0.533580    20A     -0.524921    21A     -0.512415
      22A     -0.476303    23A     -0.439252    24A     -0.359670

  @DF-RHF Final Energy:  -270.10293433723916

   => Energetics <=

    Nuclear Repulsion Energy =            245.3323795532011218
    One-Electron Energy =                -852.4478754180283886
    Two-Electron Energy =                 337.0125615275881046
    Total Energy =                       -270.1029343372391622
  Basis Set: (AUG-CC-PVTZ AUX)
    Blend: AUG-CC-PVTZ-RI
    Molecular point group: c1

    Geometry (in Angstrom), charge = 0, multiplicity = 1:

       Center              X                  Y                   Z               Mass
    ------------   -----------------  -----------------  -----------------  -----------------
         O           -1.259784358922    -0.407911786073     1.137192871311    15.994914619570
         C           -0.639516358922    -0.453900586073    -0.157445528689    12.000000000000
         C            0.808767641078    -0.037428586073    -0.085110528689    12.000000000000
         C           -1.479090358922     0.415690413927    -1.075236528689    12.000000000000
         C            1.100314641078     1.358624413927     0.386004471311    12.000000000000
         C            1.773943641078    -0.912959586073    -0.398975528689    12.000000000000
         H           -0.700659258922    -1.505021686073    -0.481176628689     1.007825032230
         H           -1.068536358922     0.415165413927    -2.088645528689     1.007825032230
         H           -2.502553358922     0.034957413927    -1.104036528689     1.007825032230
         H           -1.506953358922     1.439487413927    -0.699027528689     1.007825032230
         H            0.562879641078     1.560561413927     1.319311471311     1.007825032230
         H            2.172059641078     1.501709413927     0.552857471311     1.007825032230
         H            0.767257641078     2.103385413927    -0.345429528689     1.007825032230
         H            1.539700641078    -1.915234586073    -0.745006528689     1.007825032230
         H            2.825742641078    -0.649263586073    -0.349337528689     1.007825032230
         H           -0.722517358922    -0.917727586073     1.737589471311     1.007825032230

  Basis Set: AUG-CC-PVTZ
    Blend: AUG-CC-PVTZ
  Basis Set: (AUG-CC-PVTZ AUX)
    Blend: AUG-CC-PVTZ-JKFIT
	 Reference Energy          =    -270.1029343372391622 [Eh]
	 Singles Energy            =      -0.0000000000000000 [Eh]
	 Same-Spin Energy          =      -0.2752322868867089 [Eh]
	 Opposite-Spin Energy      =      -0.9497222145127832 [Eh]
	 Correlation Energy        =      -1.2249545013994920 [Eh]
	 Total Energy              =    -271.3278888386386711 [Eh]

	 ================> DF-SCS-MP2 Energies <==================
	-----------------------------------------------------------
	 SCS Same-Spin Scale       =       0.3333333333333333 [-]
	 SCS Opposite-Spin Scale   =       1.2000000000000000 [-]
	 SCS Same-Spin Energy      =      -0.0917440956289030 [Eh]
	 SCS Opposite-Spin Energy  =      -1.1396666574153398 [Eh]
	 SCS Correlation Energy    =      -1.2314107530442429 [Eh]
	 SCS Total Energy          =    -271.3343450902834206 [Eh]
	-----------------------------------------------------------

  Dipole Moment: [D]
     X:     1.1744      Y:    -0.3403      Z:    -0.3929     Total:     1.2842

*** Psi4 exiting successfully. Buy a developer a beer!
