                               Psi4 1.3.2 release

  ==> Input File <==

--------------------------------------------------------------------------
#psi4
#
memory 32 gb

molecule  {
0 1
  O       -1.2523610    -0.3679540     1.1390180
  C       -0.6414680    -0.4631600    -0.1573930
  C        0.7594661    -0.0957532    -0.1016420
  C       -1.4810420     0.4064310    -1.0751840
  C        1.0983630     1.3493650     0.3860570
  C        1.7719920    -0.9222190    -0.3989230
  H       -0.6847220    -1.5045720    -0.5137440
  H       -1.0704880     0.4059060    -2.0885930
  H       -2.5045050     0.0256980    -1.1039840
  H       -1.5089050     1.4302280    -0.6989750
  H        0.5609280     1.5513020     1.3193640
  H        2.1701080     1.4924500     0.5529100
  H        0.7653060     2.0941260    -0.3453770
  H        1.4825794    -1.9117106    -0.7399643
  H        2.8237910    -0.6585230    -0.3492850
  H       -0.7244690    -0.9269870     1.7376420
units angstrom
no_reorient  #important for SAPT in psi4, default
symmetry c1  #important for SAPT in psi4, default
}

set PROPERTIES_ORIGIN ["COM"]
properties('MP2/aug-cc-pvtz', properties = ['dipole'])
--------------------------------------------------------------------------

    Molecular point group: c1
  Charge       = 0
  Multiplicity = 1
  Basis Set: AUG-CC-PVTZ
    Blend: AUG-CC-PVTZ
  Basis Set: (AUG-CC-PVTZ AUX)
    Blend: AUG-CC-PVTZ-JKFIT

    Orbital Energies [Eh]
    ---------------------

    Doubly Occupied:

       1A    -20.559206     2A    -11.281954     3A    -11.241495
       4A    -11.224480     5A    -11.222132     6A    -11.215396
       7A     -1.359611     8A     -1.095799     9A     -0.998395
      10A     -0.932944    11A     -0.856695    12A     -0.735349
      13A     -0.693088    14A     -0.646552    15A     -0.604956
      16A     -0.591979    17A     -0.561425    18A     -0.545021
      19A     -0.531936    20A     -0.522207    21A     -0.497186
      22A     -0.488491    23A     -0.442013    24A     -0.360507

  @DF-RHF Final Energy:  -270.09612724803605

   => Energetics <=

    Nuclear Repulsion Energy =            245.9071528373144986
    One-Electron Energy =                -853.5889253737386753
    Two-Electron Energy =                 337.5856452883881502
    Total Energy =                       -270.0961272480360549
  Basis Set: (AUG-CC-PVTZ AUX)
    Blend: AUG-CC-PVTZ-RI
    Molecular point group: c1

    Geometry (in Angstrom), charge = 0, multiplicity = 1:

       Center              X                  Y                   Z               Mass
    ------------   -----------------  -----------------  -----------------  -----------------
         O           -1.245113644532    -0.361263458921     1.141271670016    15.994914619570
         C           -0.634220644532    -0.456469458921    -0.155139329984    12.000000000000
         C            0.766713455468    -0.089062658921    -0.099388329984    12.000000000000
         C           -1.473794644532     0.413121541079    -1.072930329984    12.000000000000
         C            1.105610355468     1.356055541079     0.388310670016    12.000000000000
         C            1.779239355468    -0.915528458921    -0.396669329984    12.000000000000
         H           -0.677474644532    -1.497881458921    -0.511490329984     1.007825032230
         H           -1.063240644532     0.412596541079    -2.086339329984     1.007825032230
         H           -2.497257644532     0.032388541079    -1.101730329984     1.007825032230
         H           -1.501657644532     1.436918541079    -0.696721329984     1.007825032230
         H            0.568175355468     1.557992541079     1.321617670016     1.007825032230
         H            2.177355355468     1.499140541079     0.555163670016     1.007825032230
         H            0.772553355468     2.100816541079    -0.343123329984     1.007825032230
         H            1.489826755468    -1.905020058921    -0.737710629984     1.007825032230
         H            2.831038355468    -0.651832458921    -0.347031329984     1.007825032230
         H           -0.717221644532    -0.920296458921     1.739895670016     1.007825032230

  Basis Set: AUG-CC-PVTZ
    Blend: AUG-CC-PVTZ
  Basis Set: (AUG-CC-PVTZ AUX)
    Blend: AUG-CC-PVTZ-JKFIT
	 Reference Energy          =    -270.0961272480360549 [Eh]
	 Singles Energy            =      -0.0000000000000000 [Eh]
	 Same-Spin Energy          =      -0.2760161019666094 [Eh]
	 Opposite-Spin Energy      =      -0.9513222391851363 [Eh]
	 Correlation Energy        =      -1.2273383411517456 [Eh]
	 Total Energy              =    -271.3234655891877765 [Eh]

	 ================> DF-SCS-MP2 Energies <==================
	-----------------------------------------------------------
	 SCS Same-Spin Scale       =       0.3333333333333333 [-]
	 SCS Opposite-Spin Scale   =       1.2000000000000000 [-]
	 SCS Same-Spin Energy      =      -0.0920053673222031 [Eh]
	 SCS Opposite-Spin Energy  =      -1.1415866870221634 [Eh]
	 SCS Correlation Energy    =      -1.2335920543443666 [Eh]
	 SCS Total Energy          =    -271.3297193023803970 [Eh]
	-----------------------------------------------------------

  Dipole Moment: [D]
     X:     1.1175      Y:    -0.4771      Z:    -0.3948     Total:     1.2776

*** Psi4 exiting successfully. Buy a developer a beer!
