                               Psi4 1.4a3.dev225

  ==> Input File <==

--------------------------------------------------------------------------
#psi4
#
memory 32 gb

molecule  {
0 1
  O       -1.2433940    -0.3366800     1.2074370
  C       -0.6438742    -0.4870403    -0.1464744
  C        0.7919130    -0.0810760    -0.0782340
  C       -1.5159190     0.3706220    -1.0242050
  C        1.1030690     1.3392670     0.3065330
  C        1.7446070    -0.9832150    -0.3605780
  H       -0.7308000    -1.5333880    -0.4224710
  H       -1.1307760     0.3301940    -2.0469120
  H       -2.5455460     0.0047250    -1.0155750
  H       -1.5200810     1.4081240    -0.6829090
  H        0.5415810     1.6180770     1.2025330
  H        2.1707320     1.4680310     0.5024970
  H        0.8184500     2.0371770    -0.4879450
  H        1.4952160    -2.0048880    -0.6345440
  H        2.8007100    -0.7292190    -0.3378150
  H       -0.7102690    -0.8870460     1.8084860
units angstrom
no_reorient  #important for SAPT in psi4, default
symmetry c1  #important for SAPT in psi4, default
}

set PROPERTIES_ORIGIN ["COM"]
properties('MP2/aug-cc-pvtz', properties = ['dipole'])
--------------------------------------------------------------------------

    Molecular point group: c1
  Charge       = 0
  Multiplicity = 1
  Basis Set: AUG-CC-PVTZ
    Blend: AUG-CC-PVTZ
  Basis Set: (AUG-CC-PVTZ AUX)
    Blend: AUG-CC-PVTZ-JKFIT

    Orbital Energies [Eh]
    ---------------------

    Doubly Occupied:

       1A    -20.551732     2A    -11.284732     3A    -11.243767
       4A    -11.224985     5A    -11.221914     6A    -11.215360
       7A     -1.337954     8A     -1.096980     9A     -1.002099
      10A     -0.940043    11A     -0.848668    12A     -0.732665
      13A     -0.683975    14A     -0.649953    15A     -0.599249
      16A     -0.587882    17A     -0.561006    18A     -0.548912
      19A     -0.524983    20A     -0.523365    21A     -0.508131
      22A     -0.483568    23A     -0.446311    24A     -0.359784

  @DF-RHF Final Energy:  -270.09894877188117

   => Energetics <=

    Nuclear Repulsion Energy =            245.1174395093539431
    One-Electron Energy =                -852.0767466770918190
    Two-Electron Energy =                 336.8603583958566787
    Total Energy =                       -270.0989487718811688
  Basis Set: (AUG-CC-PVTZ AUX)
    Blend: AUG-CC-PVTZ-RI
    Molecular point group: c1

    Geometry (in Angstrom), charge = 0, multiplicity = 1:

       Center              X                  Y                   Z               Mass
    ------------   -----------------  -----------------  -----------------  -----------------
         O           -1.232567064476    -0.316263721978     1.189473809254    15.994914619570
         C           -0.633047264476    -0.466624021978    -0.164437590746    12.000000000000
         C            0.802739935524    -0.060659721978    -0.096197190746    12.000000000000
         C           -1.505092064476     0.391038278022    -1.042168190746    12.000000000000
         C            1.113895935524     1.359683278022     0.288569809254    12.000000000000
         C            1.755433935524    -0.962798721978    -0.378541190746    12.000000000000
         H           -0.719973064476    -1.512971721978    -0.440434190746     1.007825032230
         H           -1.119949064476     0.350610278022    -2.064875190746     1.007825032230
         H           -2.534719064476     0.025141278022    -1.033538190746     1.007825032230
         H           -1.509254064476     1.428540278022    -0.700872190746     1.007825032230
         H            0.552407935524     1.638493278022     1.184569809254     1.007825032230
         H            2.181558935524     1.488447278022     0.484533809254     1.007825032230
         H            0.829276935524     2.057593278022    -0.505908190746     1.007825032230
         H            1.506042935524    -1.984471721978    -0.652507190746     1.007825032230
         H            2.811536935524    -0.708802721978    -0.355778190746     1.007825032230
         H           -0.699442064476    -0.866629721978     1.790522809254     1.007825032230

  Basis Set: AUG-CC-PVTZ
    Blend: AUG-CC-PVTZ
  Basis Set: (AUG-CC-PVTZ AUX)
    Blend: AUG-CC-PVTZ-JKFIT
	 Reference Energy          =    -270.0989487718811688 [Eh]
	 Singles Energy            =      -0.0000000000000000 [Eh]
	 Same-Spin Energy          =      -0.2759836317541763 [Eh]
	 Opposite-Spin Energy      =      -0.9517526193434822 [Eh]
	 Correlation Energy        =      -1.2277362510976584 [Eh]
	 Total Energy              =    -271.3266850229788361 [Eh]

	 ================> DF-SCS-MP2 Energies <==================
	-----------------------------------------------------------
	 SCS Same-Spin Scale       =       0.3333333333333333 [-]
	 SCS Opposite-Spin Scale   =       1.2000000000000000 [-]
	 SCS Same-Spin Energy      =      -0.0919945439180588 [Eh]
	 SCS Opposite-Spin Energy  =      -1.1421031432121787 [Eh]
	 SCS Correlation Energy    =      -1.2340976871302374 [Eh]
	 SCS Total Energy          =    -271.3330464590114275 [Eh]
	-----------------------------------------------------------

  Dipole Moment: [D]
     X:     1.1826      Y:    -0.4668      Z:    -0.5658     Total:     1.3917

*** Psi4 exiting successfully. Buy a developer a beer!
