                               Psi4 1.4a3.dev225

  ==> Input File <==

--------------------------------------------------------------------------
#psi4
#
memory 32 gb

molecule  {
0 1
  O       -1.2433940    -0.3366800     1.2074370
  C       -0.6640150    -0.4819890    -0.1009900
  C        0.7726329    -0.0863851    -0.0785353
  C       -1.5159190     0.3706220    -1.0242050
  C        1.1030690     1.3392670     0.3065330
  C        1.7446070    -0.9832150    -0.3605780
  H       -0.7308000    -1.5333880    -0.4224710
  H       -1.1307760     0.3301940    -2.0469120
  H       -2.5455460     0.0047250    -1.0155750
  H       -1.5200810     1.4081240    -0.6829090
  H        0.5415810     1.6180770     1.2025330
  H        2.1707320     1.4680310     0.5024970
  H        0.8184500     2.0371770    -0.4879450
  H        1.4952160    -2.0048880    -0.6345440
  H        2.8007100    -0.7292190    -0.3378150
  H       -0.7102690    -0.8870460     1.8084860
units angstrom
no_reorient  #important for SAPT in psi4, default
symmetry c1  #important for SAPT in psi4, default
}

set PROPERTIES_ORIGIN ["COM"]
properties('MP2/aug-cc-pvtz', properties = ['dipole'])
--------------------------------------------------------------------------

    Molecular point group: c1
  Charge       = 0
  Multiplicity = 1
  Basis Set: AUG-CC-PVTZ
    Blend: AUG-CC-PVTZ
  Basis Set: (AUG-CC-PVTZ AUX)
    Blend: AUG-CC-PVTZ-JKFIT

    Orbital Energies [Eh]
    ---------------------

    Doubly Occupied:

       1A    -20.558164     2A    -11.283945     3A    -11.243722
       4A    -11.225109     5A    -11.221313     6A    -11.214770
       7A     -1.357515     8A     -1.092872     9A     -0.998199
      10A     -0.936690    11A     -0.849189    12A     -0.735379
      13A     -0.691869    14A     -0.649143    15A     -0.597444
      16A     -0.591272    17A     -0.563904    18A     -0.548485
      19A     -0.531209    20A     -0.522919    21A     -0.508605
      22A     -0.480510    23A     -0.442981    24A     -0.356629

  @DF-RHF Final Energy:  -270.10100109814113

   => Energetics <=

    Nuclear Repulsion Energy =            245.4442336327227281
    One-Electron Energy =                -852.6867947459128345
    Two-Electron Energy =                 337.1415600150489240
    Total Energy =                       -270.1010010981411256
  Basis Set: (AUG-CC-PVTZ AUX)
    Blend: AUG-CC-PVTZ-RI
    Molecular point group: c1

    Geometry (in Angstrom), charge = 0, multiplicity = 1:

       Center              X                  Y                   Z               Mass
    ------------   -----------------  -----------------  -----------------  -----------------
         O           -1.227071149457    -0.316227780463     1.183174549777    15.994914619570
         C           -0.647692149457    -0.461536780463    -0.125252450223    12.000000000000
         C            0.788955750543    -0.065932880463    -0.102797750223    12.000000000000
         C           -1.499596149457     0.391074219537    -1.048467450223    12.000000000000
         C            1.119391850543     1.359719219537     0.282270549777    12.000000000000
         C            1.760929850543    -0.962762780463    -0.384840450223    12.000000000000
         H           -0.714477149457    -1.512935780463    -0.446733450223     1.007825032230
         H           -1.114453149457     0.350646219537    -2.071174450223     1.007825032230
         H           -2.529223149457     0.025177219537    -1.039837450223     1.007825032230
         H           -1.503758149457     1.428576219537    -0.707171450223     1.007825032230
         H            0.557903850543     1.638529219537     1.178270549777     1.007825032230
         H            2.187054850543     1.488483219537     0.478234549777     1.007825032230
         H            0.834772850543     2.057629219537    -0.512207450223     1.007825032230
         H            1.511538850543    -1.984435780463    -0.658806450223     1.007825032230
         H            2.817032850543    -0.708766780463    -0.362077450223     1.007825032230
         H           -0.693946149457    -0.866593780463     1.784223549777     1.007825032230

  Basis Set: AUG-CC-PVTZ
    Blend: AUG-CC-PVTZ
  Basis Set: (AUG-CC-PVTZ AUX)
    Blend: AUG-CC-PVTZ-JKFIT
	 Reference Energy          =    -270.1010010981411256 [Eh]
	 Singles Energy            =      -0.0000000000000000 [Eh]
	 Same-Spin Energy          =      -0.2758298996844669 [Eh]
	 Opposite-Spin Energy      =      -0.9510934928552786 [Eh]
	 Correlation Energy        =      -1.2269233925397454 [Eh]
	 Total Energy              =    -271.3279244906808572 [Eh]

	 ================> DF-SCS-MP2 Energies <==================
	-----------------------------------------------------------
	 SCS Same-Spin Scale       =       0.3333333333333333 [-]
	 SCS Opposite-Spin Scale   =       1.2000000000000000 [-]
	 SCS Same-Spin Energy      =      -0.0919432998948223 [Eh]
	 SCS Opposite-Spin Energy  =      -1.1413121914263342 [Eh]
	 SCS Correlation Energy    =      -1.2332554913211564 [Eh]
	 SCS Total Energy          =    -271.3342565894622567 [Eh]
	-----------------------------------------------------------

  Dipole Moment: [D]
     X:     1.1033      Y:    -0.4765      Z:    -0.4022     Total:     1.2673

*** Psi4 exiting successfully. Buy a developer a beer!
