                               Psi4 1.3.2 release

  ==> Input File <==

--------------------------------------------------------------------------
#psi4
#
memory 32 gb

molecule  {
0 1
  O       -1.2473937    -0.3433851     1.1393121
  C       -0.6414680    -0.4631600    -0.1573930
  C        0.8068160    -0.0466880    -0.0850580
  C       -1.4810420     0.4064310    -1.0751840
  C        1.0983630     1.3493650     0.3860570
  C        1.7719920    -0.9222190    -0.3989230
  H       -0.6757564    -1.4992408    -0.5298936
  H       -1.0704880     0.4059060    -2.0885930
  H       -2.5045050     0.0256980    -1.1039840
  H       -1.5089050     1.4302280    -0.6989750
  H        0.5609280     1.5513020     1.3193640
  H        2.1701080     1.4924500     0.5529100
  H        0.7653060     2.0941260    -0.3453770
  H        1.5377490    -1.9244940    -0.7449540
  H        2.8237910    -0.6585230    -0.3492850
  H       -0.7244690    -0.9269870     1.7376420
units angstrom
no_reorient  #important for SAPT in psi4, default
symmetry c1  #important for SAPT in psi4, default
}

set PROPERTIES_ORIGIN ["COM"]
properties('MP2/aug-cc-pvtz', properties = ['dipole'])
--------------------------------------------------------------------------

    Molecular point group: c1
  Charge       = 0
  Multiplicity = 1
  Basis Set: AUG-CC-PVTZ
    Blend: AUG-CC-PVTZ
  Basis Set: (AUG-CC-PVTZ AUX)
    Blend: AUG-CC-PVTZ-JKFIT

    Orbital Energies [Eh]
    ---------------------

    Doubly Occupied:

       1A    -20.560243     2A    -11.284247     3A    -11.241425
       4A    -11.222365     5A    -11.220794     6A    -11.213748
       7A     -1.356208     8A     -1.092957     9A     -0.998454
      10A     -0.938028    11A     -0.845963    12A     -0.732708
      13A     -0.692052    14A     -0.649291    15A     -0.597597
      16A     -0.590602    17A     -0.564350    18A     -0.548640
      19A     -0.530357    20A     -0.522495    21A     -0.510396
      22A     -0.479318    23A     -0.440687    24A     -0.358709

  @DF-RHF Final Energy:  -270.10080705851379

   => Energetics <=

    Nuclear Repulsion Energy =            245.6011175867505756
    One-Electron Energy =                -853.0205786228693796
    Two-Electron Energy =                 337.3186539776050381
    Total Energy =                       -270.1008070585137943
  Basis Set: (AUG-CC-PVTZ AUX)
    Blend: AUG-CC-PVTZ-RI
    Molecular point group: c1

    Geometry (in Angstrom), charge = 0, multiplicity = 1:

       Center              X                  Y                   Z               Mass
    ------------   -----------------  -----------------  -----------------  -----------------
         O           -1.248421715839    -0.348013410095     1.139446556800    15.994914619570
         C           -0.642496015839    -0.467788310095    -0.157258543200    12.000000000000
         C            0.805787984161    -0.051316310095    -0.084923543200    12.000000000000
         C           -1.482070015839     0.401802689905    -1.075049543200    12.000000000000
         C            1.097334984161     1.344736689905     0.386191456800    12.000000000000
         C            1.770963984161    -0.926847310095    -0.398788543200    12.000000000000
         H           -0.676784415839    -1.503869110095    -0.529759143200     1.007825032230
         H           -1.071516015839     0.401277689905    -2.088458543200     1.007825032230
         H           -2.505533015839     0.021069689905    -1.103849543200     1.007825032230
         H           -1.509933015839     1.425599689905    -0.698840543200     1.007825032230
         H            0.559899984161     1.546673689905     1.319498456800     1.007825032230
         H            2.169079984161     1.487821689905     0.553044456800     1.007825032230
         H            0.764277984161     2.089497689905    -0.345242543200     1.007825032230
         H            1.536720984161    -1.929122310095    -0.744819543200     1.007825032230
         H            2.822762984161    -0.663151310095    -0.349150543200     1.007825032230
         H           -0.725497015839    -0.931615310095     1.737776456800     1.007825032230

  Basis Set: AUG-CC-PVTZ
    Blend: AUG-CC-PVTZ
  Basis Set: (AUG-CC-PVTZ AUX)
    Blend: AUG-CC-PVTZ-JKFIT
	 Reference Energy          =    -270.1008070585137943 [Eh]
	 Singles Energy            =      -0.0000000000000000 [Eh]
	 Same-Spin Energy          =      -0.2759068662940561 [Eh]
	 Opposite-Spin Energy      =      -0.9511386011478465 [Eh]
	 Correlation Energy        =      -1.2270454674419027 [Eh]
	 Total Energy              =    -271.3278525259556773 [Eh]

	 ================> DF-SCS-MP2 Energies <==================
	-----------------------------------------------------------
	 SCS Same-Spin Scale       =       0.3333333333333333 [-]
	 SCS Opposite-Spin Scale   =       1.2000000000000000 [-]
	 SCS Same-Spin Energy      =      -0.0919689554313520 [Eh]
	 SCS Opposite-Spin Energy  =      -1.1413663213774159 [Eh]
	 SCS Correlation Energy    =      -1.2333352768087680 [Eh]
	 SCS Total Energy          =    -271.3341423353225537 [Eh]
	-----------------------------------------------------------

  Dipole Moment: [D]
     X:     1.0835      Y:    -0.4883      Z:    -0.3670     Total:     1.2438

*** Psi4 exiting successfully. Buy a developer a beer!
