                               Psi4 1.3.2 release

  ==> Input File <==

--------------------------------------------------------------------------
#psi4
#
memory 32 gb

molecule  {
0 1
  O       -1.2523610    -0.3679540     1.1390180
  C       -0.6414680    -0.4631600    -0.1573930
  C        0.8068160    -0.0466880    -0.0850580
  C       -1.4810420     0.4064310    -1.0751840
  C        1.0983630     1.3493650     0.3860570
  C        1.7719920    -0.9222190    -0.3989230
  H       -0.6847220    -1.5045720    -0.5137440
  H       -1.0704880     0.4059060    -2.0885930
  H       -2.5045050     0.0256980    -1.1039840
  H       -1.5089050     1.4302280    -0.6989750
  H        0.5609280     1.5513020     1.3193640
  H        2.1701080     1.4924500     0.5529100
  H        0.7653060     2.0941260    -0.3453770
  H        1.5808919    -1.7398947    -0.6812219
  H        2.8237910    -0.6585230    -0.3492850
  H       -0.7244690    -0.9269870     1.7376420
units angstrom
no_reorient  #important for SAPT in psi4, default
symmetry c1  #important for SAPT in psi4, default
}

set PROPERTIES_ORIGIN ["COM"]
properties('MP2/aug-cc-pvtz', properties = ['dipole'])
--------------------------------------------------------------------------

    Molecular point group: c1
  Charge       = 0
  Multiplicity = 1
  Basis Set: AUG-CC-PVTZ
    Blend: AUG-CC-PVTZ
  Basis Set: (AUG-CC-PVTZ AUX)
    Blend: AUG-CC-PVTZ-JKFIT

    Orbital Energies [Eh]
    ---------------------

    Doubly Occupied:

       1A    -20.558200     2A    -11.284463     3A    -11.240778
       4A    -11.219696     5A    -11.214307     6A    -11.198311
       7A     -1.357649     8A     -1.096746     9A     -1.000861
      10A     -0.950414    11A     -0.851696    12A     -0.747407
      13A     -0.694630    14A     -0.669382    15A     -0.600737
      16A     -0.590478    17A     -0.564030    18A     -0.549098
      19A     -0.533719    20A     -0.529292    21A     -0.514306
      22A     -0.479101    23A     -0.440381    24A     -0.358140

  @DF-RHF Final Energy:  -270.06637543836382

   => Energetics <=

    Nuclear Repulsion Energy =            246.4731904661337580
    One-Electron Energy =                -854.5914882758149815
    Two-Electron Energy =                 338.0519223713174597
    Total Energy =                       -270.0663754383638206
  Basis Set: (AUG-CC-PVTZ AUX)
    Blend: AUG-CC-PVTZ-RI
    Molecular point group: c1

    Geometry (in Angstrom), charge = 0, multiplicity = 1:

       Center              X                  Y                   Z               Mass
    ------------   -----------------  -----------------  -----------------  -----------------
         O           -1.252866125796    -0.370115727400     1.138271779616    15.994914619570
         C           -0.641973125796    -0.465321727400    -0.158139220384    12.000000000000
         C            0.806310874204    -0.048849727400    -0.085804220384    12.000000000000
         C           -1.481547125796     0.404269272600    -1.075930220384    12.000000000000
         C            1.097857874204     1.347203272600     0.385310779616    12.000000000000
         C            1.771486874204    -0.924380727400    -0.399669220384    12.000000000000
         H           -0.685227125796    -1.506733727400    -0.514490220384     1.007825032230
         H           -1.070993125796     0.403744272600    -2.089339220384     1.007825032230
         H           -2.505010125796     0.023536272600    -1.104730220384     1.007825032230
         H           -1.509410125796     1.428066272600    -0.699721220384     1.007825032230
         H            0.560422874204     1.549140272600     1.318617779616     1.007825032230
         H            2.169602874204     1.490288272600     0.552163779616     1.007825032230
         H            0.764800874204     2.091964272600    -0.346123220384     1.007825032230
         H            1.580386774204    -1.742056427400    -0.681968120384     1.007825032230
         H            2.823285874204    -0.660684727400    -0.350031220384     1.007825032230
         H           -0.724974125796    -0.929148727400     1.736895779616     1.007825032230

  Basis Set: AUG-CC-PVTZ
    Blend: AUG-CC-PVTZ
  Basis Set: (AUG-CC-PVTZ AUX)
    Blend: AUG-CC-PVTZ-JKFIT
	 Reference Energy          =    -270.0663754383638206 [Eh]
	 Singles Energy            =      -0.0000000000000000 [Eh]
	 Same-Spin Energy          =      -0.2755192733888738 [Eh]
	 Opposite-Spin Energy      =      -0.9500392870364556 [Eh]
	 Correlation Energy        =      -1.2255585604253294 [Eh]
	 Total Energy              =    -271.2919339987891476 [Eh]

	 ================> DF-SCS-MP2 Energies <==================
	-----------------------------------------------------------
	 SCS Same-Spin Scale       =       0.3333333333333333 [-]
	 SCS Opposite-Spin Scale   =       1.2000000000000000 [-]
	 SCS Same-Spin Energy      =      -0.0918397577962912 [Eh]
	 SCS Opposite-Spin Energy  =      -1.1400471444437466 [Eh]
	 SCS Correlation Energy    =      -1.2318869022400378 [Eh]
	 SCS Total Energy          =    -271.2982623406038556 [Eh]
	-----------------------------------------------------------

  Dipole Moment: [D]
     X:     1.1016      Y:    -0.4980      Z:    -0.3936     Total:     1.2714

*** Psi4 exiting successfully. Buy a developer a beer!
