                               Psi4 1.3.2 release

  ==> Input File <==

--------------------------------------------------------------------------
#psi4
#
memory 32 gb

molecule  {
0 1
  O       -1.2523610    -0.3679540     1.1390180
  C       -0.6613964    -0.3904724    -0.1337647
  C        0.8068160    -0.0466880    -0.0850580
  C       -1.4810420     0.4064310    -1.0751840
  C        1.0983630     1.3493650     0.3860570
  C        1.8192715    -0.8722295    -0.3851339
  H       -0.6847220    -1.5045720    -0.5137440
  H       -1.0704880     0.4059060    -2.0885930
  H       -2.5045050     0.0256980    -1.1039840
  H       -1.5089050     1.4302280    -0.6989750
  H        0.5609280     1.5513020     1.3193640
  H        2.1701080     1.4924500     0.5529100
  H        0.7653060     2.0941260    -0.3453770
  H        1.5377490    -1.9244940    -0.7449540
  H        2.8237910    -0.6585230    -0.3492850
  H       -0.7244690    -0.9269870     1.7376420
units angstrom
no_reorient  #important for SAPT in psi4, default
symmetry c1  #important for SAPT in psi4, default
}

set PROPERTIES_ORIGIN ["COM"]
properties('MP2/aug-cc-pvtz', properties = ['dipole'])
--------------------------------------------------------------------------

    Molecular point group: c1
  Charge       = 0
  Multiplicity = 1
  Basis Set: AUG-CC-PVTZ
    Blend: AUG-CC-PVTZ
  Basis Set: (AUG-CC-PVTZ AUX)
    Blend: AUG-CC-PVTZ-JKFIT

    Orbital Energies [Eh]
    ---------------------

    Doubly Occupied:

       1A    -20.562366     2A    -11.290111     3A    -11.242163
       4A    -11.224235     5A    -11.218149     6A    -11.214827
       7A     -1.371601     8A     -1.094355     9A     -1.008194
      10A     -0.933780    11A     -0.847925    12A     -0.743619
      13A     -0.687072    14A     -0.650513    15A     -0.607412
      16A     -0.598922    17A     -0.566244    18A     -0.549792
      19A     -0.542375    20A     -0.520441    21A     -0.501296
      22A     -0.482180    23A     -0.423456    24A     -0.359905

  @DF-RHF Final Energy:  -270.08889916619898

   => Energetics <=

    Nuclear Repulsion Energy =            246.0617873668462892
    One-Electron Energy =                -853.8195056903651903
    Two-Electron Energy =                 337.6688191573199447
    Total Energy =                       -270.0888991661989849
  Basis Set: (AUG-CC-PVTZ AUX)
    Blend: AUG-CC-PVTZ-RI
    Molecular point group: c1

    Geometry (in Angstrom), charge = 0, multiplicity = 1:

       Center              X                  Y                   Z               Mass
    ------------   -----------------  -----------------  -----------------  -----------------
         O           -1.256174156883    -0.385057450589     1.133801420074    15.994914619570
         C           -0.665209556883    -0.407575850589    -0.138981279926    12.000000000000
         C            0.803002843117    -0.063791450589    -0.090274579926    12.000000000000
         C           -1.484855156883     0.389327549411    -1.080400579926    12.000000000000
         C            1.094549843117     1.332261549411     0.380840420074    12.000000000000
         C            1.815458343117    -0.889332950589    -0.390350479926    12.000000000000
         H           -0.688535156883    -1.521675450589    -0.518960579926     1.007825032230
         H           -1.074301156883     0.388802549411    -2.093809579926     1.007825032230
         H           -2.508318156883     0.008594549411    -1.109200579926     1.007825032230
         H           -1.512718156883     1.413124549411    -0.704191579926     1.007825032230
         H            0.557114843117     1.534198549411     1.314147420074     1.007825032230
         H            2.166294843117     1.475346549411     0.547693420074     1.007825032230
         H            0.761492843117     2.077022549411    -0.350593579926     1.007825032230
         H            1.533935843117    -1.941597450589    -0.750170579926     1.007825032230
         H            2.819977843117    -0.675626450589    -0.354501579926     1.007825032230
         H           -0.728282156883    -0.944090450589     1.732425420074     1.007825032230

  Basis Set: AUG-CC-PVTZ
    Blend: AUG-CC-PVTZ
  Basis Set: (AUG-CC-PVTZ AUX)
    Blend: AUG-CC-PVTZ-JKFIT
	 Reference Energy          =    -270.0888991661989849 [Eh]
	 Singles Energy            =      -0.0000000000000000 [Eh]
	 Same-Spin Energy          =      -0.2760900374020327 [Eh]
	 Opposite-Spin Energy      =      -0.9510808397988693 [Eh]
	 Correlation Energy        =      -1.2271708772009020 [Eh]
	 Total Energy              =    -271.3160700433998613 [Eh]

	 ================> DF-SCS-MP2 Energies <==================
	-----------------------------------------------------------
	 SCS Same-Spin Scale       =       0.3333333333333333 [-]
	 SCS Opposite-Spin Scale   =       1.2000000000000000 [-]
	 SCS Same-Spin Energy      =      -0.0920300124673442 [Eh]
	 SCS Opposite-Spin Energy  =      -1.1412970077586431 [Eh]
	 SCS Correlation Energy    =      -1.2333270202259874 [Eh]
	 SCS Total Energy          =    -271.3222261864249845 [Eh]
	-----------------------------------------------------------

  Dipole Moment: [D]
     X:     1.0563      Y:    -0.3258      Z:    -0.2887     Total:     1.1425

*** Psi4 exiting successfully. Buy a developer a beer!
