                               Psi4 1.3.2 release

  ==> Input File <==

--------------------------------------------------------------------------
#psi4
#
memory 32 gb

molecule  {
0 1
  O       -1.2523610    -0.3679540     1.1390180
  C       -0.6414680    -0.4631600    -0.1573930
  C        0.8146013    -0.0447543    -0.0954236
  C       -1.4810420     0.4064310    -1.0751840
  C        1.0983630     1.3493650     0.3860570
  C        1.7719920    -0.9222190    -0.3989230
  H       -0.6847220    -1.5045720    -0.5137440
  H       -1.0704880     0.4059060    -2.0885930
  H       -2.5045050     0.0256980    -1.1039840
  H       -1.5089050     1.4302280    -0.6989750
  H        0.5646386     1.5601131     1.3195453
  H        2.1701080     1.4924500     0.5529100
  H        0.7653060     2.0941260    -0.3453770
  H        1.5377490    -1.9244940    -0.7449540
  H        2.8237910    -0.6585230    -0.3492850
  H       -0.7244690    -0.9269870     1.7376420
units angstrom
no_reorient  #important for SAPT in psi4, default
symmetry c1  #important for SAPT in psi4, default
}

set PROPERTIES_ORIGIN ["COM"]
properties('MP2/aug-cc-pvtz', properties = ['dipole'])
--------------------------------------------------------------------------

    Molecular point group: c1
  Charge       = 0
  Multiplicity = 1
  Basis Set: AUG-CC-PVTZ
    Blend: AUG-CC-PVTZ
  Basis Set: (AUG-CC-PVTZ AUX)
    Blend: AUG-CC-PVTZ-JKFIT

    Orbital Energies [Eh]
    ---------------------

    Doubly Occupied:

       1A    -20.558252     2A    -11.284419     3A    -11.241257
       4A    -11.221898     5A    -11.221301     6A    -11.213850
       7A     -1.357246     8A     -1.093588     9A     -0.998960
      10A     -0.938992    11A     -0.845133    12A     -0.734525
      13A     -0.691578    14A     -0.649923    15A     -0.598288
      16A     -0.590348    17A     -0.563884    18A     -0.548646
      19A     -0.531169    20A     -0.523980    21A     -0.511343
      22A     -0.477876    23A     -0.439117    24A     -0.360799

  @DF-RHF Final Energy:  -270.10234095718056

   => Energetics <=

    Nuclear Repulsion Energy =            245.4373631430850651
    One-Electron Energy =                -852.6866684471058306
    Two-Electron Energy =                 337.1469643468401500
    Total Energy =                       -270.1023409571805587
  Basis Set: (AUG-CC-PVTZ AUX)
    Blend: AUG-CC-PVTZ-RI
    Molecular point group: c1

    Geometry (in Angstrom), charge = 0, multiplicity = 1:

       Center              X                  Y                   Z               Mass
    ------------   -----------------  -----------------  -----------------  -----------------
         O           -1.253489813109    -0.368327024168     1.140461025094    15.994914619570
         C           -0.642596813109    -0.463533024168    -0.155949974906    12.000000000000
         C            0.813472486891    -0.045127324168    -0.093980574906    12.000000000000
         C           -1.482170813109     0.406057975832    -1.073740974906    12.000000000000
         C            1.097234186891     1.348991975832     0.387500025094    12.000000000000
         C            1.770863186891    -0.922592024168    -0.397479974906    12.000000000000
         H           -0.685850813109    -1.504945024168    -0.512300974906     1.007825032230
         H           -1.071616813109     0.405532975832    -2.087149974906     1.007825032230
         H           -2.505633813109     0.025324975832    -1.102540974906     1.007825032230
         H           -1.510033813109     1.429854975832    -0.697531974906     1.007825032230
         H            0.563509786891     1.559740075832     1.320988325094     1.007825032230
         H            2.168979186891     1.492076975832     0.554353025094     1.007825032230
         H            0.764177186891     2.093752975832    -0.343933974906     1.007825032230
         H            1.536620186891    -1.924867024168    -0.743510974906     1.007825032230
         H            2.822662186891    -0.658896024168    -0.347841974906     1.007825032230
         H           -0.725597813109    -0.927360024168     1.739085025094     1.007825032230

  Basis Set: AUG-CC-PVTZ
    Blend: AUG-CC-PVTZ
  Basis Set: (AUG-CC-PVTZ AUX)
    Blend: AUG-CC-PVTZ-JKFIT
	 Reference Energy          =    -270.1023409571805587 [Eh]
	 Singles Energy            =      -0.0000000000000000 [Eh]
	 Same-Spin Energy          =      -0.2755489360473578 [Eh]
	 Opposite-Spin Energy      =      -0.9504233041480546 [Eh]
	 Correlation Energy        =      -1.2259722401954125 [Eh]
	 Total Energy              =    -271.3283131973759623 [Eh]

	 ================> DF-SCS-MP2 Energies <==================
	-----------------------------------------------------------
	 SCS Same-Spin Scale       =       0.3333333333333333 [-]
	 SCS Opposite-Spin Scale   =       1.2000000000000000 [-]
	 SCS Same-Spin Energy      =      -0.0918496453491192 [Eh]
	 SCS Opposite-Spin Energy  =      -1.1405079649776655 [Eh]
	 SCS Correlation Energy    =      -1.2323576103267848 [Eh]
	 SCS Total Energy          =    -271.3346985675073597 [Eh]
	-----------------------------------------------------------

  Dipole Moment: [D]
     X:     1.1189      Y:    -0.4457      Z:    -0.3617     Total:     1.2575

*** Psi4 exiting successfully. Buy a developer a beer!
