                               Psi4 1.3.2 release

  ==> Input File <==

--------------------------------------------------------------------------
#psi4
#
memory 32 gb

molecule  {
0 1
  O       -1.2523610    -0.3679540     1.1390180
  C       -0.6414680    -0.4631600    -0.1573930
  C        0.8068160    -0.0466880    -0.0850580
  C       -1.4927757     0.3633695    -1.1037214
  C        1.0983630     1.3493650     0.3860570
  C        1.7719920    -0.9222190    -0.3989230
  H       -0.7076949    -1.4931138    -0.5423672
  H       -1.0704880     0.4059060    -2.0885930
  H       -2.5045050     0.0256980    -1.1039840
  H       -1.5089050     1.4302280    -0.6989750
  H        0.5609280     1.5513020     1.3193640
  H        2.1701080     1.4924500     0.5529100
  H        0.7653060     2.0941260    -0.3453770
  H        1.5377490    -1.9244940    -0.7449540
  H        2.8237910    -0.6585230    -0.3492850
  H       -0.7244690    -0.9269870     1.7376420
units angstrom
no_reorient  #important for SAPT in psi4, default
symmetry c1  #important for SAPT in psi4, default
}

set PROPERTIES_ORIGIN ["COM"]
properties('MP2/aug-cc-pvtz', properties = ['dipole'])
--------------------------------------------------------------------------

    Molecular point group: c1
  Charge       = 0
  Multiplicity = 1
  Basis Set: AUG-CC-PVTZ
    Blend: AUG-CC-PVTZ
  Basis Set: (AUG-CC-PVTZ AUX)
    Blend: AUG-CC-PVTZ-JKFIT

    Orbital Energies [Eh]
    ---------------------

    Doubly Occupied:

       1A    -20.559091     2A    -11.284250     3A    -11.242574
       4A    -11.223082     5A    -11.221293     6A    -11.214288
       7A     -1.357721     8A     -1.093349     9A     -1.000159
      10A     -0.938063    11A     -0.845829    12A     -0.735283
      13A     -0.691335    14A     -0.650051    15A     -0.598057
      16A     -0.593551    17A     -0.561543    18A     -0.555416
      19A     -0.533813    20A     -0.521125    21A     -0.508328
      22A     -0.473828    23A     -0.440303    24A     -0.359233

  @DF-RHF Final Energy:  -270.09877628445162

   => Energetics <=

    Nuclear Repulsion Energy =            245.2978092083970125
    One-Electron Energy =                -852.3900428370882310
    Two-Electron Energy =                 336.9934573442396299
    Total Energy =                       -270.0987762844516169
  Basis Set: (AUG-CC-PVTZ AUX)
    Blend: AUG-CC-PVTZ-RI
    Molecular point group: c1

    Geometry (in Angstrom), charge = 0, multiplicity = 1:

       Center              X                  Y                   Z               Mass
    ------------   -----------------  -----------------  -----------------  -----------------
         O           -1.250456111497    -0.362084955729     1.143331739750    15.994914619570
         C           -0.639563111497    -0.457290955729    -0.153079260250    12.000000000000
         C            0.808720888503    -0.040818955729    -0.080744260250    12.000000000000
         C           -1.490870811497     0.369238544271    -1.099407660250    12.000000000000
         C            1.100267888503     1.355234044271     0.390370739750    12.000000000000
         C            1.773896888503    -0.916349955729    -0.394609260250    12.000000000000
         H           -0.705790011497    -1.487244755729    -0.538053460250     1.007825032230
         H           -1.068583111497     0.411775044271    -2.084279260250     1.007825032230
         H           -2.502600111497     0.031567044271    -1.099670260250     1.007825032230
         H           -1.507000111497     1.436097044271    -0.694661260250     1.007825032230
         H            0.562832888503     1.557171044271     1.323677739750     1.007825032230
         H            2.172012888503     1.498319044271     0.557223739750     1.007825032230
         H            0.767210888503     2.099995044271    -0.341063260250     1.007825032230
         H            1.539653888503    -1.918624955729    -0.740640260250     1.007825032230
         H            2.825695888503    -0.652653955729    -0.344971260250     1.007825032230
         H           -0.722564111497    -0.921117955729     1.741955739750     1.007825032230

  Basis Set: AUG-CC-PVTZ
    Blend: AUG-CC-PVTZ
  Basis Set: (AUG-CC-PVTZ AUX)
    Blend: AUG-CC-PVTZ-JKFIT
	 Reference Energy          =    -270.0987762844516169 [Eh]
	 Singles Energy            =      -0.0000000000000000 [Eh]
	 Same-Spin Energy          =      -0.2756872898409494 [Eh]
	 Opposite-Spin Energy      =      -0.9507360656216002 [Eh]
	 Correlation Energy        =      -1.2264233554625497 [Eh]
	 Total Energy              =    -271.3251996399141603 [Eh]

	 ================> DF-SCS-MP2 Energies <==================
	-----------------------------------------------------------
	 SCS Same-Spin Scale       =       0.3333333333333333 [-]
	 SCS Opposite-Spin Scale   =       1.2000000000000000 [-]
	 SCS Same-Spin Energy      =      -0.0918957632803165 [Eh]
	 SCS Opposite-Spin Energy  =      -1.1408832787459202 [Eh]
	 SCS Correlation Energy    =      -1.2327790420262366 [Eh]
	 SCS Total Energy          =    -271.3315553264778259 [Eh]
	-----------------------------------------------------------

  Dipole Moment: [D]
     X:     1.1182      Y:    -0.4659      Z:    -0.3850     Total:     1.2711

*** Psi4 exiting successfully. Buy a developer a beer!
