                               Psi4 1.3.2 release

  ==> Input File <==

--------------------------------------------------------------------------
#psi4
#
memory 32 gb

molecule  {
0 1
  O       -1.2571423    -0.3925519     1.1383290
  C       -0.6414680    -0.4631600    -0.1573930
  C        0.8068160    -0.0466880    -0.0850580
  C       -1.4810420     0.4064310    -1.0751840
  C        1.0983630     1.3493650     0.3860570
  C        1.7719920    -0.9222190    -0.3989230
  H       -0.6936744    -1.5095859    -0.4974859
  H       -1.0704880     0.4059060    -2.0885930
  H       -2.5045050     0.0256980    -1.1039840
  H       -1.5089050     1.4302280    -0.6989750
  H        0.5609280     1.5513020     1.3193640
  H        2.1701080     1.4924500     0.5529100
  H        0.7653060     2.0941260    -0.3453770
  H        1.5377490    -1.9244940    -0.7449540
  H        2.8237910    -0.6585230    -0.3492850
  H       -0.7244690    -0.9269870     1.7376420
units angstrom
no_reorient  #important for SAPT in psi4, default
symmetry c1  #important for SAPT in psi4, default
}

set PROPERTIES_ORIGIN ["COM"]
properties('MP2/aug-cc-pvtz', properties = ['dipole'])
--------------------------------------------------------------------------

    Molecular point group: c1
  Charge       = 0
  Multiplicity = 1
  Basis Set: AUG-CC-PVTZ
    Blend: AUG-CC-PVTZ
  Basis Set: (AUG-CC-PVTZ AUX)
    Blend: AUG-CC-PVTZ-JKFIT

    Orbital Energies [Eh]
    ---------------------

    Doubly Occupied:

       1A    -20.555866     2A    -11.284174     3A    -11.242250
       4A    -11.223049     5A    -11.221887     6A    -11.214579
       7A     -1.358776     8A     -1.093855     9A     -0.999303
      10A     -0.938672    11A     -0.846729    12A     -0.736876
      13A     -0.691105    14A     -0.650413    15A     -0.597915
      16A     -0.590913    17A     -0.564422    18A     -0.549356
      19A     -0.532410    20A     -0.524211    21A     -0.511758
      22A     -0.477388    23A     -0.439918    24A     -0.359352

  @DF-RHF Final Energy:  -270.10284828320465

   => Energetics <=

    Nuclear Repulsion Energy =            245.4189157305254696
    One-Electron Energy =                -852.6331785661561753
    Two-Electron Energy =                 337.1114145524260834
    Total Energy =                       -270.1028482832046507
  Basis Set: (AUG-CC-PVTZ AUX)
    Blend: AUG-CC-PVTZ-RI
    Molecular point group: c1

    Geometry (in Angstrom), charge = 0, multiplicity = 1:

       Center              X                  Y                   Z               Mass
    ------------   -----------------  -----------------  -----------------  -----------------
         O           -1.256148939795    -0.387922448754     1.138266685940    15.994914619570
         C           -0.640474639795    -0.458530548754    -0.157455314060    12.000000000000
         C            0.807809360205    -0.042058548754    -0.085120314060    12.000000000000
         C           -1.480048639795     0.411060451246    -1.075246314060    12.000000000000
         C            1.099356360205     1.353994451246     0.385994685940    12.000000000000
         C            1.772985360205    -0.917589548754    -0.398985314060    12.000000000000
         H           -0.692681039795    -1.504956448754    -0.497548214060     1.007825032230
         H           -1.069494639795     0.410535451246    -2.088655314060     1.007825032230
         H           -2.503511639795     0.030327451246    -1.104046314060     1.007825032230
         H           -1.507911639795     1.434857451246    -0.699037314060     1.007825032230
         H            0.561921360205     1.555931451246     1.319301685940     1.007825032230
         H            2.171101360205     1.497079451246     0.552847685940     1.007825032230
         H            0.766299360205     2.098755451246    -0.345439314060     1.007825032230
         H            1.538742360205    -1.919864548754    -0.745016314060     1.007825032230
         H            2.824784360205    -0.653893548754    -0.349347314060     1.007825032230
         H           -0.723475639795    -0.922357548754     1.737579685940     1.007825032230

  Basis Set: AUG-CC-PVTZ
    Blend: AUG-CC-PVTZ
  Basis Set: (AUG-CC-PVTZ AUX)
    Blend: AUG-CC-PVTZ-JKFIT
	 Reference Energy          =    -270.1028482832046507 [Eh]
	 Singles Energy            =      -0.0000000000000000 [Eh]
	 Same-Spin Energy          =      -0.2754305668627853 [Eh]
	 Opposite-Spin Energy      =      -0.9501373455898617 [Eh]
	 Correlation Energy        =      -1.2255679124526471 [Eh]
	 Total Energy              =    -271.3284161956573257 [Eh]

	 ================> DF-SCS-MP2 Energies <==================
	-----------------------------------------------------------
	 SCS Same-Spin Scale       =       0.3333333333333333 [-]
	 SCS Opposite-Spin Scale   =       1.2000000000000000 [-]
	 SCS Same-Spin Energy      =      -0.0918101889542618 [Eh]
	 SCS Opposite-Spin Energy  =      -1.1401648147078340 [Eh]
	 SCS Correlation Energy    =      -1.2319750036620958 [Eh]
	 SCS Total Energy          =    -271.3348232868667651 [Eh]
	-----------------------------------------------------------

  Dipole Moment: [D]
     X:     1.1445      Y:    -0.3908      Z:    -0.3855     Total:     1.2694

*** Psi4 exiting successfully. Buy a developer a beer!
