                               Psi4 1.3.2 release

  ==> Input File <==

--------------------------------------------------------------------------
#psi4
#
memory 32 gb

molecule  {
0 1
  O       -1.2523610    -0.3679540     1.1390180
  C       -0.5989354    -0.4697886    -0.2476539
  C        0.8068160    -0.0466880    -0.0850580
  C       -1.4810420     0.4064310    -1.0751840
  C        1.0983630     1.3493650     0.3860570
  C        1.7719920    -0.9222190    -0.3989230
  H       -0.6847220    -1.5045720    -0.5137440
  H       -1.0704880     0.4059060    -2.0885930
  H       -2.5045050     0.0256980    -1.1039840
  H       -1.5089050     1.4302280    -0.6989750
  H        0.5609280     1.5513020     1.3193640
  H        2.1701080     1.4924500     0.5529100
  H        0.7653060     2.0941260    -0.3453770
  H        1.5377490    -1.9244940    -0.7449540
  H        2.8237910    -0.6585230    -0.3492850
  H       -0.7244690    -0.9269870     1.7376420
units angstrom
no_reorient  #important for SAPT in psi4, default
symmetry c1  #important for SAPT in psi4, default
}

set PROPERTIES_ORIGIN ["COM"]
properties('MP2/aug-cc-pvtz', properties = ['dipole'])
--------------------------------------------------------------------------

    Molecular point group: c1
  Charge       = 0
  Multiplicity = 1
  Basis Set: AUG-CC-PVTZ
    Blend: AUG-CC-PVTZ
  Basis Set: (AUG-CC-PVTZ AUX)
    Blend: AUG-CC-PVTZ-JKFIT

    Orbital Energies [Eh]
    ---------------------

    Doubly Occupied:

       1A    -20.545180     2A    -11.285249     3A    -11.244262
       4A    -11.225775     5A    -11.223215     6A    -11.216197
       7A     -1.321461     8A     -1.101841     9A     -1.005961
      10A     -0.941684    11A     -0.851465    12A     -0.733381
      13A     -0.676183    14A     -0.651077    15A     -0.601590
      16A     -0.586523    17A     -0.559735    18A     -0.549546
      19A     -0.524962    20A     -0.517189    21A     -0.506176
      22A     -0.484748    23A     -0.449894    24A     -0.360352

  @DF-RHF Final Energy:  -270.09249264400245

   => Energetics <=

    Nuclear Repulsion Energy =            245.0878871364311635
    One-Electron Energy =                -852.0334662745602827
    Two-Electron Energy =                 336.8530864941266714
    Total Energy =                       -270.0924926440024478
  Basis Set: (AUG-CC-PVTZ AUX)
    Blend: AUG-CC-PVTZ-RI
    Molecular point group: c1

    Geometry (in Angstrom), charge = 0, multiplicity = 1:

       Center              X                  Y                   Z               Mass
    ------------   -----------------  -----------------  -----------------  -----------------
         O           -1.258290705056    -0.367030131609     1.151601853008    15.994914619570
         C           -0.604865105056    -0.468864731609    -0.235070046992    12.000000000000
         C            0.800886294944    -0.045764131609    -0.072474146992    12.000000000000
         C           -1.486971705056     0.407354868391    -1.062600146992    12.000000000000
         C            1.092433294944     1.350288868391     0.398640853008    12.000000000000
         C            1.766062294944    -0.921295131609    -0.386339146992    12.000000000000
         H           -0.690651705056    -1.503648131609    -0.501160146992     1.007825032230
         H           -1.076417705056     0.406829868391    -2.076009146992     1.007825032230
         H           -2.510434705056     0.026621868391    -1.091400146992     1.007825032230
         H           -1.514834705056     1.431151868391    -0.686391146992     1.007825032230
         H            0.554998294944     1.552225868391     1.331947853008     1.007825032230
         H            2.164178294944     1.493373868391     0.565493853008     1.007825032230
         H            0.759376294944     2.095049868391    -0.332793146992     1.007825032230
         H            1.531819294944    -1.923570131609    -0.732370146992     1.007825032230
         H            2.817861294944    -0.657599131609    -0.336701146992     1.007825032230
         H           -0.730398705056    -0.926063131609     1.750225853008     1.007825032230

  Basis Set: AUG-CC-PVTZ
    Blend: AUG-CC-PVTZ
  Basis Set: (AUG-CC-PVTZ AUX)
    Blend: AUG-CC-PVTZ-JKFIT
	 Reference Energy          =    -270.0924926440024478 [Eh]
	 Singles Energy            =      -0.0000000000000000 [Eh]
	 Same-Spin Energy          =      -0.2764921152336406 [Eh]
	 Opposite-Spin Energy      =      -0.9529370336712570 [Eh]
	 Correlation Energy        =      -1.2294291489048976 [Eh]
	 Total Energy              =    -271.3219217929073466 [Eh]

	 ================> DF-SCS-MP2 Energies <==================
	-----------------------------------------------------------
	 SCS Same-Spin Scale       =       0.3333333333333333 [-]
	 SCS Opposite-Spin Scale   =       1.2000000000000000 [-]
	 SCS Same-Spin Energy      =      -0.0921640384112135 [Eh]
	 SCS Opposite-Spin Energy  =      -1.1435244404055085 [Eh]
	 SCS Correlation Energy    =      -1.2356884788167219 [Eh]
	 SCS Total Energy          =    -271.3281811228191600 [Eh]
	-----------------------------------------------------------

  Dipole Moment: [D]
     X:     1.2783      Y:    -0.4107      Z:    -0.7023     Total:     1.5153

*** Psi4 exiting successfully. Buy a developer a beer!
