                               Psi4 1.3.2 release

  ==> Input File <==

--------------------------------------------------------------------------
#psi4
#
memory 32 gb

molecule  {
0 1
  O       -1.2523610    -0.3679540     1.1390180
  C       -0.6414680    -0.4631600    -0.1573930
  C        0.8068160    -0.0466880    -0.0850580
  C       -1.4810420     0.4064310    -1.0751840
  C        1.0726073     1.3538432     0.3879962
  C        1.7556166    -0.9381110    -0.4040766
  H       -0.6847220    -1.5045720    -0.5137440
  H       -1.0704880     0.4059060    -2.0885930
  H       -2.5045050     0.0256980    -1.1039840
  H       -1.5089050     1.4302280    -0.6989750
  H        0.5609280     1.5513020     1.3193640
  H        2.1701080     1.4924500     0.5529100
  H        0.7653060     2.0941260    -0.3453770
  H        1.5377490    -1.9244940    -0.7449540
  H        2.8237910    -0.6585230    -0.3492850
  H       -0.7244690    -0.9269870     1.7376420
units angstrom
no_reorient  #important for SAPT in psi4, default
symmetry c1  #important for SAPT in psi4, default
}

set PROPERTIES_ORIGIN ["COM"]
properties('MP2/aug-cc-pvtz', properties = ['dipole'])
--------------------------------------------------------------------------

    Molecular point group: c1
  Charge       = 0
  Multiplicity = 1
  Basis Set: AUG-CC-PVTZ
    Blend: AUG-CC-PVTZ
  Basis Set: (AUG-CC-PVTZ AUX)
    Blend: AUG-CC-PVTZ-JKFIT

    Orbital Energies [Eh]
    ---------------------

    Doubly Occupied:

       1A    -20.557587     2A    -11.282950     3A    -11.242128
       4A    -11.223465     5A    -11.222176     6A    -11.213742
       7A     -1.357108     8A     -1.093536     9A     -0.997846
      10A     -0.940655    11A     -0.845101    12A     -0.734674
      13A     -0.691633    14A     -0.651818    15A     -0.594293
      16A     -0.592311    17A     -0.567809    18A     -0.544631
      19A     -0.531537    20A     -0.524429    21A     -0.513529
      22A     -0.476300    23A     -0.438456    24A     -0.360114

  @DF-RHF Final Energy:  -270.10058695086150

   => Energetics <=

    Nuclear Repulsion Energy =            245.6592400134746583
    One-Electron Energy =                -853.1239964175069872
    Two-Electron Energy =                 337.3641694531708026
    Total Energy =                       -270.1005869508614978
  Basis Set: (AUG-CC-PVTZ AUX)
    Blend: AUG-CC-PVTZ-RI
    Molecular point group: c1

    Geometry (in Angstrom), charge = 0, multiplicity = 1:

       Center              X                  Y                   Z               Mass
    ------------   -----------------  -----------------  -----------------  -----------------
         O           -1.246487207407    -0.366362996852     1.139466154260    15.994914619570
         C           -0.635594207407    -0.461568996852    -0.156944845740    12.000000000000
         C            0.812689792593    -0.045096996852    -0.084609845740    12.000000000000
         C           -1.475168207407     0.408022003148    -1.074735845740    12.000000000000
         C            1.078481092593     1.355434203148     0.388444354260    12.000000000000
         C            1.761490392593    -0.936519996852    -0.403628445740    12.000000000000
         H           -0.678848207407    -1.502980996852    -0.513295845740     1.007825032230
         H           -1.064614207407     0.407497003148    -2.088144845740     1.007825032230
         H           -2.498631207407     0.027289003148    -1.103535845740     1.007825032230
         H           -1.503031207407     1.431819003148    -0.698526845740     1.007825032230
         H            0.566801792593     1.552893003148     1.319812154260     1.007825032230
         H            2.175981792593     1.494041003148     0.553358154260     1.007825032230
         H            0.771179792593     2.095717003148    -0.344928845740     1.007825032230
         H            1.543622792593    -1.922902996852    -0.744505845740     1.007825032230
         H            2.829664792593    -0.656931996852    -0.348836845740     1.007825032230
         H           -0.718595207407    -0.925395996852     1.738090154260     1.007825032230

  Basis Set: AUG-CC-PVTZ
    Blend: AUG-CC-PVTZ
  Basis Set: (AUG-CC-PVTZ AUX)
    Blend: AUG-CC-PVTZ-JKFIT
	 Reference Energy          =    -270.1005869508614978 [Eh]
	 Singles Energy            =      -0.0000000000000000 [Eh]
	 Same-Spin Energy          =      -0.2757149044811168 [Eh]
	 Opposite-Spin Energy      =      -0.9507658452695845 [Eh]
	 Correlation Energy        =      -1.2264807497507013 [Eh]
	 Total Energy              =    -271.3270677006121900 [Eh]

	 ================> DF-SCS-MP2 Energies <==================
	-----------------------------------------------------------
	 SCS Same-Spin Scale       =       0.3333333333333333 [-]
	 SCS Opposite-Spin Scale   =       1.2000000000000000 [-]
	 SCS Same-Spin Energy      =      -0.0919049681603723 [Eh]
	 SCS Opposite-Spin Energy  =      -1.1409190143235013 [Eh]
	 SCS Correlation Energy    =      -1.2328239824838736 [Eh]
	 SCS Total Energy          =    -271.3334109333453625 [Eh]
	-----------------------------------------------------------

  Dipole Moment: [D]
     X:     1.1104      Y:    -0.4451      Z:    -0.3792     Total:     1.2550

*** Psi4 exiting successfully. Buy a developer a beer!
