                               Psi4 1.3.2 release

  ==> Input File <==

--------------------------------------------------------------------------
#psi4
#
memory 32 gb

molecule  {
0 1
  O       -1.2523610    -0.3679540     1.1390180
  C       -0.6485189    -0.4393105    -0.1487419
  C        0.8068160    -0.0466880    -0.0850580
  C       -1.4810420     0.4064310    -1.0751840
  C        1.0726341     1.3535640     0.3888071
  C        1.7719920    -0.9222190    -0.3989230
  H       -0.6847220    -1.5045720    -0.5137440
  H       -1.0704880     0.4059060    -2.0885930
  H       -2.5045050     0.0256980    -1.1039840
  H       -1.5089050     1.4302280    -0.6989750
  H        0.5609280     1.5513020     1.3193640
  H        2.1701080     1.4924500     0.5529100
  H        0.7653060     2.0941260    -0.3453770
  H        1.5377490    -1.9244940    -0.7449540
  H        2.8237910    -0.6585230    -0.3492850
  H       -0.7244690    -0.9269870     1.7376420
units angstrom
no_reorient  #important for SAPT in psi4, default
symmetry c1  #important for SAPT in psi4, default
}

set PROPERTIES_ORIGIN ["COM"]
properties('MP2/aug-cc-pvtz', properties = ['dipole'])
--------------------------------------------------------------------------

    Molecular point group: c1
  Charge       = 0
  Multiplicity = 1
  Basis Set: AUG-CC-PVTZ
    Blend: AUG-CC-PVTZ
  Basis Set: (AUG-CC-PVTZ AUX)
    Blend: AUG-CC-PVTZ-JKFIT

    Orbital Energies [Eh]
    ---------------------

    Doubly Occupied:

       1A    -20.559027     2A    -11.284575     3A    -11.241795
       4A    -11.223613     5A    -11.220946     6A    -11.213803
       7A     -1.362073     8A     -1.093448     9A     -1.000641
      10A     -0.938836    11A     -0.845203    12A     -0.735952
      13A     -0.690839    14A     -0.649790    15A     -0.598599
      16A     -0.594846    17A     -0.568828    18A     -0.544574
      19A     -0.534353    20A     -0.522587    21A     -0.512441
      22A     -0.477483    23A     -0.434189    24A     -0.360206

  @DF-RHF Final Energy:  -270.10050368521411

   => Energetics <=

    Nuclear Repulsion Energy =            245.8365101025707702
    One-Electron Energy =                -853.4567308530696437
    Two-Electron Energy =                 337.5197170652847944
    Total Energy =                       -270.1005036852141075
  Basis Set: (AUG-CC-PVTZ AUX)
    Blend: AUG-CC-PVTZ-RI
    Molecular point group: c1

    Geometry (in Angstrom), charge = 0, multiplicity = 1:

       Center              X                  Y                   Z               Mass
    ------------   -----------------  -----------------  -----------------  -----------------
         O           -1.247790930816    -0.371864683705     1.137428501757    15.994914619570
         C           -0.643948830816    -0.443221183705    -0.150331398243    12.000000000000
         C            0.811386069184    -0.050598683705    -0.086647498243    12.000000000000
         C           -1.476471930816     0.402520316295    -1.076773498243    12.000000000000
         C            1.077204169184     1.349653316295     0.387217601757    12.000000000000
         C            1.776562069184    -0.926129683705    -0.400512498243    12.000000000000
         H           -0.680151930816    -1.508482683705    -0.515333498243     1.007825032230
         H           -1.065917930816     0.401995316295    -2.090182498243     1.007825032230
         H           -2.499934930816     0.021787316295    -1.105573498243     1.007825032230
         H           -1.504334930816     1.426317316295    -0.700564498243     1.007825032230
         H            0.565498069184     1.547391316295     1.317774501757     1.007825032230
         H            2.174678069184     1.488539316295     0.551320501757     1.007825032230
         H            0.769876069184     2.090215316295    -0.346966498243     1.007825032230
         H            1.542319069184    -1.928404683705    -0.746543498243     1.007825032230
         H            2.828361069184    -0.662433683705    -0.350874498243     1.007825032230
         H           -0.719898930816    -0.930897683705     1.736052501757     1.007825032230

  Basis Set: AUG-CC-PVTZ
    Blend: AUG-CC-PVTZ
  Basis Set: (AUG-CC-PVTZ AUX)
    Blend: AUG-CC-PVTZ-JKFIT
	 Reference Energy          =    -270.1005036852141075 [Eh]
	 Singles Energy            =      -0.0000000000000000 [Eh]
	 Same-Spin Energy          =      -0.2757693374961001 [Eh]
	 Opposite-Spin Energy      =      -0.9506670382267479 [Eh]
	 Correlation Energy        =      -1.2264363757228480 [Eh]
	 Total Energy              =    -271.3269400609369768 [Eh]

	 ================> DF-SCS-MP2 Energies <==================
	-----------------------------------------------------------
	 SCS Same-Spin Scale       =       0.3333333333333333 [-]
	 SCS Opposite-Spin Scale   =       1.2000000000000000 [-]
	 SCS Same-Spin Energy      =      -0.0919231124987000 [Eh]
	 SCS Opposite-Spin Energy  =      -1.1408004458720975 [Eh]
	 SCS Correlation Energy    =      -1.2327235583707976 [Eh]
	 SCS Total Energy          =    -271.3332272435849291 [Eh]
	-----------------------------------------------------------

  Dipole Moment: [D]
     X:     1.0959      Y:    -0.4166      Z:    -0.3514     Total:     1.2240

*** Psi4 exiting successfully. Buy a developer a beer!
