                               Psi4 1.3.2 release

  ==> Input File <==

--------------------------------------------------------------------------
#psi4
#
memory 32 gb

molecule  {
0 1
  O       -1.2523610    -0.3679540     1.1390180
  C       -0.6175699    -0.5347061    -0.1808230
  C        0.8068160    -0.0466880    -0.0850580
  C       -1.4810420     0.4064310    -1.0751840
  C        1.0983630     1.3493650     0.3860570
  C        1.7220670    -0.9698087    -0.4118518
  H       -0.6847220    -1.5045720    -0.5137440
  H       -1.0704880     0.4059060    -2.0885930
  H       -2.5045050     0.0256980    -1.1039840
  H       -1.5089050     1.4302280    -0.6989750
  H        0.5609280     1.5513020     1.3193640
  H        2.1701080     1.4924500     0.5529100
  H        0.7653060     2.0941260    -0.3453770
  H        1.5377490    -1.9244940    -0.7449540
  H        2.8237910    -0.6585230    -0.3492850
  H       -0.7244690    -0.9269870     1.7376420
units angstrom
no_reorient  #important for SAPT in psi4, default
symmetry c1  #important for SAPT in psi4, default
}

set PROPERTIES_ORIGIN ["COM"]
properties('MP2/aug-cc-pvtz', properties = ['dipole'])
--------------------------------------------------------------------------

    Molecular point group: c1
  Charge       = 0
  Multiplicity = 1
  Basis Set: AUG-CC-PVTZ
    Blend: AUG-CC-PVTZ
  Basis Set: (AUG-CC-PVTZ AUX)
    Blend: AUG-CC-PVTZ-JKFIT

    Orbital Energies [Eh]
    ---------------------

    Doubly Occupied:

       1A    -20.554252     2A    -11.280826     3A    -11.243971
       4A    -11.225481     5A    -11.222933     6A    -11.214602
       7A     -1.343527     8A     -1.094805     9A     -0.990951
      10A     -0.944527    11A     -0.847720    12A     -0.739509
      13A     -0.688526    14A     -0.658084    15A     -0.586915
      16A     -0.582573    17A     -0.561990    18A     -0.549913
      19A     -0.532581    20A     -0.520987    21A     -0.514426
      22A     -0.475232    23A     -0.443956    24A     -0.358926

  @DF-RHF Final Energy:  -270.08765558505206

   => Energetics <=

    Nuclear Repulsion Energy =            245.0008316959209367
    One-Electron Energy =                -851.8225508709662108
    Two-Electron Energy =                 336.7340635899931840
    Total Energy =                       -270.0876555850520617
  Basis Set: (AUG-CC-PVTZ AUX)
    Blend: AUG-CC-PVTZ-RI
    Molecular point group: c1

    Geometry (in Angstrom), charge = 0, multiplicity = 1:

       Center              X                  Y                   Z               Mass
    ------------   -----------------  -----------------  -----------------  -----------------
         O           -1.248732394977    -0.351344796918     1.144087023033    15.994914619570
         C           -0.613941294977    -0.518096896918    -0.175753976967    12.000000000000
         C            0.810444605023    -0.030078796918    -0.079988976967    12.000000000000
         C           -1.477413394977     0.423040203082    -1.070114976967    12.000000000000
         C            1.101991605023     1.365974203082     0.391126023033    12.000000000000
         C            1.725695605023    -0.953199496918    -0.406782776967    12.000000000000
         H           -0.681093394977    -1.487962796918    -0.508674976967     1.007825032230
         H           -1.066859394977     0.422515203082    -2.083523976967     1.007825032230
         H           -2.500876394977     0.042307203082    -1.098914976967     1.007825032230
         H           -1.505276394977     1.446837203082    -0.693905976967     1.007825032230
         H            0.564556605023     1.567911203082     1.324433023033     1.007825032230
         H            2.173736605023     1.509059203082     0.557979023033     1.007825032230
         H            0.768934605023     2.110735203082    -0.340307976967     1.007825032230
         H            1.541377605023    -1.907884796918    -0.739884976967     1.007825032230
         H            2.827419605023    -0.641913796918    -0.344215976967     1.007825032230
         H           -0.720840394977    -0.910377796918     1.742711023033     1.007825032230

  Basis Set: AUG-CC-PVTZ
    Blend: AUG-CC-PVTZ
  Basis Set: (AUG-CC-PVTZ AUX)
    Blend: AUG-CC-PVTZ-JKFIT
	 Reference Energy          =    -270.0876555850520617 [Eh]
	 Singles Energy            =      -0.0000000000000000 [Eh]
	 Same-Spin Energy          =      -0.2758199382909531 [Eh]
	 Opposite-Spin Energy      =      -0.9517726579216590 [Eh]
	 Correlation Energy        =      -1.2275925962126122 [Eh]
	 Total Energy              =    -271.3152481812646784 [Eh]

	 ================> DF-SCS-MP2 Energies <==================
	-----------------------------------------------------------
	 SCS Same-Spin Scale       =       0.3333333333333333 [-]
	 SCS Opposite-Spin Scale   =       1.2000000000000000 [-]
	 SCS Same-Spin Energy      =      -0.0919399794303177 [Eh]
	 SCS Opposite-Spin Energy  =      -1.1421271895059908 [Eh]
	 SCS Correlation Energy    =      -1.2340671689363085 [Eh]
	 SCS Total Energy          =    -271.3217227539883538 [Eh]
	-----------------------------------------------------------

  Dipole Moment: [D]
     X:     1.1516      Y:    -0.4976      Z:    -0.4399     Total:     1.3294

*** Psi4 exiting successfully. Buy a developer a beer!
