                               Psi4 1.3.2 release

  ==> Input File <==

--------------------------------------------------------------------------
#psi4
#
memory 32 gb

molecule  {
0 1
  O       -1.2523610    -0.3679540     1.1390180
  C       -0.6414680    -0.4631600    -0.1573930
  C        0.8068160    -0.0466880    -0.0850580
  C       -1.4810420     0.4064310    -1.0751840
  C        1.0983630     1.3493650     0.3860570
  C        1.7719920    -0.9222190    -0.3989230
  H       -0.6847220    -1.5045720    -0.5137440
  H       -1.0704880     0.4059060    -2.0885930
  H       -2.5045050     0.0256980    -1.1039840
  H       -1.5089050     1.4302280    -0.6989750
  H        0.5609280     1.5513020     1.3193640
  H        2.1701080     1.4924500     0.5529100
  H        0.7653060     2.0941260    -0.3453770
  H        1.5377490    -1.9244940    -0.7449540
  H        2.8237910    -0.6585230    -0.3492850
  H       -0.8328165    -0.8122480     1.6147771
units angstrom
no_reorient  #important for SAPT in psi4, default
symmetry c1  #important for SAPT in psi4, default
}

set PROPERTIES_ORIGIN ["COM"]
properties('MP2/aug-cc-pvtz', properties = ['dipole'])
--------------------------------------------------------------------------

    Molecular point group: c1
  Charge       = 0
  Multiplicity = 1
  Basis Set: AUG-CC-PVTZ
    Blend: AUG-CC-PVTZ
  Basis Set: (AUG-CC-PVTZ AUX)
    Blend: AUG-CC-PVTZ-JKFIT

    Orbital Energies [Eh]
    ---------------------

    Doubly Occupied:

       1A    -20.536101     2A    -11.286522     3A    -11.242934
       4A    -11.223882     5A    -11.222193     6A    -11.215021
       7A     -1.417745     8A     -1.100061     9A     -1.007112
      10A     -0.939283    11A     -0.854132    12A     -0.759579
      13A     -0.710105    14A     -0.651984    15A     -0.603196
      16A     -0.593705    17A     -0.567520    18A     -0.550381
      19A     -0.536119    20A     -0.525465    21A     -0.514291
      22A     -0.485139    23A     -0.444950    24A     -0.360030

  @DF-RHF Final Energy:  -270.05701947983812

   => Energetics <=

    Nuclear Repulsion Energy =            246.8955082760867015
    One-Electron Energy =                -855.2101574592886664
    Two-Electron Energy =                 338.2576297033638184
    Total Energy =                       -270.0570194798381181
  Basis Set: (AUG-CC-PVTZ AUX)
    Blend: AUG-CC-PVTZ-RI
    Molecular point group: c1

    Geometry (in Angstrom), charge = 0, multiplicity = 1:

       Center              X                  Y                   Z               Mass
    ------------   -----------------  -----------------  -----------------  -----------------
         O           -1.251092334657    -0.369297737738     1.140456631628    15.994914619570
         C           -0.640199334657    -0.464503737738    -0.155954368372    12.000000000000
         C            0.808084665343    -0.048031737738    -0.083619368372    12.000000000000
         C           -1.479773334657     0.405087262262    -1.073745368372    12.000000000000
         C            1.099631665343     1.348021262262     0.387495631628    12.000000000000
         C            1.773260665343    -0.923562737738    -0.397484368372    12.000000000000
         H           -0.683453334657    -1.505915737738    -0.512305368372     1.007825032230
         H           -1.069219334657     0.404562262262    -2.087154368372     1.007825032230
         H           -2.503236334657     0.024354262262    -1.102545368372     1.007825032230
         H           -1.507636334657     1.428884262262    -0.697536368372     1.007825032230
         H            0.562196665343     1.549958262262     1.320802631628     1.007825032230
         H            2.171376665343     1.491106262262     0.554348631628     1.007825032230
         H            0.766574665343     2.092782262262    -0.343938368372     1.007825032230
         H            1.539017665343    -1.925837737738    -0.743515368372     1.007825032230
         H            2.825059665343    -0.659866737738    -0.347846368372     1.007825032230
         H           -0.831547834657    -0.813591737738     1.616215731628     1.007825032230

  Basis Set: AUG-CC-PVTZ
    Blend: AUG-CC-PVTZ
  Basis Set: (AUG-CC-PVTZ AUX)
    Blend: AUG-CC-PVTZ-JKFIT
	 Reference Energy          =    -270.0570194798381181 [Eh]
	 Singles Energy            =      -0.0000000000000000 [Eh]
	 Same-Spin Energy          =      -0.2732442105902875 [Eh]
	 Opposite-Spin Energy      =      -0.9449433708458342 [Eh]
	 Correlation Energy        =      -1.2181875814361218 [Eh]
	 Total Energy              =    -271.2752070612742159 [Eh]

	 ================> DF-SCS-MP2 Energies <==================
	-----------------------------------------------------------
	 SCS Same-Spin Scale       =       0.3333333333333333 [-]
	 SCS Opposite-Spin Scale   =       1.2000000000000000 [-]
	 SCS Same-Spin Energy      =      -0.0910814035300958 [Eh]
	 SCS Opposite-Spin Energy  =      -1.1339320450150010 [Eh]
	 SCS Correlation Energy    =      -1.2250134485450968 [Eh]
	 SCS Total Energy          =    -271.2820329283832166 [Eh]
	-----------------------------------------------------------

  Dipole Moment: [D]
     X:     1.0891      Y:    -0.3630      Z:    -0.5132     Total:     1.2575

*** Psi4 exiting successfully. Buy a developer a beer!
