                               Psi4 1.3.2 release

  ==> Input File <==

--------------------------------------------------------------------------
#psi4
#
memory 32 gb

molecule  {
0 1
  O       -1.2523610    -0.3679540     1.1390180
  C       -0.6414680    -0.4631600    -0.1573930
  C        0.8043537    -0.0368709    -0.0934784
  C       -1.4703411     0.4137207    -1.0779705
  C        1.0983630     1.3493650     0.3860570
  C        1.7719920    -0.9222190    -0.3989230
  H       -0.6847220    -1.5045720    -0.5137440
  H       -1.0704880     0.4059060    -2.0885930
  H       -2.5045050     0.0256980    -1.1039840
  H       -1.5089050     1.4302280    -0.6989750
  H        0.5609280     1.5513020     1.3193640
  H        2.1701080     1.4924500     0.5529100
  H        0.7653060     2.0941260    -0.3453770
  H        1.5377490    -1.9244940    -0.7449540
  H        2.8237910    -0.6585230    -0.3492850
  H       -0.7244690    -0.9269870     1.7376420
units angstrom
no_reorient  #important for SAPT in psi4, default
symmetry c1  #important for SAPT in psi4, default
}

set PROPERTIES_ORIGIN ["COM"]
properties('MP2/aug-cc-pvtz', properties = ['dipole'])
--------------------------------------------------------------------------

    Molecular point group: c1
  Charge       = 0
  Multiplicity = 1
  Basis Set: AUG-CC-PVTZ
    Blend: AUG-CC-PVTZ
  Basis Set: (AUG-CC-PVTZ AUX)
    Blend: AUG-CC-PVTZ-JKFIT

    Orbital Energies [Eh]
    ---------------------

    Doubly Occupied:

       1A    -20.558513     2A    -11.284385     3A    -11.242362
       4A    -11.223152     5A    -11.221278     6A    -11.214051
       7A     -1.357689     8A     -1.093547     9A     -0.998799
      10A     -0.938324    11A     -0.845910    12A     -0.735199
      13A     -0.692072    14A     -0.649576    15A     -0.596842
      16A     -0.590643    17A     -0.565416    18A     -0.548508
      19A     -0.534442    20A     -0.522696    21A     -0.511284
      22A     -0.477510    23A     -0.441064    24A     -0.357075

  @DF-RHF Final Energy:  -270.10144563682400

   => Energetics <=

    Nuclear Repulsion Energy =            245.5438387909592279
    One-Electron Energy =                -852.8898948740937840
    Two-Electron Energy =                 337.2446104463105030
    Total Energy =                       -270.1014456368239962
  Basis Set: (AUG-CC-PVTZ AUX)
    Blend: AUG-CC-PVTZ-RI
    Molecular point group: c1

    Geometry (in Angstrom), charge = 0, multiplicity = 1:

       Center              X                  Y                   Z               Mass
    ------------   -----------------  -----------------  -----------------  -----------------
         O           -1.253509563334    -0.370339232653     1.140580438835    15.994914619570
         C           -0.642616563334    -0.465545232653    -0.155830561165    12.000000000000
         C            0.803205136666    -0.039256132653    -0.091915961165    12.000000000000
         C           -1.471489663334     0.411335467347    -1.076408061165    12.000000000000
         C            1.097214436666     1.346979767347     0.387619438835    12.000000000000
         C            1.770843436666    -0.924604232653    -0.397360561165    12.000000000000
         H           -0.685870563334    -1.506957232653    -0.512181561165     1.007825032230
         H           -1.071636563334     0.403520767347    -2.087030561165     1.007825032230
         H           -2.505653563334     0.023312767347    -1.102421561165     1.007825032230
         H           -1.510053563334     1.427842767347    -0.697412561165     1.007825032230
         H            0.559779436666     1.548916767347     1.320926438835     1.007825032230
         H            2.168959436666     1.490064767347     0.554472438835     1.007825032230
         H            0.764157436666     2.091740767347    -0.343814561165     1.007825032230
         H            1.536600436666    -1.926879232653    -0.743391561165     1.007825032230
         H            2.822642436666    -0.660908232653    -0.347722561165     1.007825032230
         H           -0.725617563334    -0.929372232653     1.739204438835     1.007825032230

  Basis Set: AUG-CC-PVTZ
    Blend: AUG-CC-PVTZ
  Basis Set: (AUG-CC-PVTZ AUX)
    Blend: AUG-CC-PVTZ-JKFIT
	 Reference Energy          =    -270.1014456368239962 [Eh]
	 Singles Energy            =      -0.0000000000000000 [Eh]
	 Same-Spin Energy          =      -0.2757923629402017 [Eh]
	 Opposite-Spin Energy      =      -0.9508549750223957 [Eh]
	 Correlation Energy        =      -1.2266473379625973 [Eh]
	 Total Energy              =    -271.3280929747866139 [Eh]

	 ================> DF-SCS-MP2 Energies <==================
	-----------------------------------------------------------
	 SCS Same-Spin Scale       =       0.3333333333333333 [-]
	 SCS Opposite-Spin Scale   =       1.2000000000000000 [-]
	 SCS Same-Spin Energy      =      -0.0919307876467339 [Eh]
	 SCS Opposite-Spin Energy  =      -1.1410259700268748 [Eh]
	 SCS Correlation Energy    =      -1.2329567576736087 [Eh]
	 SCS Total Energy          =    -271.3344023944976016 [Eh]
	-----------------------------------------------------------

  Dipole Moment: [D]
     X:     1.1111      Y:    -0.4333      Z:    -0.3615     Total:     1.2462

*** Psi4 exiting successfully. Buy a developer a beer!
