                               Psi4 1.3.2 release

  ==> Input File <==

--------------------------------------------------------------------------
#psi4
#
memory 32 gb

molecule  {
0 1
  O       -1.2523610    -0.3679540     1.1390180
  C       -0.6450667    -0.4511193    -0.1534670
  C        0.8068160    -0.0466880    -0.0850580
  C       -1.4810420     0.4064310    -1.0751840
  C        1.0983630     1.3493650     0.3860570
  C        1.7800592    -0.9140505    -0.3966836
  H       -0.6847220    -1.5045720    -0.5137440
  H       -1.0704880     0.4059060    -2.0885930
  H       -2.5045050     0.0256980    -1.1039840
  H       -1.5089050     1.4302280    -0.6989750
  H        0.5609280     1.5513020     1.3193640
  H        2.1701080     1.4924500     0.5529100
  H        0.7653060     2.0941260    -0.3453770
  H        1.5377490    -1.9244940    -0.7449540
  H        2.8237910    -0.6585230    -0.3492850
  H       -0.7244690    -0.9269870     1.7376420
units angstrom
no_reorient  #important for SAPT in psi4, default
symmetry c1  #important for SAPT in psi4, default
}

set PROPERTIES_ORIGIN ["COM"]
properties('MP2/aug-cc-pvtz', properties = ['dipole'])
--------------------------------------------------------------------------

    Molecular point group: c1
  Charge       = 0
  Multiplicity = 1
  Basis Set: AUG-CC-PVTZ
    Blend: AUG-CC-PVTZ
  Basis Set: (AUG-CC-PVTZ AUX)
    Blend: AUG-CC-PVTZ-JKFIT

    Orbital Energies [Eh]
    ---------------------

    Doubly Occupied:

       1A    -20.558711     2A    -11.285025     3A    -11.241724
       4A    -11.222843     5A    -11.220742     6A    -11.214198
       7A     -1.359839     8A     -1.093412     9A     -1.000360
      10A     -0.937462    11A     -0.846413    12A     -0.735479
      13A     -0.691283    14A     -0.649066    15A     -0.599988
      16A     -0.591933    17A     -0.564706    18A     -0.549011
      19A     -0.533115    20A     -0.522309    21A     -0.509992
      22A     -0.479192    23A     -0.438276    24A     -0.359120

  @DF-RHF Final Energy:  -270.10178339965705

   => Energetics <=

    Nuclear Repulsion Energy =            245.5982247696037177
    One-Electron Energy =                -852.9916195188977781
    Two-Electron Energy =                 337.2916113496370372
    Total Energy =                       -270.1017833996570516
  Basis Set: (AUG-CC-PVTZ AUX)
    Blend: AUG-CC-PVTZ-RI
    Molecular point group: c1

    Geometry (in Angstrom), charge = 0, multiplicity = 1:

       Center              X                  Y                   Z               Mass
    ------------   -----------------  -----------------  -----------------  -----------------
         O           -1.252983950038    -0.370771757704     1.138158457488    15.994914619570
         C           -0.645689650038    -0.453937057704    -0.154326542512    12.000000000000
         C            0.806193049962    -0.049505757704    -0.085917542512    12.000000000000
         C           -1.481664950038     0.403613242296    -1.076043542512    12.000000000000
         C            1.097740049962     1.346547242296     0.385197457488    12.000000000000
         C            1.779436249962    -0.916868257704    -0.397543142512    12.000000000000
         H           -0.685344950038    -1.507389757704    -0.514603542512     1.007825032230
         H           -1.071110950038     0.403088242296    -2.089452542512     1.007825032230
         H           -2.505127950038     0.022880242296    -1.104843542512     1.007825032230
         H           -1.509527950038     1.427410242296    -0.699834542512     1.007825032230
         H            0.560305049962     1.548484242296     1.318504457488     1.007825032230
         H            2.169485049962     1.489632242296     0.552050457488     1.007825032230
         H            0.764683049962     2.091308242296    -0.346236542512     1.007825032230
         H            1.537126049962    -1.927311757704    -0.745813542512     1.007825032230
         H            2.823168049962    -0.661340757704    -0.350144542512     1.007825032230
         H           -0.725091950038    -0.929804757704     1.736782457488     1.007825032230

  Basis Set: AUG-CC-PVTZ
    Blend: AUG-CC-PVTZ
  Basis Set: (AUG-CC-PVTZ AUX)
    Blend: AUG-CC-PVTZ-JKFIT
	 Reference Energy          =    -270.1017833996570516 [Eh]
	 Singles Energy            =      -0.0000000000000000 [Eh]
	 Same-Spin Energy          =      -0.2756876356535711 [Eh]
	 Opposite-Spin Energy      =      -0.9505777580186571 [Eh]
	 Correlation Energy        =      -1.2262653936722283 [Eh]
	 Total Energy              =    -271.3280487933292875 [Eh]

	 ================> DF-SCS-MP2 Energies <==================
	-----------------------------------------------------------
	 SCS Same-Spin Scale       =       0.3333333333333333 [-]
	 SCS Opposite-Spin Scale   =       1.2000000000000000 [-]
	 SCS Same-Spin Energy      =      -0.0918958785511904 [Eh]
	 SCS Opposite-Spin Energy  =      -1.1406933096223884 [Eh]
	 SCS Correlation Energy    =      -1.2325891881735787 [Eh]
	 SCS Total Energy          =    -271.3343725878306145 [Eh]
	-----------------------------------------------------------

  Dipole Moment: [D]
     X:     1.1058      Y:    -0.4253      Z:    -0.3639     Total:     1.2394

*** Psi4 exiting successfully. Buy a developer a beer!
