                               Psi4 1.3.2 release

  ==> Input File <==

--------------------------------------------------------------------------
#psi4
#
memory 32 gb

molecule  {
0 1
  O       -1.2523610    -0.3679540     1.1390180
  C       -0.6377770    -0.4750376    -0.1617105
  C        0.8068160    -0.0466880    -0.0850580
  C       -1.4810420     0.4064310    -1.0751840
  C        1.1111947     1.3471060     0.3846281
  C        1.7719920    -0.9222190    -0.3989230
  H       -0.6847220    -1.5045720    -0.5137440
  H       -1.0704880     0.4059060    -2.0885930
  H       -2.5045050     0.0256980    -1.1039840
  H       -1.5089050     1.4302280    -0.6989750
  H        0.5609280     1.5513020     1.3193640
  H        2.1701080     1.4924500     0.5529100
  H        0.7653060     2.0941260    -0.3453770
  H        1.5377490    -1.9244940    -0.7449540
  H        2.8237910    -0.6585230    -0.3492850
  H       -0.7244690    -0.9269870     1.7376420
units angstrom
no_reorient  #important for SAPT in psi4, default
symmetry c1  #important for SAPT in psi4, default
}

set PROPERTIES_ORIGIN ["COM"]
properties('MP2/aug-cc-pvtz', properties = ['dipole'])
--------------------------------------------------------------------------

    Molecular point group: c1
  Charge       = 0
  Multiplicity = 1
  Basis Set: AUG-CC-PVTZ
    Blend: AUG-CC-PVTZ
  Basis Set: (AUG-CC-PVTZ AUX)
    Blend: AUG-CC-PVTZ-JKFIT

    Orbital Energies [Eh]
    ---------------------

    Doubly Occupied:

       1A    -20.557563     2A    -11.284140     3A    -11.241943
       4A    -11.222282     5A    -11.221656     6A    -11.214400
       7A     -1.355209     8A     -1.093483     9A     -0.998069
      10A     -0.938195    11A     -0.846982    12A     -0.734612
      13A     -0.691918    14A     -0.649876    15A     -0.597364
      16A     -0.588900    17A     -0.562185    18A     -0.551938
      19A     -0.529818    20A     -0.523240    21A     -0.510393
      22A     -0.478689    23A     -0.443069    24A     -0.358434

  @DF-RHF Final Energy:  -270.10174026680318

   => Energetics <=

    Nuclear Repulsion Energy =            245.3459430767281617
    One-Electron Energy =                -852.5066529198982153
    Two-Electron Energy =                 337.0589695763668487
    Total Energy =                       -270.1017402668031764
  Basis Set: (AUG-CC-PVTZ AUX)
    Blend: AUG-CC-PVTZ-RI
    Molecular point group: c1

    Geometry (in Angstrom), charge = 0, multiplicity = 1:

       Center              X                  Y                   Z               Mass
    ------------   -----------------  -----------------  -----------------  -----------------
         O           -1.254664501695    -0.365983394219     1.139819156268    15.994914619570
         C           -0.640080501695    -0.473066994219    -0.160909343732    12.000000000000
         C            0.804512498305    -0.044717394219    -0.084256843732    12.000000000000
         C           -1.483345501695     0.408401605781    -1.074382843732    12.000000000000
         C            1.108891198305     1.349076605781     0.385429256268    12.000000000000
         C            1.769688498305    -0.920248394219    -0.398121843732    12.000000000000
         H           -0.687025501695    -1.502601394219    -0.512942843732     1.007825032230
         H           -1.072791501695     0.407876605781    -2.087791843732     1.007825032230
         H           -2.506808501695     0.027668605781    -1.103182843732     1.007825032230
         H           -1.511208501695     1.432198605781    -0.698173843732     1.007825032230
         H            0.558624498305     1.553272605781     1.320165156268     1.007825032230
         H            2.167804498305     1.494420605781     0.553711156268     1.007825032230
         H            0.763002498305     2.096096605781    -0.344575843732     1.007825032230
         H            1.535445498305    -1.922523394219    -0.744152843732     1.007825032230
         H            2.821487498305    -0.656552394219    -0.348483843732     1.007825032230
         H           -0.726772501695    -0.925016394219     1.738443156268     1.007825032230

  Basis Set: AUG-CC-PVTZ
    Blend: AUG-CC-PVTZ
  Basis Set: (AUG-CC-PVTZ AUX)
    Blend: AUG-CC-PVTZ-JKFIT
	 Reference Energy          =    -270.1017402668031764 [Eh]
	 Singles Energy            =      -0.0000000000000000 [Eh]
	 Same-Spin Energy          =      -0.2756273203624195 [Eh]
	 Opposite-Spin Energy      =      -0.9506548122699993 [Eh]
	 Correlation Energy        =      -1.2262821326324187 [Eh]
	 Total Energy              =    -271.3280223994356106 [Eh]

	 ================> DF-SCS-MP2 Energies <==================
	-----------------------------------------------------------
	 SCS Same-Spin Scale       =       0.3333333333333333 [-]
	 SCS Opposite-Spin Scale   =       1.2000000000000000 [-]
	 SCS Same-Spin Energy      =      -0.0918757734541398 [Eh]
	 SCS Opposite-Spin Energy  =      -1.1407857747239991 [Eh]
	 SCS Correlation Energy    =      -1.2326615481781389 [Eh]
	 SCS Total Energy          =    -271.3344018149813337 [Eh]
	-----------------------------------------------------------

  Dipole Moment: [D]
     X:     1.1231      Y:    -0.4512      Z:    -0.3891     Total:     1.2713

*** Psi4 exiting successfully. Buy a developer a beer!
