                               Psi4 1.3.2 release

  ==> Input File <==

--------------------------------------------------------------------------
#psi4
#
memory 32 gb

molecule  {
0 1
  O       -1.2523610    -0.3679540     1.1390180
  C       -0.6339759    -0.4868826    -0.1660221
  C        0.8068160    -0.0466880    -0.0850580
  C       -1.4810420     0.4064310    -1.0751840
  C        1.1240031     1.3447408     0.3831634
  C        1.7719920    -0.9222190    -0.3989230
  H       -0.6847220    -1.5045720    -0.5137440
  H       -1.0704880     0.4059060    -2.0885930
  H       -2.5045050     0.0256980    -1.1039840
  H       -1.5089050     1.4302280    -0.6989750
  H        0.5609280     1.5513020     1.3193640
  H        2.1701080     1.4924500     0.5529100
  H        0.7653060     2.0941260    -0.3453770
  H        1.5377490    -1.9244940    -0.7449540
  H        2.8237910    -0.6585230    -0.3492850
  H       -0.7244690    -0.9269870     1.7376420
units angstrom
no_reorient  #important for SAPT in psi4, default
symmetry c1  #important for SAPT in psi4, default
}

set PROPERTIES_ORIGIN ["COM"]
properties('MP2/aug-cc-pvtz', properties = ['dipole'])
--------------------------------------------------------------------------

    Molecular point group: c1
  Charge       = 0
  Multiplicity = 1
  Basis Set: AUG-CC-PVTZ
    Blend: AUG-CC-PVTZ
  Basis Set: (AUG-CC-PVTZ AUX)
    Blend: AUG-CC-PVTZ-JKFIT

    Orbital Energies [Eh]
    ---------------------

    Doubly Occupied:

       1A    -20.557109     2A    -11.284129     3A    -11.242101
       4A    -11.222047     5A    -11.221871     6A    -11.214666
       7A     -1.352940     8A     -1.093612     9A     -0.997303
      10A     -0.938099    11A     -0.847688    12A     -0.734804
      13A     -0.691990    14A     -0.649880    15A     -0.597032
      16A     -0.587164    17A     -0.560063    18A     -0.555163
      19A     -0.528306    20A     -0.522892    21A     -0.509684
      22A     -0.478832    23A     -0.445457    24A     -0.357830

  @DF-RHF Final Energy:  -270.10048717163090

   => Energetics <=

    Nuclear Repulsion Energy =            245.1847055785160876
    One-Electron Energy =                -852.1890614767139596
    Two-Electron Energy =                 336.9038687265669978
    Total Energy =                       -270.1004871716309026
  Basis Set: (AUG-CC-PVTZ AUX)
    Blend: AUG-CC-PVTZ-RI
    Molecular point group: c1

    Geometry (in Angstrom), charge = 0, multiplicity = 1:

       Center              X                  Y                   Z               Mass
    ------------   -----------------  -----------------  -----------------  -----------------
         O           -1.256980136308    -0.364002261074     1.140624466495    15.994914619570
         C           -0.638595036308    -0.482930861074    -0.164415633505    12.000000000000
         C            0.802196863692    -0.042736261074    -0.083451533505    12.000000000000
         C           -1.485661136308     0.410382738926    -1.073577533505    12.000000000000
         C            1.119383963692     1.348692538926     0.384769866495    12.000000000000
         C            1.767372863692    -0.918267261074    -0.397316533505    12.000000000000
         H           -0.689341136308    -1.500620261074    -0.512137533505     1.007825032230
         H           -1.075107136308     0.409857738926    -2.086986533505     1.007825032230
         H           -2.509124136308     0.029649738926    -1.102377533505     1.007825032230
         H           -1.513524136308     1.434179738926    -0.697368533505     1.007825032230
         H            0.556308863692     1.555253738926     1.320970466495     1.007825032230
         H            2.165488863692     1.496401738926     0.554516466495     1.007825032230
         H            0.760686863692     2.098077738926    -0.343770533505     1.007825032230
         H            1.533129863692    -1.920542261074    -0.743347533505     1.007825032230
         H            2.819171863692    -0.654571261074    -0.347678533505     1.007825032230
         H           -0.729088136308    -0.923035261074     1.739248466495     1.007825032230

  Basis Set: AUG-CC-PVTZ
    Blend: AUG-CC-PVTZ
  Basis Set: (AUG-CC-PVTZ AUX)
    Blend: AUG-CC-PVTZ-JKFIT
	 Reference Energy          =    -270.1004871716309026 [Eh]
	 Singles Energy            =      -0.0000000000000000 [Eh]
	 Same-Spin Energy          =      -0.2756181195628838 [Eh]
	 Opposite-Spin Energy      =      -0.9507502568830121 [Eh]
	 Correlation Energy        =      -1.2263683764458959 [Eh]
	 Total Energy              =    -271.3268555480768214 [Eh]

	 ================> DF-SCS-MP2 Energies <==================
	-----------------------------------------------------------
	 SCS Same-Spin Scale       =       0.3333333333333333 [-]
	 SCS Opposite-Spin Scale   =       1.2000000000000000 [-]
	 SCS Same-Spin Energy      =      -0.0918727065209613 [Eh]
	 SCS Opposite-Spin Energy  =      -1.1409003082596145 [Eh]
	 SCS Correlation Energy    =      -1.2327730147805758 [Eh]
	 SCS Total Energy          =    -271.3332601864114508 [Eh]
	-----------------------------------------------------------

  Dipole Moment: [D]
     X:     1.1317      Y:    -0.4618      Z:    -0.4013     Total:     1.2865

*** Psi4 exiting successfully. Buy a developer a beer!
