                               Psi4 1.3.2 release

  ==> Input File <==

--------------------------------------------------------------------------
#psi4
#
memory 32 gb

molecule  {
0 1
  O       -1.2523610    -0.3679540     1.1390180
  C       -0.6414680    -0.4631600    -0.1573930
  C        0.8068160    -0.0466880    -0.0850580
  C       -1.4810420     0.4064310    -1.0751840
  C        1.0208608     1.3615186     0.3914417
  C        1.7220038    -0.9690758    -0.4140908
  H       -0.6847220    -1.5045720    -0.5137440
  H       -1.0704880     0.4059060    -2.0885930
  H       -2.5045050     0.0256980    -1.1039840
  H       -1.5089050     1.4302280    -0.6989750
  H        0.5609280     1.5513020     1.3193640
  H        2.1701080     1.4924500     0.5529100
  H        0.7653060     2.0941260    -0.3453770
  H        1.5377490    -1.9244940    -0.7449540
  H        2.8237910    -0.6585230    -0.3492850
  H       -0.7244690    -0.9269870     1.7376420
units angstrom
no_reorient  #important for SAPT in psi4, default
symmetry c1  #important for SAPT in psi4, default
}

set PROPERTIES_ORIGIN ["COM"]
properties('MP2/aug-cc-pvtz', properties = ['dipole'])
--------------------------------------------------------------------------

    Molecular point group: c1
  Charge       = 0
  Multiplicity = 1
  Basis Set: AUG-CC-PVTZ
    Blend: AUG-CC-PVTZ
  Basis Set: (AUG-CC-PVTZ AUX)
    Blend: AUG-CC-PVTZ-JKFIT

    Orbital Energies [Eh]
    ---------------------

    Doubly Occupied:

       1A    -20.556919     2A    -11.280720     3A    -11.243442
       4A    -11.225545     5A    -11.224757     6A    -11.213082
       7A     -1.356595     8A     -1.094388     9A     -0.996138
      10A     -0.945800    11A     -0.843265    12A     -0.736942
      13A     -0.691988    14A     -0.656214    15A     -0.600452
      16A     -0.585772    17A     -0.572706    18A     -0.545980
      19A     -0.532868    20A     -0.518422    21A     -0.513149
      22A     -0.472109    23A     -0.433712    24A     -0.362450

  @DF-RHF Final Energy:  -270.08895179188755

   => Energetics <=

    Nuclear Repulsion Energy =            245.9962889582861862
    One-Electron Energy =                -853.7636608083151941
    Two-Electron Energy =                 337.6784200581414552
    Total Energy =                       -270.0889517918875526
  Basis Set: (AUG-CC-PVTZ AUX)
    Blend: AUG-CC-PVTZ-RI
    Molecular point group: c1

    Geometry (in Angstrom), charge = 0, multiplicity = 1:

       Center              X                  Y                   Z               Mass
    ------------   -----------------  -----------------  -----------------  -----------------
         O           -1.234586731798    -0.363116075466     1.140381937943    15.994914619570
         C           -0.623693731798    -0.458322075466    -0.156029062057    12.000000000000
         C            0.824590268202    -0.041850075466    -0.083694062057    12.000000000000
         C           -1.463267731798     0.411268924534    -1.073820062057    12.000000000000
         C            1.038635068202     1.366356524534     0.392805637943    12.000000000000
         C            1.739778068202    -0.964237875466    -0.412726862057    12.000000000000
         H           -0.666947731798    -1.499734075466    -0.512380062057     1.007825032230
         H           -1.052713731798     0.410743924534    -2.087229062057     1.007825032230
         H           -2.486730731798     0.030535924534    -1.102620062057     1.007825032230
         H           -1.491130731798     1.435065924534    -0.697611062057     1.007825032230
         H            0.578702268202     1.556139924534     1.320727937943     1.007825032230
         H            2.187882268202     1.497287924534     0.554273937943     1.007825032230
         H            0.783080268202     2.098963924534    -0.344013062057     1.007825032230
         H            1.555523268202    -1.919656075466    -0.743590062057     1.007825032230
         H            2.841565268202    -0.653685075466    -0.347921062057     1.007825032230
         H           -0.706694731798    -0.922149075466     1.739005937943     1.007825032230

  Basis Set: AUG-CC-PVTZ
    Blend: AUG-CC-PVTZ
  Basis Set: (AUG-CC-PVTZ AUX)
    Blend: AUG-CC-PVTZ-JKFIT
	 Reference Energy          =    -270.0889517918875526 [Eh]
	 Singles Energy            =      -0.0000000000000000 [Eh]
	 Same-Spin Energy          =      -0.2759961542953804 [Eh]
	 Opposite-Spin Energy      =      -0.9515284350262787 [Eh]
	 Correlation Energy        =      -1.2275245893216591 [Eh]
	 Total Energy              =    -271.3164763812092133 [Eh]

	 ================> DF-SCS-MP2 Energies <==================
	-----------------------------------------------------------
	 SCS Same-Spin Scale       =       0.3333333333333333 [-]
	 SCS Opposite-Spin Scale   =       1.2000000000000000 [-]
	 SCS Same-Spin Energy      =      -0.0919987180984601 [Eh]
	 SCS Opposite-Spin Energy  =      -1.1418341220315344 [Eh]
	 SCS Correlation Energy    =      -1.2338328401299945 [Eh]
	 SCS Total Energy          =    -271.3227846320175445 [Eh]
	-----------------------------------------------------------

  Dipole Moment: [D]
     X:     1.0860      Y:    -0.4519      Z:    -0.3837     Total:     1.2373

*** Psi4 exiting successfully. Buy a developer a beer!
