                               Psi4 1.3.2 release

  ==> Input File <==

--------------------------------------------------------------------------
#psi4
#
memory 32 gb

molecule  {
0 1
  O       -1.2523610    -0.3679540     1.1390180
  C       -0.6414680    -0.4631600    -0.1573930
  C        0.8231938    -0.0308598    -0.0797190
  C       -1.4810420     0.4064310    -1.0751840
  C        1.0983630     1.3493650     0.3860570
  C        1.7719920    -0.9222190    -0.3989230
  H       -0.6847220    -1.5045720    -0.5137440
  H       -1.0704880     0.4059060    -2.0885930
  H       -2.5045050     0.0256980    -1.1039840
  H       -1.5089050     1.4302280    -0.6989750
  H        0.5609280     1.5513020     1.3193640
  H        2.1701080     1.4924500     0.5529100
  H        0.7653060     2.0941260    -0.3453770
  H        1.5562891    -1.9281462    -0.7464071
  H        2.8237910    -0.6585230    -0.3492850
  H       -0.7244690    -0.9269870     1.7376420
units angstrom
no_reorient  #important for SAPT in psi4, default
symmetry c1  #important for SAPT in psi4, default
}

set PROPERTIES_ORIGIN ["COM"]
properties('MP2/aug-cc-pvtz', properties = ['dipole'])
--------------------------------------------------------------------------

    Molecular point group: c1
  Charge       = 0
  Multiplicity = 1
  Basis Set: AUG-CC-PVTZ
    Blend: AUG-CC-PVTZ
  Basis Set: (AUG-CC-PVTZ AUX)
    Blend: AUG-CC-PVTZ-JKFIT

    Orbital Energies [Eh]
    ---------------------

    Doubly Occupied:

       1A    -20.557684     2A    -11.284892     3A    -11.242107
       4A    -11.222325     5A    -11.220983     6A    -11.213790
       7A     -1.356818     8A     -1.093352     9A     -0.999091
      10A     -0.940132    11A     -0.843154    12A     -0.734630
      13A     -0.691239    14A     -0.650883    15A     -0.595855
      16A     -0.590673    17A     -0.565278    18A     -0.550724
      19A     -0.531239    20A     -0.524877    21A     -0.514019
      22A     -0.475595    23A     -0.438003    24A     -0.358583

  @DF-RHF Final Energy:  -270.10148984133991

   => Energetics <=

    Nuclear Repulsion Energy =            245.3812527009853568
    One-Electron Energy =                -852.5736342684371039
    Two-Electron Energy =                 337.0908917261118631
    Total Energy =                       -270.1014898413399123
  Basis Set: (AUG-CC-PVTZ AUX)
    Blend: AUG-CC-PVTZ-RI
    Molecular point group: c1

    Geometry (in Angstrom), charge = 0, multiplicity = 1:

       Center              X                  Y                   Z               Mass
    ------------   -----------------  -----------------  -----------------  -----------------
         O           -1.254861385089    -0.370118211635     1.138290685350    15.994914619570
         C           -0.643968385089    -0.465324211635    -0.158120314650    12.000000000000
         C            0.820693414911    -0.033024011635    -0.080446314650    12.000000000000
         C           -1.483542385089     0.404266788365    -1.075911314650    12.000000000000
         C            1.095862614911     1.347200788365     0.385329685350    12.000000000000
         C            1.769491614911    -0.924383211635    -0.399650314650    12.000000000000
         H           -0.687222385089    -1.506736211635    -0.514471314650     1.007825032230
         H           -1.072988385089     0.403741788365    -2.089320314650     1.007825032230
         H           -2.507005385089     0.023533788365    -1.104711314650     1.007825032230
         H           -1.511405385089     1.428063788365    -0.699702314650     1.007825032230
         H            0.558427614911     1.549137788365     1.318636685350     1.007825032230
         H            2.167607614911     1.490285788365     0.552182685350     1.007825032230
         H            0.762805614911     2.091961788365    -0.346104314650     1.007825032230
         H            1.553788714911    -1.930310411635    -0.747134414650     1.007825032230
         H            2.821290614911    -0.660687211635    -0.350012314650     1.007825032230
         H           -0.726969385089    -0.929151211635     1.736914685350     1.007825032230

  Basis Set: AUG-CC-PVTZ
    Blend: AUG-CC-PVTZ
  Basis Set: (AUG-CC-PVTZ AUX)
    Blend: AUG-CC-PVTZ-JKFIT
	 Reference Energy          =    -270.1014898413399123 [Eh]
	 Singles Energy            =      -0.0000000000000000 [Eh]
	 Same-Spin Energy          =      -0.2756622831241963 [Eh]
	 Opposite-Spin Energy      =      -0.9505856157818167 [Eh]
	 Correlation Energy        =      -1.2262478989060130 [Eh]
	 Total Energy              =    -271.3277377402459365 [Eh]

	 ================> DF-SCS-MP2 Energies <==================
	-----------------------------------------------------------
	 SCS Same-Spin Scale       =       0.3333333333333333 [-]
	 SCS Opposite-Spin Scale   =       1.2000000000000000 [-]
	 SCS Same-Spin Energy      =      -0.0918874277080654 [Eh]
	 SCS Opposite-Spin Energy  =      -1.1407027389381799 [Eh]
	 SCS Correlation Energy    =      -1.2325901666462453 [Eh]
	 SCS Total Energy          =    -271.3340800079861310 [Eh]
	-----------------------------------------------------------

  Dipole Moment: [D]
     X:     1.1128      Y:    -0.4278      Z:    -0.3705     Total:     1.2484

*** Psi4 exiting successfully. Buy a developer a beer!
