                               Psi4 1.3.2 release

  ==> Input File <==

--------------------------------------------------------------------------
#psi4
#
memory 32 gb

molecule  {
0 1
  O       -1.2523610    -0.3679540     1.1390180
  C       -0.6414680    -0.4631600    -0.1573930
  C        0.8031228    -0.0347956    -0.0807833
  C       -1.4810420     0.4064310    -1.0751840
  C        1.0983630     1.3493650     0.3860570
  C        1.7719920    -0.9222190    -0.3989230
  H       -0.6943153    -1.5043199    -0.5131868
  H       -1.0704880     0.4059060    -2.0885930
  H       -2.5045050     0.0256980    -1.1039840
  H       -1.5089050     1.4302280    -0.6989750
  H        0.5609280     1.5513020     1.3193640
  H        2.1701080     1.4924500     0.5529100
  H        0.7653060     2.0941260    -0.3453770
  H        1.5377490    -1.9244940    -0.7449540
  H        2.8237910    -0.6585230    -0.3492850
  H       -0.7244690    -0.9269870     1.7376420
units angstrom
no_reorient  #important for SAPT in psi4, default
symmetry c1  #important for SAPT in psi4, default
}

set PROPERTIES_ORIGIN ["COM"]
properties('MP2/aug-cc-pvtz', properties = ['dipole'])
--------------------------------------------------------------------------

    Molecular point group: c1
  Charge       = 0
  Multiplicity = 1
  Basis Set: AUG-CC-PVTZ
    Blend: AUG-CC-PVTZ
  Basis Set: (AUG-CC-PVTZ AUX)
    Blend: AUG-CC-PVTZ-JKFIT

    Orbital Energies [Eh]
    ---------------------

    Doubly Occupied:

       1A    -20.557746     2A    -11.284300     3A    -11.243211
       4A    -11.223925     5A    -11.221282     6A    -11.214052
       7A     -1.357463     8A     -1.093230     9A     -0.998938
      10A     -0.938374    11A     -0.845821    12A     -0.735378
      13A     -0.691601    14A     -0.650102    15A     -0.596324
      16A     -0.591252    17A     -0.564986    18A     -0.550686
      19A     -0.531488    20A     -0.523342    21A     -0.512519
      22A     -0.476818    23A     -0.441879    24A     -0.355832

  @DF-RHF Final Energy:  -270.10128839401347

   => Energetics <=

    Nuclear Repulsion Energy =            245.5166983192092403
    One-Electron Energy =                -852.8348761654914370
    Two-Electron Energy =                 337.2168894522687310
    Total Energy =                       -270.1012883940134657
  Basis Set: (AUG-CC-PVTZ AUX)
    Blend: AUG-CC-PVTZ-RI
    Molecular point group: c1

    Geometry (in Angstrom), charge = 0, multiplicity = 1:

       Center              X                  Y                   Z               Mass
    ------------   -----------------  -----------------  -----------------  -----------------
         O           -1.251733748910    -0.369615212253     1.138415527620    15.994914619570
         C           -0.640840748910    -0.464821212253    -0.157995472380    12.000000000000
         C            0.803750051090    -0.036456812253    -0.081385772380    12.000000000000
         C           -1.480414748910     0.404769787747    -1.075786472380    12.000000000000
         C            1.098990251090     1.347703787747     0.385454527620    12.000000000000
         C            1.772619251090    -0.923880212253    -0.399525472380    12.000000000000
         H           -0.693688048910    -1.505981112253    -0.513789272380     1.007825032230
         H           -1.069860748910     0.404244787747    -2.089195472380     1.007825032230
         H           -2.503877748910     0.024036787747    -1.104586472380     1.007825032230
         H           -1.508277748910     1.428566787747    -0.699577472380     1.007825032230
         H            0.561555251090     1.549640787747     1.318761527620     1.007825032230
         H            2.170735251090     1.490788787747     0.552307527620     1.007825032230
         H            0.765933251090     2.092464787747    -0.345979472380     1.007825032230
         H            1.538376251090    -1.926155212253    -0.745556472380     1.007825032230
         H            2.824418251090    -0.660184212253    -0.349887472380     1.007825032230
         H           -0.723841748910    -0.928648212253     1.737039527620     1.007825032230

  Basis Set: AUG-CC-PVTZ
    Blend: AUG-CC-PVTZ
  Basis Set: (AUG-CC-PVTZ AUX)
    Blend: AUG-CC-PVTZ-JKFIT
	 Reference Energy          =    -270.1012883940134657 [Eh]
	 Singles Energy            =      -0.0000000000000000 [Eh]
	 Same-Spin Energy          =      -0.2758460359501753 [Eh]
	 Opposite-Spin Energy      =      -0.9509449359808002 [Eh]
	 Correlation Energy        =      -1.2267909719309755 [Eh]
	 Total Energy              =    -271.3280793659444612 [Eh]

	 ================> DF-SCS-MP2 Energies <==================
	-----------------------------------------------------------
	 SCS Same-Spin Scale       =       0.3333333333333333 [-]
	 SCS Opposite-Spin Scale   =       1.2000000000000000 [-]
	 SCS Same-Spin Energy      =      -0.0919486786500584 [Eh]
	 SCS Opposite-Spin Energy  =      -1.1411339231769602 [Eh]
	 SCS Correlation Energy    =      -1.2330826018270187 [Eh]
	 SCS Total Energy          =    -271.3343709958404588 [Eh]
	-----------------------------------------------------------

  Dipole Moment: [D]
     X:     1.1088      Y:    -0.4263      Z:    -0.3748     Total:     1.2456

*** Psi4 exiting successfully. Buy a developer a beer!
