                               Psi4 1.4a3.dev225

  ==> Input File <==

--------------------------------------------------------------------------
#psi4
#
memory 32 gb

molecule  {
0 1
  O       -1.2433940    -0.3366800     1.2074370
  C       -0.6640150    -0.4819890    -0.1009900
  C        0.7919130    -0.0810760    -0.0782340
  C       -1.5159190     0.3706220    -1.0242050
  C        1.1030690     1.3392670     0.3065330
  C        1.7446070    -0.9832150    -0.3605780
  H       -0.7308000    -1.5333880    -0.4224710
  H       -1.1307760     0.3301940    -2.0469120
  H       -2.5455460     0.0047250    -1.0155750
  H       -1.5200810     1.4081240    -0.6829090
  H        0.5415810     1.6180770     1.2025330
  H        2.1707320     1.4680310     0.5024970
  H        0.8184500     2.0371770    -0.4879450
  H        1.4952160    -2.0048880    -0.6345440
  H        2.8007100    -0.7292190    -0.3378150
  H       -0.7212178    -0.8757431     1.7961422
units angstrom
no_reorient  #important for SAPT in psi4, default
symmetry c1  #important for SAPT in psi4, default
}

set PROPERTIES_ORIGIN ["COM"]
properties('MP2/aug-cc-pvtz', properties = ['dipole'])
--------------------------------------------------------------------------

    Molecular point group: c1
  Charge       = 0
  Multiplicity = 1
  Basis Set: AUG-CC-PVTZ
    Blend: AUG-CC-PVTZ
  Basis Set: (AUG-CC-PVTZ AUX)
    Blend: AUG-CC-PVTZ-JKFIT

    Orbital Energies [Eh]
    ---------------------

    Doubly Occupied:

       1A    -20.556118     2A    -11.284844     3A    -11.242703
       4A    -11.223595     5A    -11.221080     6A    -11.214488
       7A     -1.361282     8A     -1.093329     9A     -0.999229
      10A     -0.938506    11A     -0.846668    12A     -0.736147
      13A     -0.694000    14A     -0.649750    15A     -0.598189
      16A     -0.590956    17A     -0.564582    18A     -0.548739
      19A     -0.531390    20A     -0.523825    21A     -0.511276
      22A     -0.479422    23A     -0.440716    24A     -0.359070

  @DF-RHF Final Energy:  -270.10294371516289

   => Energetics <=

    Nuclear Repulsion Energy =            245.4489170529351441
    One-Electron Energy =                -852.6839135736674962
    Two-Electron Energy =                 337.1320528055694581
    Total Energy =                       -270.1029437151628940
  Basis Set: (AUG-CC-PVTZ AUX)
    Blend: AUG-CC-PVTZ-RI
    Molecular point group: c1

    Geometry (in Angstrom), charge = 0, multiplicity = 1:

       Center              X                  Y                   Z               Mass
    ------------   -----------------  -----------------  -----------------  -----------------
         O           -1.229630910393    -0.317100300319     1.183277076396    15.994914619570
         C           -0.650251910393    -0.462409300319    -0.125149923604    12.000000000000
         C            0.805676089607    -0.061496300319    -0.102393923604    12.000000000000
         C           -1.502155910393     0.390201699681    -1.048364923604    12.000000000000
         C            1.116832089607     1.358846699681     0.282373076396    12.000000000000
         C            1.758370089607    -0.963635300319    -0.384737923604    12.000000000000
         H           -0.717036910393    -1.513808300319    -0.446630923604     1.007825032230
         H           -1.117012910393     0.349773699681    -2.071071923604     1.007825032230
         H           -2.531782910393     0.024304699681    -1.039734923604     1.007825032230
         H           -1.506317910393     1.427703699681    -0.707068923604     1.007825032230
         H            0.555344089607     1.637656699681     1.178373076396     1.007825032230
         H            2.184495089607     1.487610699681     0.478337076396     1.007825032230
         H            0.832213089607     2.056756699681    -0.512104923604     1.007825032230
         H            1.508979089607    -1.985308300319    -0.658703923604     1.007825032230
         H            2.814473089607    -0.709639300319    -0.361974923604     1.007825032230
         H           -0.707454710393    -0.856163400319     1.771982276396     1.007825032230

  Basis Set: AUG-CC-PVTZ
    Blend: AUG-CC-PVTZ
  Basis Set: (AUG-CC-PVTZ AUX)
    Blend: AUG-CC-PVTZ-JKFIT
	 Reference Energy          =    -270.1029437151628940 [Eh]
	 Singles Energy            =      -0.0000000000000000 [Eh]
	 Same-Spin Energy          =      -0.2753938749282485 [Eh]
	 Opposite-Spin Energy      =      -0.9500780011639461 [Eh]
	 Correlation Energy        =      -1.2254718760921945 [Eh]
	 Total Energy              =    -271.3284155912550659 [Eh]

	 ================> DF-SCS-MP2 Energies <==================
	-----------------------------------------------------------
	 SCS Same-Spin Scale       =       0.3333333333333333 [-]
	 SCS Opposite-Spin Scale   =       1.2000000000000000 [-]
	 SCS Same-Spin Energy      =      -0.0917979583094162 [Eh]
	 SCS Opposite-Spin Energy  =      -1.1400936013967353 [Eh]
	 SCS Correlation Energy    =      -1.2318915597061515 [Eh]
	 SCS Total Energy          =    -271.3348352748690218 [Eh]
	-----------------------------------------------------------

  Dipole Moment: [D]
     X:     1.1003      Y:    -0.4657      Z:    -0.4086     Total:     1.2627

*** Psi4 exiting successfully. Buy a developer a beer!
