                               Psi4 1.3.2 release

  ==> Input File <==

--------------------------------------------------------------------------
#psi4
#
memory 32 gb

molecule  {
0 1
  O       -1.2523610    -0.3679540     1.1390180
  C       -0.5564027    -0.4764172    -0.3379149
  C        0.8068160    -0.0466880    -0.0850580
  C       -1.4810420     0.4064310    -1.0751840
  C        1.0983630     1.3493650     0.3860570
  C        1.7719920    -0.9222190    -0.3989230
  H       -0.6847220    -1.5045720    -0.5137440
  H       -1.0704880     0.4059060    -2.0885930
  H       -2.5045050     0.0256980    -1.1039840
  H       -1.5089050     1.4302280    -0.6989750
  H        0.5609280     1.5513020     1.3193640
  H        2.1701080     1.4924500     0.5529100
  H        0.7653060     2.0941260    -0.3453770
  H        1.5377490    -1.9244940    -0.7449540
  H        2.8237910    -0.6585230    -0.3492850
  H       -0.7244690    -0.9269870     1.7376420
units angstrom
no_reorient  #important for SAPT in psi4, default
symmetry c1  #important for SAPT in psi4, default
}

set PROPERTIES_ORIGIN ["COM"]
properties('MP2/aug-cc-pvtz', properties = ['dipole'])
--------------------------------------------------------------------------

    Molecular point group: c1
  Charge       = 0
  Multiplicity = 1
  Basis Set: AUG-CC-PVTZ
    Blend: AUG-CC-PVTZ
  Basis Set: (AUG-CC-PVTZ AUX)
    Blend: AUG-CC-PVTZ-JKFIT

    Orbital Energies [Eh]
    ---------------------

    Doubly Occupied:

       1A    -20.530471     2A    -11.289652     3A    -11.247339
       4A    -11.229326     5A    -11.225229     6A    -11.219196
       7A     -1.291652     8A     -1.110337     9A     -1.012769
      10A     -0.945352    11A     -0.856582    12A     -0.738084
      13A     -0.662702    14A     -0.651715    15A     -0.608110
      16A     -0.584707    17A     -0.560938    18A     -0.550041
      19A     -0.527386    20A     -0.509292    21A     -0.504893
      22A     -0.475190    23A     -0.448278    24A     -0.359700

  @DF-RHF Final Energy:  -270.07124091970002

   => Energetics <=

    Nuclear Repulsion Energy =            244.6749446518135187
    One-Electron Energy =                -851.2144933893786174
    Two-Electron Energy =                 336.4683078178651385
    Total Energy =                       -270.0712409197000170
  Basis Set: (AUG-CC-PVTZ AUX)
    Blend: AUG-CC-PVTZ-RI
    Molecular point group: c1

    Geometry (in Angstrom), charge = 0, multiplicity = 1:

       Center              X                  Y                   Z               Mass
    ------------   -----------------  -----------------  -----------------  -----------------
         O           -1.264220455639    -0.366105996891     1.164185705371    15.994914619570
         C           -0.568262155639    -0.474569196891    -0.312747194629    12.000000000000
         C            0.794956544361    -0.044839996891    -0.059890294629    12.000000000000
         C           -1.492901455639     0.408279003109    -1.050016294629    12.000000000000
         C            1.086503544361     1.351213003109     0.411224705371    12.000000000000
         C            1.760132544361    -0.920370996891    -0.373755294629    12.000000000000
         H           -0.696581455639    -1.502723996891    -0.488576294629     1.007825032230
         H           -1.082347455639     0.407754003109    -2.063425294629     1.007825032230
         H           -2.516364455639     0.027546003109    -1.078816294629     1.007825032230
         H           -1.520764455639     1.432076003109    -0.673807294629     1.007825032230
         H            0.549068544361     1.553150003109     1.344531705371     1.007825032230
         H            2.158248544361     1.494298003109     0.578077705371     1.007825032230
         H            0.753446544361     2.095974003109    -0.320209294629     1.007825032230
         H            1.525889544361    -1.922645996891    -0.719786294629     1.007825032230
         H            2.811931544361    -0.656674996891    -0.324117294629     1.007825032230
         H           -0.736328455639    -0.925138996891     1.762809705371     1.007825032230

  Basis Set: AUG-CC-PVTZ
    Blend: AUG-CC-PVTZ
  Basis Set: (AUG-CC-PVTZ AUX)
    Blend: AUG-CC-PVTZ-JKFIT
	 Reference Energy          =    -270.0712409197000170 [Eh]
	 Singles Energy            =      -0.0000000000000000 [Eh]
	 Same-Spin Energy          =      -0.2778606309718331 [Eh]
	 Opposite-Spin Energy      =      -0.9560832592829765 [Eh]
	 Correlation Energy        =      -1.2339438902548097 [Eh]
	 Total Energy              =    -271.3051848099548238 [Eh]

	 ================> DF-SCS-MP2 Energies <==================
	-----------------------------------------------------------
	 SCS Same-Spin Scale       =       0.3333333333333333 [-]
	 SCS Opposite-Spin Scale   =       1.2000000000000000 [-]
	 SCS Same-Spin Energy      =      -0.0926202103239444 [Eh]
	 SCS Opposite-Spin Energy  =      -1.1472999111395719 [Eh]
	 SCS Correlation Energy    =      -1.2399201214635163 [Eh]
	 SCS Total Energy          =    -271.3111610411635297 [Eh]
	-----------------------------------------------------------

  Dipole Moment: [D]
     X:     1.4360      Y:    -0.3643      Z:    -1.0015     Total:     1.7882

*** Psi4 exiting successfully. Buy a developer a beer!
