                               Psi4 1.3.2 release

  ==> Input File <==

--------------------------------------------------------------------------
#psi4
#
memory 32 gb

molecule  {
0 1
  O       -1.2523610    -0.3679540     1.1390180
  C       -0.6414680    -0.4631600    -0.1573930
  C        0.7759026    -0.0533582    -0.0432447
  C       -1.4810420     0.4064310    -1.0751840
  C        1.0983630     1.3493650     0.3860570
  C        1.7719920    -0.9222190    -0.3989230
  H       -0.6847220    -1.5045720    -0.5137440
  H       -1.0704880     0.4059060    -2.0885930
  H       -2.5045050     0.0256980    -1.1039840
  H       -1.5089050     1.4302280    -0.6989750
  H        0.5464976     1.5159107     1.3179282
  H        2.1701080     1.4924500     0.5529100
  H        0.7653060     2.0941260    -0.3453770
  H        1.5377490    -1.9244940    -0.7449540
  H        2.8237910    -0.6585230    -0.3492850
  H       -0.7244690    -0.9269870     1.7376420
units angstrom
no_reorient  #important for SAPT in psi4, default
symmetry c1  #important for SAPT in psi4, default
}

set PROPERTIES_ORIGIN ["COM"]
properties('MP2/aug-cc-pvtz', properties = ['dipole'])
--------------------------------------------------------------------------

    Molecular point group: c1
  Charge       = 0
  Multiplicity = 1
  Basis Set: AUG-CC-PVTZ
    Blend: AUG-CC-PVTZ
  Basis Set: (AUG-CC-PVTZ AUX)
    Blend: AUG-CC-PVTZ-JKFIT

    Orbital Energies [Eh]
    ---------------------

    Doubly Occupied:

       1A    -20.557202     2A    -11.283399     3A    -11.244473
       4A    -11.226223     5A    -11.221616     6A    -11.215410
       7A     -1.358628     8A     -1.092975     9A     -0.998523
      10A     -0.935773    11A     -0.851017    12A     -0.735734
      13A     -0.692345    14A     -0.649187    15A     -0.596303
      16A     -0.591921    17A     -0.566791    18A     -0.550256
      19A     -0.532023    20A     -0.522584    21A     -0.508710
      22A     -0.479899    23A     -0.444420    24A     -0.351762

  @DF-RHF Final Energy:  -270.09796885906457

   => Energetics <=

    Nuclear Repulsion Energy =            245.7825191760987593
    One-Electron Energy =                -853.3466269772728765
    Two-Electron Energy =                 337.4661389421095805
    Total Energy =                       -270.0979688590645651
  Basis Set: (AUG-CC-PVTZ AUX)
    Blend: AUG-CC-PVTZ-RI
    Molecular point group: c1

    Geometry (in Angstrom), charge = 0, multiplicity = 1:

       Center              X                  Y                   Z               Mass
    ------------   -----------------  -----------------  -----------------  -----------------
         O           -1.247882172746    -0.366609937486     1.133205371760    15.994914619570
         C           -0.636989172746    -0.461815937486    -0.163205628240    12.000000000000
         C            0.780381427254    -0.052014137486    -0.049057328240    12.000000000000
         C           -1.476563172746     0.407775062514    -1.080996628240    12.000000000000
         C            1.102841827254     1.350709062514     0.380244371760    12.000000000000
         C            1.776470827254    -0.920874937486    -0.404735628240    12.000000000000
         H           -0.680243172746    -1.503227937486    -0.519556628240     1.007825032230
         H           -1.066009172746     0.407250062514    -2.094405628240     1.007825032230
         H           -2.500026172746     0.027042062514    -1.109796628240     1.007825032230
         H           -1.504426172746     1.431572062514    -0.704787628240     1.007825032230
         H            0.550976427254     1.517254762514     1.312115571760     1.007825032230
         H            2.174586827254     1.493794062514     0.547097371760     1.007825032230
         H            0.769784827254     2.095470062514    -0.351189628240     1.007825032230
         H            1.542227827254    -1.923149937486    -0.750766628240     1.007825032230
         H            2.828269827254    -0.657178937486    -0.355097628240     1.007825032230
         H           -0.719990172746    -0.925642937486     1.731829371760     1.007825032230

  Basis Set: AUG-CC-PVTZ
    Blend: AUG-CC-PVTZ
  Basis Set: (AUG-CC-PVTZ AUX)
    Blend: AUG-CC-PVTZ-JKFIT
	 Reference Energy          =    -270.0979688590645651 [Eh]
	 Singles Energy            =      -0.0000000000000000 [Eh]
	 Same-Spin Energy          =      -0.2762404515248271 [Eh]
	 Opposite-Spin Energy      =      -0.9516868591999653 [Eh]
	 Correlation Energy        =      -1.2279273107247923 [Eh]
	 Total Energy              =    -271.3258961697893596 [Eh]

	 ================> DF-SCS-MP2 Energies <==================
	-----------------------------------------------------------
	 SCS Same-Spin Scale       =       0.3333333333333333 [-]
	 SCS Opposite-Spin Scale   =       1.2000000000000000 [-]
	 SCS Same-Spin Energy      =      -0.0920801505082757 [Eh]
	 SCS Opposite-Spin Energy  =      -1.1420242310399584 [Eh]
	 SCS Correlation Energy    =      -1.2341043815482342 [Eh]
	 SCS Total Energy          =    -271.3320732406127718 [Eh]
	-----------------------------------------------------------

  Dipole Moment: [D]
     X:     1.0960      Y:    -0.4203      Z:    -0.4380     Total:     1.2528

*** Psi4 exiting successfully. Buy a developer a beer!
