                               Psi4 1.3.2 release

  ==> Input File <==

--------------------------------------------------------------------------
#psi4
#
memory 32 gb

molecule  {
0 1
  O       -1.1864109    -0.3441201     1.1661638
  C       -0.6414680    -0.4631600    -0.1573930
  C        0.7970448    -0.0336217    -0.0077746
  C       -1.4810420     0.4064310    -1.0751840
  C        1.0983630     1.3493650     0.3860570
  C        1.7719920    -0.9222190    -0.3989230
  H       -0.6847220    -1.5045720    -0.5137440
  H       -1.0704880     0.4059060    -2.0885930
  H       -2.5045050     0.0256980    -1.1039840
  H       -1.5089050     1.4302280    -0.6989750
  H        0.5609280     1.5513020     1.3193640
  H        2.1701080     1.4924500     0.5529100
  H        0.7653060     2.0941260    -0.3453770
  H        1.5377490    -1.9244940    -0.7449540
  H        2.8237910    -0.6585230    -0.3492850
  H       -0.7244690    -0.9269870     1.7376420
units angstrom
no_reorient  #important for SAPT in psi4, default
symmetry c1  #important for SAPT in psi4, default
}

set PROPERTIES_ORIGIN ["COM"]
properties('MP2/aug-cc-pvtz', properties = ['dipole'])
--------------------------------------------------------------------------

    Molecular point group: c1
  Charge       = 0
  Multiplicity = 1
  Basis Set: AUG-CC-PVTZ
    Blend: AUG-CC-PVTZ
  Basis Set: (AUG-CC-PVTZ AUX)
    Blend: AUG-CC-PVTZ-JKFIT

    Orbital Energies [Eh]
    ---------------------

    Doubly Occupied:

       1A    -20.551389     2A    -11.285862     3A    -11.244074
       4A    -11.224383     5A    -11.219236     6A    -11.216921
       7A     -1.364846     8A     -1.091815     9A     -1.001206
      10A     -0.936332    11A     -0.848337    12A     -0.736246
      13A     -0.700051    14A     -0.648439    15A     -0.593272
      16A     -0.591357    17A     -0.567897    18A     -0.552217
      19A     -0.535754    20A     -0.521574    21A     -0.515446
      22A     -0.475973    23A     -0.441131    24A     -0.347512

  @DF-RHF Final Energy:  -270.09592890687594

   => Energetics <=

    Nuclear Repulsion Energy =            246.1269454102577754
    One-Electron Energy =                -854.0232086119883661
    Two-Electron Energy =                 337.8003342948546219
    Total Energy =                       -270.0959289068759404
  Basis Set: (AUG-CC-PVTZ AUX)
    Blend: AUG-CC-PVTZ-RI
    Molecular point group: c1

    Geometry (in Angstrom), charge = 0, multiplicity = 1:

       Center              X                  Y                   Z               Mass
    ------------   -----------------  -----------------  -----------------  -----------------
         O           -1.197304063980    -0.350371057770     1.150344766290    15.994914619570
         C           -0.652361163980    -0.469410957770    -0.173212033710    12.000000000000
         C            0.786151636020    -0.039872657770    -0.023593633710    12.000000000000
         C           -1.491935163980     0.400180042230    -1.091003033710    12.000000000000
         C            1.087469836020     1.343114042230     0.370237966290    12.000000000000
         C            1.761098836020    -0.928469957770    -0.414742033710    12.000000000000
         H           -0.695615163980    -1.510822957770    -0.529563033710     1.007825032230
         H           -1.081381163980     0.399655042230    -2.104412033710     1.007825032230
         H           -2.515398163980     0.019447042230    -1.119803033710     1.007825032230
         H           -1.519798163980     1.423977042230    -0.714794033710     1.007825032230
         H            0.550034836020     1.545051042230     1.303544966290     1.007825032230
         H            2.159214836020     1.486199042230     0.537090966290     1.007825032230
         H            0.754412836020     2.087875042230    -0.361196033710     1.007825032230
         H            1.526855836020    -1.930744957770    -0.760773033710     1.007825032230
         H            2.812897836020    -0.664773957770    -0.365104033710     1.007825032230
         H           -0.735362163980    -0.933237957770     1.721822966290     1.007825032230

  Basis Set: AUG-CC-PVTZ
    Blend: AUG-CC-PVTZ
  Basis Set: (AUG-CC-PVTZ AUX)
    Blend: AUG-CC-PVTZ-JKFIT
	 Reference Energy          =    -270.0959289068759404 [Eh]
	 Singles Energy            =      -0.0000000000000000 [Eh]
	 Same-Spin Energy          =      -0.2759243236325237 [Eh]
	 Opposite-Spin Energy      =      -0.9506667868136340 [Eh]
	 Correlation Energy        =      -1.2265911104461578 [Eh]
	 Total Energy              =    -271.3225200173221197 [Eh]

	 ================> DF-SCS-MP2 Energies <==================
	-----------------------------------------------------------
	 SCS Same-Spin Scale       =       0.3333333333333333 [-]
	 SCS Opposite-Spin Scale   =       1.2000000000000000 [-]
	 SCS Same-Spin Energy      =      -0.0919747745441745 [Eh]
	 SCS Opposite-Spin Energy  =      -1.1408001441763609 [Eh]
	 SCS Correlation Energy    =      -1.2327749187205355 [Eh]
	 SCS Total Energy          =    -271.3287038255964490 [Eh]
	-----------------------------------------------------------

  Dipole Moment: [D]
     X:     0.9012      Y:    -0.4488      Z:    -0.5034     Total:     1.1256

*** Psi4 exiting successfully. Buy a developer a beer!
