                               Psi4 1.3.2 release

  ==> Input File <==

--------------------------------------------------------------------------
#psi4
#
memory 32 gb

molecule  {
0 1
  O       -1.2523610    -0.3679540     1.1390180
  C       -0.6414680    -0.4631600    -0.1573930
  C        0.8068160    -0.0466880    -0.0850580
  C       -1.4810420     0.4064310    -1.0751840
  C        1.1496002     1.3391343     0.3817488
  C        1.8038559    -0.8896397    -0.3883305
  H       -0.6847220    -1.5045720    -0.5137440
  H       -1.0704880     0.4059060    -2.0885930
  H       -2.5045050     0.0256980    -1.1039840
  H       -1.5089050     1.4302280    -0.6989750
  H        0.5609280     1.5513020     1.3193640
  H        2.1701080     1.4924500     0.5529100
  H        0.7653060     2.0941260    -0.3453770
  H        1.5377490    -1.9244940    -0.7449540
  H        2.8237910    -0.6585230    -0.3492850
  H       -0.7244690    -0.9269870     1.7376420
units angstrom
no_reorient  #important for SAPT in psi4, default
symmetry c1  #important for SAPT in psi4, default
}

set PROPERTIES_ORIGIN ["COM"]
properties('MP2/aug-cc-pvtz', properties = ['dipole'])
--------------------------------------------------------------------------

    Molecular point group: c1
  Charge       = 0
  Multiplicity = 1
  Basis Set: AUG-CC-PVTZ
    Blend: AUG-CC-PVTZ
  Basis Set: (AUG-CC-PVTZ AUX)
    Blend: AUG-CC-PVTZ-JKFIT

    Orbital Energies [Eh]
    ---------------------

    Doubly Occupied:

       1A    -20.559142     2A    -11.287039     3A    -11.242026
       4A    -11.221784     5A    -11.220618     6A    -11.215201
       7A     -1.358483     8A     -1.093808     9A     -1.001336
      10A     -0.934416    11A     -0.849366    12A     -0.737172
      13A     -0.692541    14A     -0.647807    15A     -0.604014
      16A     -0.588966    17A     -0.561708    18A     -0.556632
      19A     -0.532773    20A     -0.518831    21A     -0.500823
      22A     -0.482538    23A     -0.443418    24A     -0.357017

  @DF-RHF Final Energy:  -270.09616278760996

   => Energetics <=

    Nuclear Repulsion Energy =            245.2442186314658557
    One-Electron Energy =                -852.2658458909749015
    Two-Electron Energy =                 336.9254644718990903
    Total Energy =                       -270.0961627876099556
  Basis Set: (AUG-CC-PVTZ AUX)
    Blend: AUG-CC-PVTZ-RI
    Molecular point group: c1

    Geometry (in Angstrom), charge = 0, multiplicity = 1:

       Center              X                  Y                   Z               Mass
    ------------   -----------------  -----------------  -----------------  -----------------
         O           -1.263946614192    -0.371070024882     1.138141880893    15.994914619570
         C           -0.653053614192    -0.466276024882    -0.158269119107    12.000000000000
         C            0.795230385808    -0.049804024882    -0.085934119107    12.000000000000
         C           -1.492627614192     0.403314975118    -1.076060119107    12.000000000000
         C            1.138014585808     1.336018275118     0.380872680893    12.000000000000
         C            1.792270285808    -0.892755724882    -0.389206619107    12.000000000000
         H           -0.696307614192    -1.507688024882    -0.514620119107     1.007825032230
         H           -1.082073614192     0.402789975118    -2.089469119107     1.007825032230
         H           -2.516090614192     0.022581975118    -1.104860119107     1.007825032230
         H           -1.520490614192     1.427111975118    -0.699851119107     1.007825032230
         H            0.549342385808     1.548185975118     1.318487880893     1.007825032230
         H            2.158522385808     1.489333975118     0.552033880893     1.007825032230
         H            0.753720385808     2.091009975118    -0.346253119107     1.007825032230
         H            1.526163385808    -1.927610024882    -0.745830119107     1.007825032230
         H            2.812205385808    -0.661639024882    -0.350161119107     1.007825032230
         H           -0.736054614192    -0.930103024882     1.736765880893     1.007825032230

  Basis Set: AUG-CC-PVTZ
    Blend: AUG-CC-PVTZ
  Basis Set: (AUG-CC-PVTZ AUX)
    Blend: AUG-CC-PVTZ-JKFIT
	 Reference Energy          =    -270.0961627876099556 [Eh]
	 Singles Energy            =      -0.0000000000000000 [Eh]
	 Same-Spin Energy          =      -0.2757020501842397 [Eh]
	 Opposite-Spin Energy      =      -0.9507638058572825 [Eh]
	 Correlation Energy        =      -1.2264658560415223 [Eh]
	 Total Energy              =    -271.3226286436514556 [Eh]

	 ================> DF-SCS-MP2 Energies <==================
	-----------------------------------------------------------
	 SCS Same-Spin Scale       =       0.3333333333333333 [-]
	 SCS Opposite-Spin Scale   =       1.2000000000000000 [-]
	 SCS Same-Spin Energy      =      -0.0919006833947466 [Eh]
	 SCS Opposite-Spin Energy  =      -1.1409165670287389 [Eh]
	 SCS Correlation Energy    =      -1.2328172504234853 [Eh]
	 SCS Total Energy          =    -271.3289800380334214 [Eh]
	-----------------------------------------------------------

  Dipole Moment: [D]
     X:     1.1058      Y:    -0.4272      Z:    -0.3716     Total:     1.2423

*** Psi4 exiting successfully. Buy a developer a beer!
