                               Psi4 1.3.2 release

  ==> Input File <==

--------------------------------------------------------------------------
#psi4
#
memory 32 gb

molecule  {
0 1
  O       -1.2523610    -0.3679540     1.1390180
  C       -0.6414680    -0.4631600    -0.1573930
  C        0.8114096    -0.0664167    -0.0682344
  C       -1.5022512     0.3916534    -1.0694016
  C        1.0983630     1.3493650     0.3860570
  C        1.7719920    -0.9222190    -0.3989230
  H       -0.6847220    -1.5045720    -0.5137440
  H       -1.0704880     0.4059060    -2.0885930
  H       -2.5045050     0.0256980    -1.1039840
  H       -1.5089050     1.4302280    -0.6989750
  H        0.5609280     1.5513020     1.3193640
  H        2.1701080     1.4924500     0.5529100
  H        0.7653060     2.0941260    -0.3453770
  H        1.5377490    -1.9244940    -0.7449540
  H        2.8237910    -0.6585230    -0.3492850
  H       -0.7244690    -0.9269870     1.7376420
units angstrom
no_reorient  #important for SAPT in psi4, default
symmetry c1  #important for SAPT in psi4, default
}

set PROPERTIES_ORIGIN ["COM"]
properties('MP2/aug-cc-pvtz', properties = ['dipole'])
--------------------------------------------------------------------------

    Molecular point group: c1
  Charge       = 0
  Multiplicity = 1
  Basis Set: AUG-CC-PVTZ
    Blend: AUG-CC-PVTZ
  Basis Set: (AUG-CC-PVTZ AUX)
    Blend: AUG-CC-PVTZ-JKFIT

    Orbital Energies [Eh]
    ---------------------

    Doubly Occupied:

       1A    -20.557090     2A    -11.283996     3A    -11.240935
       4A    -11.221951     5A    -11.221507     6A    -11.214610
       7A     -1.357122     8A     -1.093306     9A     -0.999206
      10A     -0.938241    11A     -0.847353    12A     -0.733940
      13A     -0.690987    14A     -0.650458    15A     -0.599610
      16A     -0.591782    17A     -0.562480    18A     -0.550246
      19A     -0.524985    20A     -0.524574    21A     -0.509940
      22A     -0.480030    23A     -0.438596    24A     -0.362890

  @DF-RHF Final Energy:  -270.10146817089969

   => Energetics <=

    Nuclear Repulsion Energy =            245.4375547827256696
    One-Electron Energy =                -852.6863733496527402
    Two-Electron Energy =                 337.1473503960273774
    Total Energy =                       -270.1014681708996932
  Basis Set: (AUG-CC-PVTZ AUX)
    Blend: AUG-CC-PVTZ-RI
    Molecular point group: c1

    Geometry (in Angstrom), charge = 0, multiplicity = 1:

       Center              X                  Y                   Z               Mass
    ------------   -----------------  -----------------  -----------------  -----------------
         O           -1.250044483362    -0.363143526530     1.135866370284    15.994914619570
         C           -0.639151483362    -0.458349526530    -0.160544629716    12.000000000000
         C            0.813726116638    -0.061606226530    -0.071386029716    12.000000000000
         C           -1.499934683362     0.396463873470    -1.072553229716    12.000000000000
         C            1.100679516638     1.354175473470     0.382905370284    12.000000000000
         C            1.774308516638    -0.917408526530    -0.402074629716    12.000000000000
         H           -0.682405483362    -1.499761526530    -0.516895629716     1.007825032230
         H           -1.068171483362     0.410716473470    -2.091744629716     1.007825032230
         H           -2.502188483362     0.030508473470    -1.107135629716     1.007825032230
         H           -1.506588483362     1.435038473470    -0.702126629716     1.007825032230
         H            0.563244516638     1.556112473470     1.316212370284     1.007825032230
         H            2.172424516638     1.497260473470     0.549758370284     1.007825032230
         H            0.767622516638     2.098936473470    -0.348528629716     1.007825032230
         H            1.540065516638    -1.919683526530    -0.748105629716     1.007825032230
         H            2.826107516638    -0.653712526530    -0.352436629716     1.007825032230
         H           -0.722152483362    -0.922176526530     1.734490370284     1.007825032230

  Basis Set: AUG-CC-PVTZ
    Blend: AUG-CC-PVTZ
  Basis Set: (AUG-CC-PVTZ AUX)
    Blend: AUG-CC-PVTZ-JKFIT
	 Reference Energy          =    -270.1014681708996932 [Eh]
	 Singles Energy            =      -0.0000000000000000 [Eh]
	 Same-Spin Energy          =      -0.2754419593977404 [Eh]
	 Opposite-Spin Energy      =      -0.9502670216247693 [Eh]
	 Correlation Energy        =      -1.2257089810225097 [Eh]
	 Total Energy              =    -271.3271771519222284 [Eh]

	 ================> DF-SCS-MP2 Energies <==================
	-----------------------------------------------------------
	 SCS Same-Spin Scale       =       0.3333333333333333 [-]
	 SCS Opposite-Spin Scale   =       1.2000000000000000 [-]
	 SCS Same-Spin Energy      =      -0.0918139864659135 [Eh]
	 SCS Opposite-Spin Energy  =      -1.1403204259497230 [Eh]
	 SCS Correlation Energy    =      -1.2321344124156366 [Eh]
	 SCS Total Energy          =    -271.3336025833153258 [Eh]
	-----------------------------------------------------------

  Dipole Moment: [D]
     X:     1.1235      Y:    -0.4554      Z:    -0.4064     Total:     1.2786

*** Psi4 exiting successfully. Buy a developer a beer!
