                               Psi4 1.3.2 release

  ==> Input File <==

--------------------------------------------------------------------------
#psi4
#
memory 32 gb

molecule  {
0 1
  O       -1.2523610    -0.3679540     1.1390180
  C       -0.6414680    -0.4631600    -0.1573930
  C        0.8266495    -0.1186767    -0.1108104
  C       -1.4810420     0.4064310    -1.0751840
  C        1.0983630     1.3493650     0.3860570
  C        1.7719920    -0.9222190    -0.3989230
  H       -0.6271188    -1.5044191    -0.5165162
  H       -1.0704880     0.4059060    -2.0885930
  H       -2.5045050     0.0256980    -1.1039840
  H       -1.5089050     1.4302280    -0.6989750
  H        0.5609280     1.5513020     1.3193640
  H        2.1701080     1.4924500     0.5529100
  H        0.7653060     2.0941260    -0.3453770
  H        1.5377490    -1.9244940    -0.7449540
  H        2.8237910    -0.6585230    -0.3492850
  H       -0.7244690    -0.9269870     1.7376420
units angstrom
no_reorient  #important for SAPT in psi4, default
symmetry c1  #important for SAPT in psi4, default
}

set PROPERTIES_ORIGIN ["COM"]
properties('MP2/aug-cc-pvtz', properties = ['dipole'])
--------------------------------------------------------------------------

    Molecular point group: c1
  Charge       = 0
  Multiplicity = 1
  Basis Set: AUG-CC-PVTZ
    Blend: AUG-CC-PVTZ
  Basis Set: (AUG-CC-PVTZ AUX)
    Blend: AUG-CC-PVTZ-JKFIT

    Orbital Energies [Eh]
    ---------------------

    Doubly Occupied:

       1A    -20.559984     2A    -11.284392     3A    -11.234149
       4A    -11.221351     5A    -11.215084     6A    -11.215060
       7A     -1.357934     8A     -1.097909     9A     -1.000767
      10A     -0.935394    11A     -0.849969    12A     -0.731587
      13A     -0.692343    14A     -0.648661    15A     -0.606585
      16A     -0.588746    17A     -0.560727    18A     -0.541599
      19A     -0.530355    20A     -0.523296    21A     -0.503455
      22A     -0.485621    23A     -0.427844    24A     -0.378668

  @DF-RHF Final Energy:  -270.09522337348585

   => Energetics <=

    Nuclear Repulsion Energy =            245.5174335703821384
    One-Electron Energy =                -852.8423560782338200
    Two-Electron Energy =                 337.2296991343657737
    Total Energy =                       -270.0952233734858510
  Basis Set: (AUG-CC-PVTZ AUX)
    Blend: AUG-CC-PVTZ-RI
    Molecular point group: c1

    Geometry (in Angstrom), charge = 0, multiplicity = 1:

       Center              X                  Y                   Z               Mass
    ------------   -----------------  -----------------  -----------------  -----------------
         O           -1.255800553180    -0.357919660255     1.142640777765    15.994914619570
         C           -0.644907553180    -0.453125660255    -0.153770222235    12.000000000000
         C            0.823209946820    -0.108642360255    -0.107187622235    12.000000000000
         C           -1.484481553180     0.416465339745    -1.071561222235    12.000000000000
         C            1.094923446820     1.359399339745     0.389679777765    12.000000000000
         C            1.768552446820    -0.912184660255    -0.395300222235    12.000000000000
         H           -0.630558353180    -1.494384760255    -0.512893422235     1.007825032230
         H           -1.073927553180     0.415940339745    -2.084970222235     1.007825032230
         H           -2.507944553180     0.035732339745    -1.100361222235     1.007825032230
         H           -1.512344553180     1.440262339745    -0.695352222235     1.007825032230
         H            0.557488446820     1.561336339745     1.322986777765     1.007825032230
         H            2.166668446820     1.502484339745     0.556532777765     1.007825032230
         H            0.761866446820     2.104160339745    -0.341754222235     1.007825032230
         H            1.534309446820    -1.914459660255    -0.741331222235     1.007825032230
         H            2.820351446820    -0.648488660255    -0.345662222235     1.007825032230
         H           -0.727908553180    -0.916952660255     1.741264777765     1.007825032230

  Basis Set: AUG-CC-PVTZ
    Blend: AUG-CC-PVTZ
  Basis Set: (AUG-CC-PVTZ AUX)
    Blend: AUG-CC-PVTZ-JKFIT
	 Reference Energy          =    -270.0952233734858510 [Eh]
	 Singles Energy            =      -0.0000000000000000 [Eh]
	 Same-Spin Energy          =      -0.2749566332068928 [Eh]
	 Opposite-Spin Energy      =      -0.9493475829306697 [Eh]
	 Correlation Energy        =      -1.2243042161375626 [Eh]
	 Total Energy              =    -271.3195275896234193 [Eh]

	 ================> DF-SCS-MP2 Energies <==================
	-----------------------------------------------------------
	 SCS Same-Spin Scale       =       0.3333333333333333 [-]
	 SCS Opposite-Spin Scale   =       1.2000000000000000 [-]
	 SCS Same-Spin Energy      =      -0.0916522110689643 [Eh]
	 SCS Opposite-Spin Energy  =      -1.1392170995168036 [Eh]
	 SCS Correlation Energy    =      -1.2308693105857680 [Eh]
	 SCS Total Energy          =    -271.3260926840716252 [Eh]
	-----------------------------------------------------------

  Dipole Moment: [D]
     X:     1.1392      Y:    -0.5208      Z:    -0.3879     Total:     1.3113

*** Psi4 exiting successfully. Buy a developer a beer!
