                               Psi4 1.3.2 release

  ==> Input File <==

--------------------------------------------------------------------------
#psi4
#
memory 32 gb

molecule  {
0 1
  O       -1.2523610    -0.3679540     1.1390180
  C       -0.6414680    -0.4631600    -0.1573930
  C        0.8068160    -0.0466880    -0.0850580
  C       -1.4810420     0.4064310    -1.0751840
  C        1.1240299     1.3444615     0.3839743
  C        1.7880734    -0.9060603    -0.3936738
  H       -0.6847220    -1.5045720    -0.5137440
  H       -1.0704880     0.4059060    -2.0885930
  H       -2.5045050     0.0256980    -1.1039840
  H       -1.5089050     1.4302280    -0.6989750
  H        0.5609280     1.5513020     1.3193640
  H        2.1701080     1.4924500     0.5529100
  H        0.7653060     2.0941260    -0.3453770
  H        1.5377490    -1.9244940    -0.7449540
  H        2.8237910    -0.6585230    -0.3492850
  H       -0.7244690    -0.9269870     1.7376420
units angstrom
no_reorient  #important for SAPT in psi4, default
symmetry c1  #important for SAPT in psi4, default
}

set PROPERTIES_ORIGIN ["COM"]
properties('MP2/aug-cc-pvtz', properties = ['dipole'])
--------------------------------------------------------------------------

    Molecular point group: c1
  Charge       = 0
  Multiplicity = 1
  Basis Set: AUG-CC-PVTZ
    Blend: AUG-CC-PVTZ
  Basis Set: (AUG-CC-PVTZ AUX)
    Blend: AUG-CC-PVTZ-JKFIT

    Orbital Energies [Eh]
    ---------------------

    Doubly Occupied:

       1A    -20.558551     2A    -11.285581     3A    -11.241803
       4A    -11.222144     5A    -11.220822     6A    -11.214654
       7A     -1.357947     8A     -1.093500     9A     -1.000046
      10A     -0.936261    11A     -0.847756    12A     -0.735611
      13A     -0.691971    14A     -0.648388    15A     -0.601304
      16A     -0.589542    17A     -0.560545    18A     -0.555048
      19A     -0.532019    20A     -0.520969    21A     -0.506771
      22A     -0.480497    23A     -0.442045    24A     -0.358001

  @DF-RHF Final Energy:  -270.10070637838066

   => Energetics <=

    Nuclear Repulsion Energy =            245.3699476896586305
    One-Electron Energy =                -852.5377597059488153
    Two-Electron Energy =                 337.0671056379095489
    Total Energy =                       -270.1007063783806643
  Basis Set: (AUG-CC-PVTZ AUX)
    Blend: AUG-CC-PVTZ-RI
    Molecular point group: c1

    Geometry (in Angstrom), charge = 0, multiplicity = 1:

       Center              X                  Y                   Z               Mass
    ------------   -----------------  -----------------  -----------------  -----------------
         O           -1.258181360872    -0.369523424381     1.138576552954    15.994914619570
         C           -0.647288360872    -0.464729424381    -0.157834447046    12.000000000000
         C            0.800995639128    -0.048257424381    -0.085499447046    12.000000000000
         C           -1.486862360872     0.404861575619    -1.075625447046    12.000000000000
         C            1.118209539128     1.342892075619     0.383532852954    12.000000000000
         C            1.782253039128    -0.907629724381    -0.394115247046    12.000000000000
         H           -0.690542360872    -1.506141424381    -0.514185447046     1.007825032230
         H           -1.076308360872     0.404336575619    -2.089034447046     1.007825032230
         H           -2.510325360872     0.024128575619    -1.104425447046     1.007825032230
         H           -1.514725360872     1.428658575619    -0.699416447046     1.007825032230
         H            0.555107639128     1.549732575619     1.318922552954     1.007825032230
         H            2.164287639128     1.490880575619     0.552468552954     1.007825032230
         H            0.759485639128     2.092556575619    -0.345818447046     1.007825032230
         H            1.531928639128    -1.926063424381    -0.745395447046     1.007825032230
         H            2.817970639128    -0.660092424381    -0.349726447046     1.007825032230
         H           -0.730289360872    -0.928556424381     1.737200552954     1.007825032230

  Basis Set: AUG-CC-PVTZ
    Blend: AUG-CC-PVTZ
  Basis Set: (AUG-CC-PVTZ AUX)
    Blend: AUG-CC-PVTZ-JKFIT
	 Reference Energy          =    -270.1007063783806643 [Eh]
	 Singles Energy            =      -0.0000000000000000 [Eh]
	 Same-Spin Energy          =      -0.2756511938003480 [Eh]
	 Opposite-Spin Energy      =      -0.9506081041426895 [Eh]
	 Correlation Energy        =      -1.2262592979430376 [Eh]
	 Total Energy              =    -271.3269656763237094 [Eh]

	 ================> DF-SCS-MP2 Energies <==================
	-----------------------------------------------------------
	 SCS Same-Spin Scale       =       0.3333333333333333 [-]
	 SCS Opposite-Spin Scale   =       1.2000000000000000 [-]
	 SCS Same-Spin Energy      =      -0.0918837312667827 [Eh]
	 SCS Opposite-Spin Energy  =      -1.1407297249712274 [Eh]
	 SCS Correlation Energy    =      -1.2326134562380100 [Eh]
	 SCS Total Energy          =    -271.3333198346186919 [Eh]
	-----------------------------------------------------------

  Dipole Moment: [D]
     X:     1.1126      Y:    -0.4343      Z:    -0.3743     Total:     1.2516

*** Psi4 exiting successfully. Buy a developer a beer!
