                               Psi4 1.3.2 release

  ==> Input File <==

--------------------------------------------------------------------------
#psi4
#
memory 32 gb

molecule  {
0 1
  O       -1.2523610    -0.3679540     1.1390180
  C       -0.6414680    -0.4631600    -0.1573930
  C        0.8068160    -0.0466880    -0.0850580
  C       -1.4810420     0.4064310    -1.0751840
  C        1.0983630     1.3493650     0.3860570
  C        1.7719920    -0.9222190    -0.3989230
  H       -0.6847220    -1.5045720    -0.5137440
  H       -1.0704880     0.4059060    -2.0885930
  H       -2.5045050     0.0256980    -1.1039840
  H       -1.5089050     1.4302280    -0.6989750
  H        0.5609280     1.5513020     1.3193640
  H        2.1701080     1.4924500     0.5529100
  H        0.7653060     2.0941260    -0.3453770
  H        1.5377490    -1.9244940    -0.7449540
  H        2.8237910    -0.6585230    -0.3492850
  H       -0.6702953    -0.9843565     1.7990744
units angstrom
no_reorient  #important for SAPT in psi4, default
symmetry c1  #important for SAPT in psi4, default
}

set PROPERTIES_ORIGIN ["COM"]
properties('MP2/aug-cc-pvtz', properties = ['dipole'])
--------------------------------------------------------------------------

    Molecular point group: c1
  Charge       = 0
  Multiplicity = 1
  Basis Set: AUG-CC-PVTZ
    Blend: AUG-CC-PVTZ
  Basis Set: (AUG-CC-PVTZ AUX)
    Blend: AUG-CC-PVTZ-JKFIT

    Orbital Energies [Eh]
    ---------------------

    Doubly Occupied:

       1A    -20.566283     2A    -11.283365     3A    -11.241408
       4A    -11.222167     5A    -11.220942     6A    -11.214095
       7A     -1.339467     8A     -1.091080     9A     -0.995943
      10A     -0.937918    11A     -0.844031    12A     -0.728914
      13A     -0.677740    14A     -0.648805    15A     -0.594406
      16A     -0.589520    17A     -0.562754    18A     -0.548526
      19A     -0.528808    20A     -0.522410    21A     -0.509819
      22A     -0.474320    23A     -0.438744    24A     -0.358566

  @DF-RHF Final Energy:  -270.08863616987111

   => Energetics <=

    Nuclear Repulsion Energy =            244.9721720666875342
    One-Electron Energy =                -851.8415540143357703
    Two-Electron Energy =                 336.7807457777770992
    Total Energy =                       -270.0886361698711085
  Basis Set: (AUG-CC-PVTZ AUX)
    Blend: AUG-CC-PVTZ-RI
    Molecular point group: c1

    Geometry (in Angstrom), charge = 0, multiplicity = 1:

       Center              X                  Y                   Z               Mass
    ------------   -----------------  -----------------  -----------------  -----------------
         O           -1.252995284708    -0.367282530621     1.138298706653    15.994914619570
         C           -0.642102284708    -0.462488530621    -0.158112293347    12.000000000000
         C            0.806181715292    -0.046016530621    -0.085777293347    12.000000000000
         C           -1.481676284708     0.407102469379    -1.075903293347    12.000000000000
         C            1.097728715292     1.350036469379     0.385337706653    12.000000000000
         C            1.771357715292    -0.921547530621    -0.399642293347    12.000000000000
         H           -0.685356284708    -1.503900530621    -0.514463293347     1.007825032230
         H           -1.071122284708     0.406577469379    -2.089312293347     1.007825032230
         H           -2.505139284708     0.026369469379    -1.104703293347     1.007825032230
         H           -1.509539284708     1.430899469379    -0.699694293347     1.007825032230
         H            0.560293715292     1.551973469379     1.318644706653     1.007825032230
         H            2.169473715292     1.493121469379     0.552190706653     1.007825032230
         H            0.764671715292     2.094797469379    -0.346096293347     1.007825032230
         H            1.537114715292    -1.923822530621    -0.745673293347     1.007825032230
         H            2.823156715292    -0.657851530621    -0.350004293347     1.007825032230
         H           -0.670929584708    -0.983685030621     1.798355106653     1.007825032230

  Basis Set: AUG-CC-PVTZ
    Blend: AUG-CC-PVTZ
  Basis Set: (AUG-CC-PVTZ AUX)
    Blend: AUG-CC-PVTZ-JKFIT
	 Reference Energy          =    -270.0886361698711085 [Eh]
	 Singles Energy            =      -0.0000000000000000 [Eh]
	 Same-Spin Energy          =      -0.2768328418899635 [Eh]
	 Opposite-Spin Energy      =      -0.9539280454810319 [Eh]
	 Correlation Energy        =      -1.2307608873709954 [Eh]
	 Total Energy              =    -271.3193970572420994 [Eh]

	 ================> DF-SCS-MP2 Energies <==================
	-----------------------------------------------------------
	 SCS Same-Spin Scale       =       0.3333333333333333 [-]
	 SCS Opposite-Spin Scale   =       1.2000000000000000 [-]
	 SCS Same-Spin Energy      =      -0.0922776139633212 [Eh]
	 SCS Opposite-Spin Energy  =      -1.1447136545772383 [Eh]
	 SCS Correlation Energy    =      -1.2369912685405595 [Eh]
	 SCS Total Energy          =    -271.3256274384116864 [Eh]
	-----------------------------------------------------------

  Dipole Moment: [D]
     X:     1.1291      Y:    -0.4731      Z:    -0.3276     Total:     1.2673

*** Psi4 exiting successfully. Buy a developer a beer!
