                               Psi4 1.3.2 release

  ==> Input File <==

--------------------------------------------------------------------------
#psi4
#
memory 32 gb

molecule  {
0 1
  O       -1.2523610    -0.3679540     1.1390180
  C       -0.6765439    -0.4320991    -0.1752331
  C        0.8068160    -0.0466880    -0.0850580
  C       -1.4810420     0.4064310    -1.0751840
  C        1.0983630     1.3493650     0.3860570
  C        1.7719920    -0.9222190    -0.3989230
  H       -0.6847220    -1.5045720    -0.5137440
  H       -1.0704880     0.4059060    -2.0885930
  H       -2.5045050     0.0256980    -1.1039840
  H       -1.5089050     1.4302280    -0.6989750
  H        0.5609280     1.5513020     1.3193640
  H        2.1701080     1.4924500     0.5529100
  H        0.7653060     2.0941260    -0.3453770
  H        1.5377490    -1.9244940    -0.7449540
  H        2.8237910    -0.6585230    -0.3492850
  H       -0.7453854    -0.9184697     1.7630747
units angstrom
no_reorient  #important for SAPT in psi4, default
symmetry c1  #important for SAPT in psi4, default
}

set PROPERTIES_ORIGIN ["COM"]
properties('MP2/aug-cc-pvtz', properties = ['dipole'])
--------------------------------------------------------------------------

    Molecular point group: c1
  Charge       = 0
  Multiplicity = 1
  Basis Set: AUG-CC-PVTZ
    Blend: AUG-CC-PVTZ
  Basis Set: (AUG-CC-PVTZ AUX)
    Blend: AUG-CC-PVTZ-JKFIT

    Orbital Energies [Eh]
    ---------------------

    Doubly Occupied:

       1A    -20.556089     2A    -11.286513     3A    -11.242244
       4A    -11.221556     5A    -11.220249     6A    -11.213753
       7A     -1.355163     8A     -1.091444     9A     -1.009543
      10A     -0.936603    11A     -0.842321    12A     -0.734771
      13A     -0.690634    14A     -0.648905    15A     -0.597976
      16A     -0.590856    17A     -0.564994    18A     -0.550157
      19A     -0.538881    20A     -0.521881    21A     -0.510150
      22A     -0.479632    23A     -0.431037    24A     -0.358539

  @DF-RHF Final Energy:  -270.09937935318925

   => Energetics <=

    Nuclear Repulsion Energy =            245.4856823024401820
    One-Electron Energy =                -852.7823458358072912
    Two-Electron Energy =                 337.1972841801778600
    Total Energy =                       -270.0993793531892493
  Basis Set: (AUG-CC-PVTZ AUX)
    Blend: AUG-CC-PVTZ-RI
    Molecular point group: c1

    Geometry (in Angstrom), charge = 0, multiplicity = 1:

       Center              X                  Y                   Z               Mass
    ------------   -----------------  -----------------  -----------------  -----------------
         O           -1.247225908355    -0.372384389797     1.141207425055    15.994914619570
         C           -0.671408808355    -0.436529489797    -0.173043674945    12.000000000000
         C            0.811951091645    -0.051118389797    -0.082868574945    12.000000000000
         C           -1.475906908355     0.402000610203    -1.072994574945    12.000000000000
         C            1.103498091645     1.344934610203     0.388246425055    12.000000000000
         C            1.777127091645    -0.926649389797    -0.396733574945    12.000000000000
         H           -0.679586908355    -1.509002389797    -0.511554574945     1.007825032230
         H           -1.065352908355     0.401475610203    -2.086403574945     1.007825032230
         H           -2.499369908355     0.021267610203    -1.101794574945     1.007825032230
         H           -1.503769908355     1.425797610203    -0.696785574945     1.007825032230
         H            0.566063091645     1.546871610203     1.321553425055     1.007825032230
         H            2.175243091645     1.488019610203     0.555099425055     1.007825032230
         H            0.770441091645     2.089695610203    -0.343187574945     1.007825032230
         H            1.542884091645    -1.928924389797    -0.742764574945     1.007825032230
         H            2.828926091645    -0.662953389797    -0.347095574945     1.007825032230
         H           -0.740250308355    -0.922900089797     1.765264125055     1.007825032230

  Basis Set: AUG-CC-PVTZ
    Blend: AUG-CC-PVTZ
  Basis Set: (AUG-CC-PVTZ AUX)
    Blend: AUG-CC-PVTZ-JKFIT
	 Reference Energy          =    -270.0993793531892493 [Eh]
	 Singles Energy            =      -0.0000000000000000 [Eh]
	 Same-Spin Energy          =      -0.2757139324458293 [Eh]
	 Opposite-Spin Energy      =      -0.9505063487872920 [Eh]
	 Correlation Energy        =      -1.2262202812331213 [Eh]
	 Total Energy              =    -271.3255996344223604 [Eh]

	 ================> DF-SCS-MP2 Energies <==================
	-----------------------------------------------------------
	 SCS Same-Spin Scale       =       0.3333333333333333 [-]
	 SCS Opposite-Spin Scale   =       1.2000000000000000 [-]
	 SCS Same-Spin Energy      =      -0.0919046441486098 [Eh]
	 SCS Opposite-Spin Energy  =      -1.1406076185447505 [Eh]
	 SCS Correlation Energy    =      -1.2325122626933602 [Eh]
	 SCS Total Energy          =    -271.3318916158826255 [Eh]
	-----------------------------------------------------------

  Dipole Moment: [D]
     X:     1.0208      Y:    -0.3888      Z:    -0.3954     Total:     1.1617

*** Psi4 exiting successfully. Buy a developer a beer!
