                               Psi4 1.3.2 release

  ==> Input File <==

--------------------------------------------------------------------------
#psi4
#
memory 32 gb

molecule  {
0 1
  O       -1.2523610    -0.3679540     1.1390180
  C       -0.6943477    -0.4165370    -0.1835540
  C        0.8068160    -0.0466880    -0.0850580
  C       -1.4810420     0.4064310    -1.0751840
  C        1.0983630     1.3493650     0.3860570
  C        1.7719920    -0.9222190    -0.3989230
  H       -0.6847220    -1.5045720    -0.5137440
  H       -1.0704880     0.4059060    -2.0885930
  H       -2.5045050     0.0256980    -1.1039840
  H       -1.5089050     1.4302280    -0.6989750
  H        0.5609280     1.5513020     1.3193640
  H        2.1701080     1.4924500     0.5529100
  H        0.7653060     2.0941260    -0.3453770
  H        1.5377490    -1.9244940    -0.7449540
  H        2.8237910    -0.6585230    -0.3492850
  H       -0.7560769    -0.9139588     1.7755079
units angstrom
no_reorient  #important for SAPT in psi4, default
symmetry c1  #important for SAPT in psi4, default
}

set PROPERTIES_ORIGIN ["COM"]
properties('MP2/aug-cc-pvtz', properties = ['dipole'])
--------------------------------------------------------------------------

    Molecular point group: c1
  Charge       = 0
  Multiplicity = 1
  Basis Set: AUG-CC-PVTZ
    Blend: AUG-CC-PVTZ
  Basis Set: (AUG-CC-PVTZ AUX)
    Blend: AUG-CC-PVTZ-JKFIT

    Orbital Energies [Eh]
    ---------------------

    Doubly Occupied:

       1A    -20.555131     2A    -11.287944     3A    -11.242482
       4A    -11.220954     5A    -11.219718     6A    -11.213498
       7A     -1.354100     8A     -1.090863     9A     -1.015064
      10A     -0.935746    11A     -0.840249    12A     -0.735020
      13A     -0.689928    14A     -0.648620    15A     -0.599711
      16A     -0.590107    17A     -0.565547    18A     -0.550823
      19A     -0.543048    20A     -0.520994    21A     -0.509659
      22A     -0.478751    23A     -0.426004    24A     -0.358103

  @DF-RHF Final Energy:  -270.09546474206013

   => Energetics <=

    Nuclear Repulsion Energy =            245.4795792588164431
    One-Electron Energy =                -852.7659600166928158
    Two-Electron Energy =                 337.1909160158162422
    Total Energy =                       -270.0954647420601304
  Basis Set: (AUG-CC-PVTZ AUX)
    Blend: AUG-CC-PVTZ-RI
    Molecular point group: c1

    Geometry (in Angstrom), charge = 0, multiplicity = 1:

       Center              X                  Y                   Z               Mass
    ------------   -----------------  -----------------  -----------------  -----------------
         O           -1.244618582814    -0.374606817636     1.142221914413    15.994914619570
         C           -0.686605282814    -0.423189817636    -0.180350085587    12.000000000000
         C            0.814558417186    -0.053340817636    -0.081854085587    12.000000000000
         C           -1.473299582814     0.399778182364    -1.071980085587    12.000000000000
         C            1.106105417186     1.342712182364     0.389260914413    12.000000000000
         C            1.779734417186    -0.928871817636    -0.395719085587    12.000000000000
         H           -0.676979582814    -1.511224817636    -0.510540085587     1.007825032230
         H           -1.062745582814     0.399253182364    -2.085389085587     1.007825032230
         H           -2.496762582814     0.019045182364    -1.100780085587     1.007825032230
         H           -1.501162582814     1.423575182364    -0.695771085587     1.007825032230
         H            0.568670417186     1.544649182364     1.322567914413     1.007825032230
         H            2.177850417186     1.485797182364     0.556113914413     1.007825032230
         H            0.773048417186     2.087473182364    -0.342173085587     1.007825032230
         H            1.545491417186    -1.931146817636    -0.741750085587     1.007825032230
         H            2.831533417186    -0.665175817636    -0.346081085587     1.007825032230
         H           -0.748334482814    -0.920611617636     1.778711814413     1.007825032230

  Basis Set: AUG-CC-PVTZ
    Blend: AUG-CC-PVTZ
  Basis Set: (AUG-CC-PVTZ AUX)
    Blend: AUG-CC-PVTZ-JKFIT
	 Reference Energy          =    -270.0954647420601304 [Eh]
	 Singles Energy            =      -0.0000000000000000 [Eh]
	 Same-Spin Energy          =      -0.2758475909205518 [Eh]
	 Opposite-Spin Energy      =      -0.9506318562676999 [Eh]
	 Correlation Energy        =      -1.2264794471882516 [Eh]
	 Total Energy              =    -271.3219441892483701 [Eh]

	 ================> DF-SCS-MP2 Energies <==================
	-----------------------------------------------------------
	 SCS Same-Spin Scale       =       0.3333333333333333 [-]
	 SCS Opposite-Spin Scale   =       1.2000000000000000 [-]
	 SCS Same-Spin Energy      =      -0.0919491969735172 [Eh]
	 SCS Opposite-Spin Energy  =      -1.1407582275212398 [Eh]
	 SCS Correlation Energy    =      -1.2327074244947571 [Eh]
	 SCS Total Energy          =    -271.3281721665549071 [Eh]
	-----------------------------------------------------------

  Dipole Moment: [D]
     X:     0.9715      Y:    -0.3603      Z:    -0.4042     Total:     1.1122

*** Psi4 exiting successfully. Buy a developer a beer!
