                               Psi4 1.3.2 release

  ==> Input File <==

--------------------------------------------------------------------------
#psi4
#
memory 32 gb

molecule  {
0 1
  O       -1.2523610    -0.3679540     1.1390180
  C       -0.6414680    -0.4631600    -0.1573930
  C        0.8068160    -0.0466880    -0.0850580
  C       -1.4810420     0.4064310    -1.0751840
  C        1.0467706     1.3578948     0.3897913
  C        1.7389522    -0.9537316    -0.4091331
  H       -0.6847220    -1.5045720    -0.5137440
  H       -1.0704880     0.4059060    -2.0885930
  H       -2.5045050     0.0256980    -1.1039840
  H       -1.5089050     1.4302280    -0.6989750
  H        0.5609280     1.5513020     1.3193640
  H        2.1701080     1.4924500     0.5529100
  H        0.7653060     2.0941260    -0.3453770
  H        1.5377490    -1.9244940    -0.7449540
  H        2.8237910    -0.6585230    -0.3492850
  H       -0.7244690    -0.9269870     1.7376420
units angstrom
no_reorient  #important for SAPT in psi4, default
symmetry c1  #important for SAPT in psi4, default
}

set PROPERTIES_ORIGIN ["COM"]
properties('MP2/aug-cc-pvtz', properties = ['dipole'])
--------------------------------------------------------------------------

    Molecular point group: c1
  Charge       = 0
  Multiplicity = 1
  Basis Set: AUG-CC-PVTZ
    Blend: AUG-CC-PVTZ
  Basis Set: (AUG-CC-PVTZ AUX)
    Blend: AUG-CC-PVTZ-JKFIT

    Orbital Energies [Eh]
    ---------------------

    Doubly Occupied:

       1A    -20.557215     2A    -11.281783     3A    -11.242665
       4A    -11.224412     5A    -11.223316     6A    -11.213380
       7A     -1.356810     8A     -1.093864     9A     -0.996931
      10A     -0.943147    11A     -0.844075    12A     -0.735395
      13A     -0.691760    14A     -0.653993    15A     -0.596354
      16A     -0.589354    17A     -0.570616    18A     -0.543677
      19A     -0.532671    20A     -0.521893    21A     -0.514470
      22A     -0.474189    23A     -0.436239    24A     -0.361252

  @DF-RHF Final Energy:  -270.09614832086714

   => Energetics <=

    Nuclear Repulsion Energy =            245.8220134309489708
    One-Electron Energy =                -853.4374048262199040
    Two-Electron Energy =                 337.5192430744038461
    Total Energy =                       -270.0961483208671439
  Basis Set: (AUG-CC-PVTZ AUX)
    Blend: AUG-CC-PVTZ-RI
    Molecular point group: c1

    Geometry (in Angstrom), charge = 0, multiplicity = 1:

       Center              X                  Y                   Z               Mass
    ------------   -----------------  -----------------  -----------------  -----------------
         O           -1.240561862379    -0.364750089971     1.139920846498    15.994914619570
         C           -0.629668862379    -0.459956089971    -0.156490153502    12.000000000000
         C            0.818615137621    -0.043484089971    -0.084155153502    12.000000000000
         C           -1.469242862379     0.409634910029    -1.074281153502    12.000000000000
         C            1.058569737621     1.361098710029     0.390694146498    12.000000000000
         C            1.750751337621    -0.950527689971    -0.408230253502    12.000000000000
         H           -0.672922862379    -1.501368089971    -0.512841153502     1.007825032230
         H           -1.058688862379     0.409109910029    -2.087690153502     1.007825032230
         H           -2.492705862379     0.028901910029    -1.103081153502     1.007825032230
         H           -1.497105862379     1.433431910029    -0.698072153502     1.007825032230
         H            0.572727137621     1.554505910029     1.320266846498     1.007825032230
         H            2.181907137621     1.495653910029     0.553812846498     1.007825032230
         H            0.777105137621     2.097329910029    -0.344474153502     1.007825032230
         H            1.549548137621    -1.921290089971    -0.744051153502     1.007825032230
         H            2.835590137621    -0.655319089971    -0.348382153502     1.007825032230
         H           -0.712669862379    -0.923783089971     1.738544846498     1.007825032230

  Basis Set: AUG-CC-PVTZ
    Blend: AUG-CC-PVTZ
  Basis Set: (AUG-CC-PVTZ AUX)
    Blend: AUG-CC-PVTZ-JKFIT
	 Reference Energy          =    -270.0961483208671439 [Eh]
	 Singles Energy            =      -0.0000000000000000 [Eh]
	 Same-Spin Energy          =      -0.2758284732345516 [Eh]
	 Opposite-Spin Energy      =      -0.9510733057706082 [Eh]
	 Correlation Energy        =      -1.2269017790051597 [Eh]
	 Total Energy              =    -271.3230500998723187 [Eh]

	 ================> DF-SCS-MP2 Energies <==================
	-----------------------------------------------------------
	 SCS Same-Spin Scale       =       0.3333333333333333 [-]
	 SCS Opposite-Spin Scale   =       1.2000000000000000 [-]
	 SCS Same-Spin Energy      =      -0.0919428244115172 [Eh]
	 SCS Opposite-Spin Energy  =      -1.1412879669247298 [Eh]
	 SCS Correlation Energy    =      -1.2332307913362470 [Eh]
	 SCS Total Energy          =    -271.3293791122034122 [Eh]
	-----------------------------------------------------------

  Dipole Moment: [D]
     X:     1.1011      Y:    -0.4489      Z:    -0.3815     Total:     1.2488

*** Psi4 exiting successfully. Buy a developer a beer!
