                               Psi4 1.4a3.dev225

  ==> Input File <==

--------------------------------------------------------------------------
#psi4
#
memory 32 gb

molecule  {
0 1
  O       -1.2433940    -0.3366800     1.2074370
  C       -0.6640150    -0.4819890    -0.1009900
  C        0.7919130    -0.0810760    -0.0782340
  C       -1.5159190     0.3706220    -1.0242050
  C        1.1030690     1.3392670     0.3065330
  C        1.7588042    -0.9966588    -0.3647855
  H       -0.7308000    -1.5333880    -0.4224710
  H       -1.1307760     0.3301940    -2.0469120
  H       -2.5455460     0.0047250    -1.0155750
  H       -1.5200810     1.4081240    -0.6829090
  H        0.5415810     1.6180770     1.2025330
  H        2.1707320     1.4680310     0.5024970
  H        0.8184500     2.0371770    -0.4879450
  H        1.4952160    -2.0048880    -0.6345440
  H        2.8007100    -0.7292190    -0.3378150
  H       -0.7102690    -0.8870460     1.8084860
units angstrom
no_reorient  #important for SAPT in psi4, default
symmetry c1  #important for SAPT in psi4, default
}

set PROPERTIES_ORIGIN ["COM"]
properties('MP2/aug-cc-pvtz', properties = ['dipole'])
--------------------------------------------------------------------------

    Molecular point group: c1
  Charge       = 0
  Multiplicity = 1
  Basis Set: AUG-CC-PVTZ
    Blend: AUG-CC-PVTZ
  Basis Set: (AUG-CC-PVTZ AUX)
    Blend: AUG-CC-PVTZ-JKFIT

    Orbital Energies [Eh]
    ---------------------

    Doubly Occupied:

       1A    -20.558180     2A    -11.285007     3A    -11.246031
       4A    -11.224312     5A    -11.221438     6A    -11.214655
       7A     -1.357032     8A     -1.090185     9A     -0.998049
      10A     -0.937991    11A     -0.847056    12A     -0.735187
      13A     -0.691491    14A     -0.648792    15A     -0.599081
      16A     -0.590548    17A     -0.564453    18A     -0.548885
      19A     -0.531206    20A     -0.524460    21A     -0.512221
      22A     -0.479106    23A     -0.441095    24A     -0.354559

  @DF-RHF Final Energy:  -270.10073921494427

   => Energetics <=

    Nuclear Repulsion Energy =            244.9779643229997248
    One-Electron Energy =                -851.7553660629093883
    Two-Electron Energy =                 336.6766625249654226
    Total Energy =                       -270.1007392149442694
  Basis Set: (AUG-CC-PVTZ AUX)
    Blend: AUG-CC-PVTZ-RI
    Molecular point group: c1

    Geometry (in Angstrom), charge = 0, multiplicity = 1:

       Center              X                  Y                   Z               Mass
    ------------   -----------------  -----------------  -----------------  -----------------
         O           -1.231738429907    -0.315093670894     1.183719137628    15.994914619570
         C           -0.652359429907    -0.460402670894    -0.124707862372    12.000000000000
         C            0.803568570093    -0.059489670894    -0.101951862372    12.000000000000
         C           -1.504263429907     0.392208329106    -1.047922862372    12.000000000000
         C            1.114724570093     1.360853329106     0.282815137628    12.000000000000
         C            1.770459770093    -0.975072470894    -0.388503362372    12.000000000000
         H           -0.719144429907    -1.511801670894    -0.446188862372     1.007825032230
         H           -1.119120429907     0.351780329106    -2.070629862372     1.007825032230
         H           -2.533890429907     0.026311329106    -1.039292862372     1.007825032230
         H           -1.508425429907     1.429710329106    -0.706626862372     1.007825032230
         H            0.553236570093     1.639663329106     1.178815137628     1.007825032230
         H            2.182387570093     1.489617329106     0.478779137628     1.007825032230
         H            0.830105570093     2.058763329106    -0.511662862372     1.007825032230
         H            1.506871570093    -1.983301670894    -0.658261862372     1.007825032230
         H            2.812365570093    -0.707632670894    -0.361532862372     1.007825032230
         H           -0.698613429907    -0.865459670894     1.784768137628     1.007825032230

  Basis Set: AUG-CC-PVTZ
    Blend: AUG-CC-PVTZ
  Basis Set: (AUG-CC-PVTZ AUX)
    Blend: AUG-CC-PVTZ-JKFIT
	 Reference Energy          =    -270.1007392149442694 [Eh]
	 Singles Energy            =      -0.0000000000000000 [Eh]
	 Same-Spin Energy          =      -0.2757881551174821 [Eh]
	 Opposite-Spin Energy      =      -0.9511499856040014 [Eh]
	 Correlation Energy        =      -1.2269381407214834 [Eh]
	 Total Energy              =    -271.3276773556657417 [Eh]

	 ================> DF-SCS-MP2 Energies <==================
	-----------------------------------------------------------
	 SCS Same-Spin Scale       =       0.3333333333333333 [-]
	 SCS Opposite-Spin Scale   =       1.2000000000000000 [-]
	 SCS Same-Spin Energy      =      -0.0919293850391607 [Eh]
	 SCS Opposite-Spin Energy  =      -1.1413799827248017 [Eh]
	 SCS Correlation Energy    =      -1.2333093677639624 [Eh]
	 SCS Total Energy          =    -271.3340485827082489 [Eh]
	-----------------------------------------------------------

  Dipole Moment: [D]
     X:     1.0955      Y:    -0.4614      Z:    -0.3951     Total:     1.2526

*** Psi4 exiting successfully. Buy a developer a beer!
