                               Psi4 1.3.2 release

  ==> Input File <==

--------------------------------------------------------------------------
#psi4
#
memory 32 gb

molecule  {
0 1
  O       -1.2523610    -0.3679540     1.1390180
  C       -0.6414680    -0.4631600    -0.1573930
  C        0.9988056     0.0085210    -0.0754690
  C       -1.4810420     0.4064310    -1.0751840
  C        1.0983630     1.3493650     0.3860570
  C        1.7719920    -0.9222190    -0.3989230
  H       -0.6847220    -1.5045720    -0.5137440
  H       -1.0704880     0.4059060    -2.0885930
  H       -2.5045050     0.0256980    -1.1039840
  H       -1.5089050     1.4302280    -0.6989750
  H        0.5609280     1.5513020     1.3193640
  H        2.1701080     1.4924500     0.5529100
  H        0.7653060     2.0941260    -0.3453770
  H        1.5377490    -1.9244940    -0.7449540
  H        2.8237910    -0.6585230    -0.3492850
  H       -0.7244690    -0.9269870     1.7376420
units angstrom
no_reorient  #important for SAPT in psi4, default
symmetry c1  #important for SAPT in psi4, default
}

set PROPERTIES_ORIGIN ["COM"]
properties('MP2/aug-cc-pvtz', properties = ['dipole'])
--------------------------------------------------------------------------

    Molecular point group: c1
  Charge       = 0
  Multiplicity = 1
  Basis Set: AUG-CC-PVTZ
    Blend: AUG-CC-PVTZ
  Basis Set: (AUG-CC-PVTZ AUX)
    Blend: AUG-CC-PVTZ-JKFIT

    Orbital Energies [Eh]
    ---------------------

    Doubly Occupied:

       1A    -20.556206     2A    -11.285667     3A    -11.234522
       4A    -11.221035     5A    -11.211127     6A    -11.210952
       7A     -1.351645     8A     -1.103174     9A     -0.997996
      10A     -0.959920    11A     -0.821708    12A     -0.725975
      13A     -0.689184    14A     -0.651985    15A     -0.604081
      16A     -0.589912    17A     -0.567780    18A     -0.559021
      19A     -0.542030    20A     -0.527486    21A     -0.513302
      22A     -0.466313    23A     -0.390428    24A     -0.381956

  @DF-RHF Final Energy:  -270.06630736993048

   => Energetics <=

    Nuclear Repulsion Energy =            244.5491575137527036
    One-Electron Energy =                -850.9041211829359099
    Two-Electron Energy =                 336.2886562992527502
    Total Energy =                       -270.0663073699304846
  Basis Set: (AUG-CC-PVTZ AUX)
    Blend: AUG-CC-PVTZ-RI
    Molecular point group: c1

    Geometry (in Angstrom), charge = 0, multiplicity = 1:

       Center              X                  Y                   Z               Mass
    ------------   -----------------  -----------------  -----------------  -----------------
         O           -1.279127443210    -0.375651299432     1.137681151930    15.994914619570
         C           -0.668234443210    -0.470857299432    -0.158729848070    12.000000000000
         C            0.972039156790     0.000823700568    -0.076805848070    12.000000000000
         C           -1.507808443210     0.398733700568    -1.076520848070    12.000000000000
         C            1.071596556790     1.341667700568     0.384720151930    12.000000000000
         C            1.745225556790    -0.929916299432    -0.400259848070    12.000000000000
         H           -0.711488443210    -1.512269299432    -0.515080848070     1.007825032230
         H           -1.097254443210     0.398208700568    -2.089929848070     1.007825032230
         H           -2.531271443210     0.018000700568    -1.105320848070     1.007825032230
         H           -1.535671443210     1.422530700568    -0.700311848070     1.007825032230
         H            0.534161556790     1.543604700568     1.318027151930     1.007825032230
         H            2.143341556790     1.484752700568     0.551573151930     1.007825032230
         H            0.738539556790     2.086428700568    -0.346713848070     1.007825032230
         H            1.510982556790    -1.932191299432    -0.746290848070     1.007825032230
         H            2.797024556790    -0.666220299432    -0.350621848070     1.007825032230
         H           -0.751235443210    -0.934684299432     1.736305151930     1.007825032230

  Basis Set: AUG-CC-PVTZ
    Blend: AUG-CC-PVTZ
  Basis Set: (AUG-CC-PVTZ AUX)
    Blend: AUG-CC-PVTZ-JKFIT
	 Reference Energy          =    -270.0663073699304846 [Eh]
	 Singles Energy            =      -0.0000000000000000 [Eh]
	 Same-Spin Energy          =      -0.2760816256870772 [Eh]
	 Opposite-Spin Energy      =      -0.9508893662876718 [Eh]
	 Correlation Energy        =      -1.2269709919747491 [Eh]
	 Total Energy              =    -271.2932783619052088 [Eh]

	 ================> DF-SCS-MP2 Energies <==================
	-----------------------------------------------------------
	 SCS Same-Spin Scale       =       0.3333333333333333 [-]
	 SCS Opposite-Spin Scale   =       1.2000000000000000 [-]
	 SCS Same-Spin Energy      =      -0.0920272085623590 [Eh]
	 SCS Opposite-Spin Energy  =      -1.1410672395452062 [Eh]
	 SCS Correlation Energy    =      -1.2330944481075652 [Eh]
	 SCS Total Energy          =    -271.2994018180380635 [Eh]
	-----------------------------------------------------------

  Dipole Moment: [D]
     X:     1.1265      Y:    -0.3826      Z:    -0.3111     Total:     1.2297

*** Psi4 exiting successfully. Buy a developer a beer!
