                               Psi4 1.4a3.dev225

  ==> Input File <==

--------------------------------------------------------------------------
#psi4
#
memory 32 gb

molecule  {
0 1
  O       -1.2433940    -0.3366800     1.2074370
  C       -0.6640150    -0.4819890    -0.1009900
  C        0.7919130    -0.0810760    -0.0782340
  C       -1.5159190     0.3706220    -1.0242050
  C        1.1030690     1.3392670     0.3065330
  C        1.7446070    -0.9832150    -0.3605780
  H       -0.7308000    -1.5333880    -0.4224710
  H       -1.1307760     0.3301940    -2.0469120
  H       -2.5455460     0.0047250    -1.0155750
  H       -1.5200810     1.4081240    -0.6829090
  H        0.5415810     1.6180770     1.2025330
  H        2.1707320     1.4680310     0.5024970
  H        0.8184500     2.0371770    -0.4879450
  H        1.4952160    -2.0048880    -0.6345440
  H        2.8007100    -0.7292190    -0.3378150
  H       -0.6993202    -0.8983489     1.8208298
units angstrom
no_reorient  #important for SAPT in psi4, default
symmetry c1  #important for SAPT in psi4, default
}

set PROPERTIES_ORIGIN ["COM"]
properties('MP2/aug-cc-pvtz', properties = ['dipole'])
--------------------------------------------------------------------------

    Molecular point group: c1
  Charge       = 0
  Multiplicity = 1
  Basis Set: AUG-CC-PVTZ
    Blend: AUG-CC-PVTZ
  Basis Set: (AUG-CC-PVTZ AUX)
    Blend: AUG-CC-PVTZ-JKFIT

    Orbital Energies [Eh]
    ---------------------

    Doubly Occupied:

       1A    -20.559770     2A    -11.284459     3A    -11.242516
       4A    -11.223369     5A    -11.220917     6A    -11.214407
       7A     -1.352704     8A     -1.092271     9A     -0.997897
      10A     -0.938329    11A     -0.845585    12A     -0.733047
      13A     -0.688653    14A     -0.649333    15A     -0.596982
      16A     -0.590397    17A     -0.563949    18A     -0.548521
      19A     -0.530409    20A     -0.523425    21A     -0.510710
      22A     -0.477920    23A     -0.439966    24A     -0.358876

  @DF-RHF Final Energy:  -270.10041508352958

   => Energetics <=

    Nuclear Repulsion Energy =            245.2174651790469397
    One-Electron Energy =                -852.2669345137583150
    Two-Electron Energy =                 336.9490542511817921
    Total Energy =                       -270.1004150835295832
  Basis Set: (AUG-CC-PVTZ AUX)
    Blend: AUG-CC-PVTZ-RI
    Molecular point group: c1

    Geometry (in Angstrom), charge = 0, multiplicity = 1:

       Center              X                  Y                   Z               Mass
    ------------   -----------------  -----------------  -----------------  -----------------
         O           -1.229887307953    -0.316835610493     1.182988010910    15.994914619570
         C           -0.650508307953    -0.462144610493    -0.125438989090    12.000000000000
         C            0.805419692047    -0.061231610493    -0.102682989090    12.000000000000
         C           -1.502412307953     0.390466389507    -1.048653989090    12.000000000000
         C            1.116575692047     1.359111389507     0.282084010910    12.000000000000
         C            1.758113692047    -0.963370610493    -0.385026989090    12.000000000000
         H           -0.717293307953    -1.513543610493    -0.446919989090     1.007825032230
         H           -1.117269307953     0.350038389507    -2.071360989090     1.007825032230
         H           -2.532039307953     0.024569389507    -1.040023989090     1.007825032230
         H           -1.506574307953     1.427968389507    -0.707357989090     1.007825032230
         H            0.555087692047     1.637921389507     1.178084010910     1.007825032230
         H            2.184238692047     1.487875389507     0.478048010910     1.007825032230
         H            0.831956692047     2.057021389507    -0.512393989090     1.007825032230
         H            1.508722692047    -1.985043610493    -0.658992989090     1.007825032230
         H            2.814216692047    -0.709374610493    -0.362263989090     1.007825032230
         H           -0.685813507953    -0.878504510493     1.796380810910     1.007825032230

  Basis Set: AUG-CC-PVTZ
    Blend: AUG-CC-PVTZ
  Basis Set: (AUG-CC-PVTZ AUX)
    Blend: AUG-CC-PVTZ-JKFIT
	 Reference Energy          =    -270.1004150835295832 [Eh]
	 Singles Energy            =      -0.0000000000000000 [Eh]
	 Same-Spin Energy          =      -0.2758807527270700 [Eh]
	 Opposite-Spin Energy      =      -0.9513525880765193 [Eh]
	 Correlation Energy        =      -1.2272333408035894 [Eh]
	 Total Energy              =    -271.3276484243331765 [Eh]

	 ================> DF-SCS-MP2 Energies <==================
	-----------------------------------------------------------
	 SCS Same-Spin Scale       =       0.3333333333333333 [-]
	 SCS Opposite-Spin Scale   =       1.2000000000000000 [-]
	 SCS Same-Spin Energy      =      -0.0919602509090233 [Eh]
	 SCS Opposite-Spin Energy  =      -1.1416231056918231 [Eh]
	 SCS Correlation Energy    =      -1.2335833566008465 [Eh]
	 SCS Total Energy          =    -271.3339984401304150 [Eh]
	-----------------------------------------------------------

  Dipole Moment: [D]
     X:     1.1064      Y:    -0.4793      Z:    -0.3859     Total:     1.2660

*** Psi4 exiting successfully. Buy a developer a beer!
