                               Psi4 1.3.2 release

  ==> Input File <==

--------------------------------------------------------------------------
#psi4
#
memory 32 gb

molecule  {
0 1
  O       -1.2523610    -0.3679540     1.1390180
  C       -0.6414680    -0.4631600    -0.1573930
  C        0.8068160    -0.0466880    -0.0850580
  C       -1.4810420     0.4064310    -1.0751840
  C        1.0983630     1.3493650     0.3860570
  C        1.6999846    -0.8568996    -0.3755070
  H       -0.6847220    -1.5045720    -0.5137440
  H       -1.0704880     0.4059060    -2.0885930
  H       -2.5045050     0.0256980    -1.1039840
  H       -1.5089050     1.4302280    -0.6989750
  H        0.5609280     1.5513020     1.3193640
  H        2.1701080     1.4924500     0.5529100
  H        0.7653060     2.0941260    -0.3453770
  H        1.5377490    -1.9244940    -0.7449540
  H        2.8237910    -0.6585230    -0.3492850
  H       -0.7244690    -0.9269870     1.7376420
units angstrom
no_reorient  #important for SAPT in psi4, default
symmetry c1  #important for SAPT in psi4, default
}

set PROPERTIES_ORIGIN ["COM"]
properties('MP2/aug-cc-pvtz', properties = ['dipole'])
--------------------------------------------------------------------------

    Molecular point group: c1
  Charge       = 0
  Multiplicity = 1
  Basis Set: AUG-CC-PVTZ
    Blend: AUG-CC-PVTZ
  Basis Set: (AUG-CC-PVTZ AUX)
    Blend: AUG-CC-PVTZ-JKFIT

    Orbital Energies [Eh]
    ---------------------

    Doubly Occupied:

       1A    -20.557425     2A    -11.282941     3A    -11.224121
       4A    -11.219653     5A    -11.218205     6A    -11.213426
       7A     -1.356952     8A     -1.110607     9A     -1.001804
      10A     -0.941118    11A     -0.842477    12A     -0.729757
      13A     -0.691844    14A     -0.653551    15A     -0.594655
      16A     -0.592089    17A     -0.563798    18A     -0.547828
      19A     -0.530500    20A     -0.520293    21A     -0.504364
      22A     -0.471395    23A     -0.434365    24A     -0.383308

  @DF-RHF Final Energy:  -270.08769948688365

   => Energetics <=

    Nuclear Repulsion Energy =            247.4053876004698225
    One-Electron Energy =                -856.6132274756657807
    Two-Electron Energy =                 339.1201403883123362
    Total Energy =                       -270.0876994868836505
  Basis Set: (AUG-CC-PVTZ AUX)
    Blend: AUG-CC-PVTZ-RI
    Molecular point group: c1

    Geometry (in Angstrom), charge = 0, multiplicity = 1:

       Center              X                  Y                   Z               Mass
    ------------   -----------------  -----------------  -----------------  -----------------
         O           -1.242321964962    -0.377060853735     1.135753443101    15.994914619570
         C           -0.631428964962    -0.472266853735    -0.160657556899    12.000000000000
         C            0.816855035038    -0.055794853735    -0.088322556899    12.000000000000
         C           -1.471002964962     0.397324146265    -1.078448556899    12.000000000000
         C            1.108402035038     1.340258146265     0.382792443101    12.000000000000
         C            1.710023635038    -0.866006453735    -0.378771556899    12.000000000000
         H           -0.674682964962    -1.513678853735    -0.517008556899     1.007825032230
         H           -1.060448964962     0.396799146265    -2.091857556899     1.007825032230
         H           -2.494465964962     0.016591146265    -1.107248556899     1.007825032230
         H           -1.498865964962     1.421121146265    -0.702239556899     1.007825032230
         H            0.570967035038     1.542195146265     1.316099443101     1.007825032230
         H            2.180147035038     1.483343146265     0.549645443101     1.007825032230
         H            0.775345035038     2.085019146265    -0.348641556899     1.007825032230
         H            1.547788035038    -1.933600853735    -0.748218556899     1.007825032230
         H            2.833830035038    -0.667629853735    -0.352549556899     1.007825032230
         H           -0.714429964962    -0.936093853735     1.734377443101     1.007825032230

  Basis Set: AUG-CC-PVTZ
    Blend: AUG-CC-PVTZ
  Basis Set: (AUG-CC-PVTZ AUX)
    Blend: AUG-CC-PVTZ-JKFIT
	 Reference Energy          =    -270.0876994868836505 [Eh]
	 Singles Energy            =      -0.0000000000000000 [Eh]
	 Same-Spin Energy          =      -0.2753627369380267 [Eh]
	 Opposite-Spin Energy      =      -0.9492614275206920 [Eh]
	 Correlation Energy        =      -1.2246241644587186 [Eh]
	 Total Energy              =    -271.3123236513423535 [Eh]

	 ================> DF-SCS-MP2 Energies <==================
	-----------------------------------------------------------
	 SCS Same-Spin Scale       =       0.3333333333333333 [-]
	 SCS Opposite-Spin Scale   =       1.2000000000000000 [-]
	 SCS Same-Spin Energy      =      -0.0917875789793422 [Eh]
	 SCS Opposite-Spin Energy  =      -1.1391137130248303 [Eh]
	 SCS Correlation Energy    =      -1.2309012920041726 [Eh]
	 SCS Total Energy          =    -271.3186007788877987 [Eh]
	-----------------------------------------------------------

  Dipole Moment: [D]
     X:     1.1358      Y:    -0.4820      Z:    -0.3826     Total:     1.2918

*** Psi4 exiting successfully. Buy a developer a beer!
