                               Psi4 1.3.2 release

  ==> Input File <==

--------------------------------------------------------------------------
#psi4
#
memory 32 gb

molecule  {
0 1
  O       -1.2523610    -0.3679540     1.1390180
  C       -0.6259732    -0.5109964    -0.1730390
  C        0.8068160    -0.0466880    -0.0850580
  C       -1.4810420     0.4064310    -1.0751840
  C        1.0983630     1.3493650     0.3860570
  C        1.7389943    -0.9542203    -0.4076401
  H       -0.6847220    -1.5045720    -0.5137440
  H       -1.0704880     0.4059060    -2.0885930
  H       -2.5045050     0.0256980    -1.1039840
  H       -1.5089050     1.4302280    -0.6989750
  H        0.5609280     1.5513020     1.3193640
  H        2.1701080     1.4924500     0.5529100
  H        0.7653060     2.0941260    -0.3453770
  H        1.5377490    -1.9244940    -0.7449540
  H        2.8237910    -0.6585230    -0.3492850
  H       -0.7244690    -0.9269870     1.7376420
units angstrom
no_reorient  #important for SAPT in psi4, default
symmetry c1  #important for SAPT in psi4, default
}

set PROPERTIES_ORIGIN ["COM"]
properties('MP2/aug-cc-pvtz', properties = ['dipole'])
--------------------------------------------------------------------------

    Molecular point group: c1
  Charge       = 0
  Multiplicity = 1
  Basis Set: AUG-CC-PVTZ
    Blend: AUG-CC-PVTZ
  Basis Set: (AUG-CC-PVTZ AUX)
    Blend: AUG-CC-PVTZ-JKFIT

    Orbital Energies [Eh]
    ---------------------

    Doubly Occupied:

       1A    -20.555463     2A    -11.281677     3A    -11.242984
       4A    -11.224005     5A    -11.222652     6A    -11.214341
       7A     -1.348142     8A     -1.094070     9A     -0.993389
      10A     -0.942329    11A     -0.846874    12A     -0.736225
      13A     -0.690557    14A     -0.654981    15A     -0.589020
      16A     -0.586156    17A     -0.562834    18A     -0.549437
      19A     -0.529906    20A     -0.523589    21A     -0.513897
      22A     -0.475911    23A     -0.444639    24A     -0.358886

  @DF-RHF Final Energy:  -270.09574572456717

   => Energetics <=

    Nuclear Repulsion Energy =            245.1632364012227754
    One-Electron Energy =                -852.1540302147781176
    Two-Electron Energy =                 336.8950480889881760
    Total Energy =                       -270.0957457245671662
  Basis Set: (AUG-CC-PVTZ AUX)
    Blend: AUG-CC-PVTZ-RI
    Molecular point group: c1

    Geometry (in Angstrom), charge = 0, multiplicity = 1:

       Center              X                  Y                   Z               Mass
    ------------   -----------------  -----------------  -----------------  -----------------
         O           -1.249920779302    -0.356823591620     1.142414627227    15.994914619570
         C           -0.623532979302    -0.499865991620    -0.169642372773    12.000000000000
         C            0.809256220698    -0.035557591620    -0.081661372773    12.000000000000
         C           -1.478601779302     0.417561408380    -1.071787372773    12.000000000000
         C            1.100803220698     1.360495408380     0.389453627227    12.000000000000
         C            1.741434520698    -0.943089891620    -0.404243472773    12.000000000000
         H           -0.682281779302    -1.493441591620    -0.510347372773     1.007825032230
         H           -1.068047779302     0.417036408380    -2.085196372773     1.007825032230
         H           -2.502064779302     0.036828408380    -1.100587372773     1.007825032230
         H           -1.506464779302     1.441358408380    -0.695578372773     1.007825032230
         H            0.563368220698     1.562432408380     1.322760627227     1.007825032230
         H            2.172548220698     1.503580408380     0.556306627227     1.007825032230
         H            0.767746220698     2.105256408380    -0.341980372773     1.007825032230
         H            1.540189220698    -1.913363591620    -0.741557372773     1.007825032230
         H            2.826231220698    -0.647392591620    -0.345888372773     1.007825032230
         H           -0.722028779302    -0.915856591620     1.741038627227     1.007825032230

  Basis Set: AUG-CC-PVTZ
    Blend: AUG-CC-PVTZ
  Basis Set: (AUG-CC-PVTZ AUX)
    Blend: AUG-CC-PVTZ-JKFIT
	 Reference Energy          =    -270.0957457245671662 [Eh]
	 Singles Energy            =      -0.0000000000000000 [Eh]
	 Same-Spin Energy          =      -0.2756959553071415 [Eh]
	 Opposite-Spin Energy      =      -0.9511971906661677 [Eh]
	 Correlation Energy        =      -1.2268931459733092 [Eh]
	 Total Energy              =    -271.3226388705404588 [Eh]

	 ================> DF-SCS-MP2 Energies <==================
	-----------------------------------------------------------
	 SCS Same-Spin Scale       =       0.3333333333333333 [-]
	 SCS Opposite-Spin Scale   =       1.2000000000000000 [-]
	 SCS Same-Spin Energy      =      -0.0918986517690472 [Eh]
	 SCS Opposite-Spin Energy  =      -1.1414366287994011 [Eh]
	 SCS Correlation Energy    =      -1.2333352805684483 [Eh]
	 SCS Total Energy          =    -271.3290810051356061 [Eh]
	-----------------------------------------------------------

  Dipole Moment: [D]
     X:     1.1418      Y:    -0.4843      Z:    -0.4214     Total:     1.3099

*** Psi4 exiting successfully. Buy a developer a beer!
