                               Psi4 1.3.2 release

  ==> Input File <==

--------------------------------------------------------------------------
#psi4
#
memory 32 gb

molecule  {
0 1
  O       -1.2523610    -0.3679540     1.1390180
  C       -0.6414680    -0.4631600    -0.1573930
  C        0.8017812    -0.0270862    -0.1019036
  C       -1.4595771     0.4209437    -1.0806868
  C        1.0983630     1.3493650     0.3860570
  C        1.7719920    -0.9222190    -0.3989230
  H       -0.6847220    -1.5045720    -0.5137440
  H       -1.0704880     0.4059060    -2.0885930
  H       -2.5045050     0.0256980    -1.1039840
  H       -1.5089050     1.4302280    -0.6989750
  H        0.5609280     1.5513020     1.3193640
  H        2.1701080     1.4924500     0.5529100
  H        0.7653060     2.0941260    -0.3453770
  H        1.5377490    -1.9244940    -0.7449540
  H        2.8237910    -0.6585230    -0.3492850
  H       -0.7244690    -0.9269870     1.7376420
units angstrom
no_reorient  #important for SAPT in psi4, default
symmetry c1  #important for SAPT in psi4, default
}

set PROPERTIES_ORIGIN ["COM"]
properties('MP2/aug-cc-pvtz', properties = ['dipole'])
--------------------------------------------------------------------------

    Molecular point group: c1
  Charge       = 0
  Multiplicity = 1
  Basis Set: AUG-CC-PVTZ
    Blend: AUG-CC-PVTZ
  Basis Set: (AUG-CC-PVTZ AUX)
    Blend: AUG-CC-PVTZ-JKFIT

    Orbital Energies [Eh]
    ---------------------

    Doubly Occupied:

       1A    -20.559000     2A    -11.284589     3A    -11.242931
       4A    -11.223641     5A    -11.221223     6A    -11.214006
       7A     -1.357902     8A     -1.093737     9A     -0.998767
      10A     -0.938243    11A     -0.845543    12A     -0.735653
      13A     -0.692488    14A     -0.649315    15A     -0.595961
      16A     -0.590739    17A     -0.566560    18A     -0.548156
      19A     -0.537469    20A     -0.522018    21A     -0.511161
      22A     -0.476578    23A     -0.441561    24A     -0.355103

  @DF-RHF Final Energy:  -270.10007233681347

   => Energetics <=

    Nuclear Repulsion Energy =            245.5792660968091354
    One-Electron Energy =                -852.9539903233880977
    Two-Electron Energy =                 337.2746518897655505
    Total Energy =                       -270.1000723368134686
  Basis Set: (AUG-CC-PVTZ AUX)
    Blend: AUG-CC-PVTZ-RI
    Molecular point group: c1

    Geometry (in Angstrom), charge = 0, multiplicity = 1:

       Center              X                  Y                   Z               Mass
    ------------   -----------------  -----------------  -----------------  -----------------
         O           -1.254651591748    -0.372710382827     1.142133745259    15.994914619570
         C           -0.643758591748    -0.467916382827    -0.154277254741    12.000000000000
         C            0.799490608252    -0.031842582827    -0.098787854741    12.000000000000
         C           -1.461867691748     0.416187317173    -1.077571054741    12.000000000000
         C            1.096072408252     1.344608617173     0.389172745259    12.000000000000
         C            1.769701408252    -0.926975382827    -0.395807254741    12.000000000000
         H           -0.687012591748    -1.509328382827    -0.510628254741     1.007825032230
         H           -1.072778591748     0.401149617173    -2.085477254741     1.007825032230
         H           -2.506795591748     0.020941617173    -1.100868254741     1.007825032230
         H           -1.511195591748     1.425471617173    -0.695859254741     1.007825032230
         H            0.558637408252     1.546545617173     1.322479745259     1.007825032230
         H            2.167817408252     1.487693617173     0.556025745259     1.007825032230
         H            0.763015408252     2.089369617173    -0.342261254741     1.007825032230
         H            1.535458408252    -1.929250382827    -0.741838254741     1.007825032230
         H            2.821500408252    -0.663279382827    -0.346169254741     1.007825032230
         H           -0.726759591748    -0.931743382827     1.740757745259     1.007825032230

  Basis Set: AUG-CC-PVTZ
    Blend: AUG-CC-PVTZ
  Basis Set: (AUG-CC-PVTZ AUX)
    Blend: AUG-CC-PVTZ-JKFIT
	 Reference Energy          =    -270.1000723368134686 [Eh]
	 Singles Energy            =      -0.0000000000000000 [Eh]
	 Same-Spin Energy          =      -0.2759490610643005 [Eh]
	 Opposite-Spin Energy      =      -0.9511494653162592 [Eh]
	 Correlation Energy        =      -1.2270985263805598 [Eh]
	 Total Energy              =    -271.3271708631940555 [Eh]

	 ================> DF-SCS-MP2 Energies <==================
	-----------------------------------------------------------
	 SCS Same-Spin Scale       =       0.3333333333333333 [-]
	 SCS Opposite-Spin Scale   =       1.2000000000000000 [-]
	 SCS Same-Spin Energy      =      -0.0919830203547668 [Eh]
	 SCS Opposite-Spin Energy  =      -1.1413793583795111 [Eh]
	 SCS Correlation Energy    =      -1.2333623787342780 [Eh]
	 SCS Total Energy          =    -271.3334347155477531 [Eh]
	-----------------------------------------------------------

  Dipole Moment: [D]
     X:     1.1090      Y:    -0.4268      Z:    -0.3459     Total:     1.2376

*** Psi4 exiting successfully. Buy a developer a beer!
