                               Psi4 1.3.2 release

  ==> Input File <==

--------------------------------------------------------------------------
#psi4
#
memory 32 gb

molecule  {
0 1
  O       -1.2499005    -0.3556655     1.1392144
  C       -0.6414680    -0.4631600    -0.1573930
  C        0.8068160    -0.0466880    -0.0850580
  C       -1.4810420     0.4064310    -1.0751840
  C        1.0983630     1.3493650     0.3860570
  C        1.7719920    -0.9222190    -0.3989230
  H       -0.6802407    -1.5019460    -0.5218327
  H       -1.0704880     0.4059060    -2.0885930
  H       -2.5045050     0.0256980    -1.1039840
  H       -1.5089050     1.4302280    -0.6989750
  H        0.5609280     1.5513020     1.3193640
  H        2.1701080     1.4924500     0.5529100
  H        0.7653060     2.0941260    -0.3453770
  H        1.5377490    -1.9244940    -0.7449540
  H        2.8237910    -0.6585230    -0.3492850
  H       -0.7244690    -0.9269870     1.7376420
units angstrom
no_reorient  #important for SAPT in psi4, default
symmetry c1  #important for SAPT in psi4, default
}

set PROPERTIES_ORIGIN ["COM"]
properties('MP2/aug-cc-pvtz', properties = ['dipole'])
--------------------------------------------------------------------------

    Molecular point group: c1
  Charge       = 0
  Multiplicity = 1
  Basis Set: AUG-CC-PVTZ
    Blend: AUG-CC-PVTZ
  Basis Set: (AUG-CC-PVTZ AUX)
    Blend: AUG-CC-PVTZ-JKFIT

    Orbital Energies [Eh]
    ---------------------

    Doubly Occupied:

       1A    -20.559133     2A    -11.284233     3A    -11.241632
       4A    -11.222536     5A    -11.221069     6A    -11.213958
       7A     -1.356846     8A     -1.093186     9A     -0.998670
      10A     -0.938189    11A     -0.846143    12A     -0.733725
      13A     -0.691894    14A     -0.649574    15A     -0.597667
      16A     -0.590686    17A     -0.564351    18A     -0.548819
      19A     -0.530831    20A     -0.522957    21A     -0.510741
      22A     -0.478882    23A     -0.440557    24A     -0.358870

  @DF-RHF Final Energy:  -270.10155618201293

   => Energetics <=

    Nuclear Repulsion Energy =            245.5543492814900333
    One-Electron Energy =                -852.9215107805119942
    Two-Electron Energy =                 337.2656053170089763
    Total Energy =                       -270.1015561820129278
  Basis Set: (AUG-CC-PVTZ AUX)
    Blend: AUG-CC-PVTZ-RI
    Molecular point group: c1

    Geometry (in Angstrom), charge = 0, multiplicity = 1:

       Center              X                  Y                   Z               Mass
    ------------   -----------------  -----------------  -----------------  -----------------
         O           -1.250410172615    -0.357980077146     1.139272627773    15.994914619570
         C           -0.641977672615    -0.465474577146    -0.157334772227    12.000000000000
         C            0.806306327385    -0.049002577146    -0.084999772227    12.000000000000
         C           -1.481551672615     0.404116422854    -1.075125772227    12.000000000000
         C            1.097853327385     1.347050422854     0.386115227773    12.000000000000
         C            1.771482327385    -0.924533577146    -0.398864772227    12.000000000000
         H           -0.680750372615    -1.504260577146    -0.521774472227     1.007825032230
         H           -1.070997672615     0.403591422854    -2.088534772227     1.007825032230
         H           -2.505014672615     0.023383422854    -1.103925772227     1.007825032230
         H           -1.509414672615     1.427913422854    -0.698916772227     1.007825032230
         H            0.560418327385     1.548987422854     1.319422227773     1.007825032230
         H            2.169598327385     1.490135422854     0.552968227773     1.007825032230
         H            0.764796327385     2.091811422854    -0.345318772227     1.007825032230
         H            1.537239327385    -1.926808577146    -0.744895772227     1.007825032230
         H            2.823281327385    -0.660837577146    -0.349226772227     1.007825032230
         H           -0.724978672615    -0.929301577146     1.737700227773     1.007825032230

  Basis Set: AUG-CC-PVTZ
    Blend: AUG-CC-PVTZ
  Basis Set: (AUG-CC-PVTZ AUX)
    Blend: AUG-CC-PVTZ-JKFIT
	 Reference Energy          =    -270.1015561820129278 [Eh]
	 Singles Energy            =      -0.0000000000000000 [Eh]
	 Same-Spin Energy          =      -0.2757780560629154 [Eh]
	 Opposite-Spin Energy      =      -0.9508671049603332 [Eh]
	 Correlation Energy        =      -1.2266451610232485 [Eh]
	 Total Energy              =    -271.3282013430361985 [Eh]

	 ================> DF-SCS-MP2 Energies <==================
	-----------------------------------------------------------
	 SCS Same-Spin Scale       =       0.3333333333333333 [-]
	 SCS Opposite-Spin Scale   =       1.2000000000000000 [-]
	 SCS Same-Spin Energy      =      -0.0919260186876385 [Eh]
	 SCS Opposite-Spin Energy  =      -1.1410405259523999 [Eh]
	 SCS Correlation Energy    =      -1.2329665446400384 [Eh]
	 SCS Total Energy          =    -271.3345227266529491 [Eh]
	-----------------------------------------------------------

  Dipole Moment: [D]
     X:     1.0989      Y:    -0.4644      Z:    -0.3720     Total:     1.2497

*** Psi4 exiting successfully. Buy a developer a beer!
