                               Psi4 1.3.2 release

  ==> Input File <==

--------------------------------------------------------------------------
#psi4
#
memory 32 gb

molecule  {
0 1
  O       -1.2523610    -0.3679540     1.1390180
  C       -0.6414680    -0.4631600    -0.1573930
  C        0.7987370    -0.0547024    -0.0877635
  C       -1.4810420     0.4064310    -1.0751840
  C        1.0983630     1.3493650     0.3860570
  C        1.7719920    -0.9222190    -0.3989230
  H       -0.6847220    -1.5045720    -0.5137440
  H       -1.0704880     0.4059060    -2.0885930
  H       -2.5045050     0.0256980    -1.1039840
  H       -1.5089050     1.4302280    -0.6989750
  H        0.5609280     1.5513020     1.3193640
  H        2.1701080     1.4924500     0.5529100
  H        0.7653060     2.0941260    -0.3453770
  H        1.5285054    -1.9225534    -0.7441879
  H        2.8237910    -0.6585230    -0.3492850
  H       -0.7244690    -0.9269870     1.7376420
units angstrom
no_reorient  #important for SAPT in psi4, default
symmetry c1  #important for SAPT in psi4, default
}

set PROPERTIES_ORIGIN ["COM"]
properties('MP2/aug-cc-pvtz', properties = ['dipole'])
--------------------------------------------------------------------------

    Molecular point group: c1
  Charge       = 0
  Multiplicity = 1
  Basis Set: AUG-CC-PVTZ
    Blend: AUG-CC-PVTZ
  Basis Set: (AUG-CC-PVTZ AUX)
    Blend: AUG-CC-PVTZ-JKFIT

    Orbital Energies [Eh]
    ---------------------

    Doubly Occupied:

       1A    -20.558214     2A    -11.283860     3A    -11.241733
       4A    -11.222936     5A    -11.221510     6A    -11.214361
       7A     -1.357829     8A     -1.093583     9A     -0.998783
      10A     -0.937455    11A     -0.847974    12A     -0.734839
      13A     -0.691908    14A     -0.649321    15A     -0.598815
      16A     -0.590871    17A     -0.563891    18A     -0.548215
      19A     -0.531411    20A     -0.522938    21A     -0.509141
      22A     -0.479955    23A     -0.441236    24A     -0.359264

  @DF-RHF Final Energy:  -270.10197645154926

   => Energetics <=

    Nuclear Repulsion Energy =            245.5731066305545482
    One-Electron Energy =                -852.9500787628031730
    Two-Electron Energy =                 337.2749956806993623
    Total Energy =                       -270.1019764515492625
  Basis Set: (AUG-CC-PVTZ AUX)
    Blend: AUG-CC-PVTZ-RI
    Molecular point group: c1

    Geometry (in Angstrom), charge = 0, multiplicity = 1:

       Center              X                  Y                   Z               Mass
    ------------   -----------------  -----------------  -----------------  -----------------
         O           -1.251126391627    -0.366859650894     1.139386235104    15.994914619570
         C           -0.640233391627    -0.462065650894    -0.157024764896    12.000000000000
         C            0.799971608373    -0.053608050894    -0.087395264896    12.000000000000
         C           -1.479807391627     0.407525349106    -1.074815764896    12.000000000000
         C            1.099597608373     1.350459349106     0.386425235104    12.000000000000
         C            1.773226608373    -0.921124650894    -0.398554764896    12.000000000000
         H           -0.683487391627    -1.503477650894    -0.513375764896     1.007825032230
         H           -1.069253391627     0.407000349106    -2.088224764896     1.007825032230
         H           -2.503270391627     0.026792349106    -1.103615764896     1.007825032230
         H           -1.507670391627     1.431322349106    -0.698606764896     1.007825032230
         H            0.562162608373     1.552396349106     1.319732235104     1.007825032230
         H            2.171342608373     1.493544349106     0.553278235104     1.007825032230
         H            0.766540608373     2.095220349106    -0.345008764896     1.007825032230
         H            1.529740008373    -1.921459050894    -0.743819664896     1.007825032230
         H            2.825025608373    -0.657428650894    -0.348916764896     1.007825032230
         H           -0.723234391627    -0.925892650894     1.738010235104     1.007825032230

  Basis Set: AUG-CC-PVTZ
    Blend: AUG-CC-PVTZ
  Basis Set: (AUG-CC-PVTZ AUX)
    Blend: AUG-CC-PVTZ-JKFIT
	 Reference Energy          =    -270.1019764515492625 [Eh]
	 Singles Energy            =      -0.0000000000000000 [Eh]
	 Same-Spin Energy          =      -0.2756760180230773 [Eh]
	 Opposite-Spin Energy      =      -0.9506619159733247 [Eh]
	 Correlation Energy        =      -1.2263379339964020 [Eh]
	 Total Energy              =    -271.3283143855456387 [Eh]

	 ================> DF-SCS-MP2 Energies <==================
	-----------------------------------------------------------
	 SCS Same-Spin Scale       =       0.3333333333333333 [-]
	 SCS Opposite-Spin Scale   =       1.2000000000000000 [-]
	 SCS Same-Spin Energy      =      -0.0918920060076924 [Eh]
	 SCS Opposite-Spin Energy  =      -1.1407942991679896 [Eh]
	 SCS Correlation Energy    =      -1.2326863051756820 [Eh]
	 SCS Total Energy          =    -271.3346627567249243 [Eh]
	-----------------------------------------------------------

  Dipole Moment: [D]
     X:     1.1149      Y:    -0.4464      Z:    -0.3799     Total:     1.2596

*** Psi4 exiting successfully. Buy a developer a beer!
