                               Psi4 1.3.2 release

  ==> Input File <==

--------------------------------------------------------------------------
#psi4
#
memory 32 gb

molecule  {
0 1
  O       -1.2523610    -0.3679540     1.1390180
  C       -0.6612888    -0.3912601    -0.1313840
  C        0.8068160    -0.0466880    -0.0850580
  C       -1.4810420     0.4064310    -1.0751840
  C        1.0209411     1.3606812     0.3938734
  C        1.7719920    -0.9222190    -0.3989230
  H       -0.6847220    -1.5045720    -0.5137440
  H       -1.0704880     0.4059060    -2.0885930
  H       -2.5045050     0.0256980    -1.1039840
  H       -1.5089050     1.4302280    -0.6989750
  H        0.5609280     1.5513020     1.3193640
  H        2.1701080     1.4924500     0.5529100
  H        0.7653060     2.0941260    -0.3453770
  H        1.5377490    -1.9244940    -0.7449540
  H        2.8237910    -0.6585230    -0.3492850
  H       -0.7244690    -0.9269870     1.7376420
units angstrom
no_reorient  #important for SAPT in psi4, default
symmetry c1  #important for SAPT in psi4, default
}

set PROPERTIES_ORIGIN ["COM"]
properties('MP2/aug-cc-pvtz', properties = ['dipole'])
--------------------------------------------------------------------------

    Molecular point group: c1
  Charge       = 0
  Multiplicity = 1
  Basis Set: AUG-CC-PVTZ
    Blend: AUG-CC-PVTZ
  Basis Set: (AUG-CC-PVTZ AUX)
    Blend: AUG-CC-PVTZ-JKFIT

    Orbital Energies [Eh]
    ---------------------

    Doubly Occupied:

       1A    -20.561279     2A    -11.286162     3A    -11.242351
       4A    -11.225644     5A    -11.221098     6A    -11.213505
       7A     -1.371326     8A     -1.094247     9A     -1.004582
      10A     -0.940481    11A     -0.843652    12A     -0.740938
      13A     -0.688497    14A     -0.649756    15A     -0.604263
      16A     -0.600458    17A     -0.577949    18A     -0.543494
      19A     -0.540063    20A     -0.515355    21A     -0.514777
      22A     -0.474097    23A     -0.418964    24A     -0.362486

  @DF-RHF Final Energy:  -270.08809032530769

   => Energetics <=

    Nuclear Repulsion Energy =            246.5015465703094151
    One-Electron Energy =                -854.7084248348664914
    Two-Electron Energy =                 338.1187879392493869
    Total Energy =                       -270.0880903253076895
  Basis Set: (AUG-CC-PVTZ AUX)
    Blend: AUG-CC-PVTZ-RI
    Molecular point group: c1

    Geometry (in Angstrom), charge = 0, multiplicity = 1:

       Center              X                  Y                   Z               Mass
    ------------   -----------------  -----------------  -----------------  -----------------
         O           -1.238803753448    -0.379555944976     1.134302203332    15.994914619570
         C           -0.647731553448    -0.402862044976    -0.136099796668    12.000000000000
         C            0.820373246552    -0.058289944976    -0.089773796668    12.000000000000
         C           -1.467484753448     0.394829055024    -1.079899796668    12.000000000000
         C            1.034498346552     1.349079255024     0.389157603332    12.000000000000
         C            1.785549246552    -0.933820944976    -0.403638796668    12.000000000000
         H           -0.671164753448    -1.516173944976    -0.518459796668     1.007825032230
         H           -1.056930753448     0.394304055024    -2.093308796668     1.007825032230
         H           -2.490947753448     0.014096055024    -1.108699796668     1.007825032230
         H           -1.495347753448     1.418626055024    -0.703690796668     1.007825032230
         H            0.574485246552     1.539700055024     1.314648203332     1.007825032230
         H            2.183665246552     1.480848055024     0.548194203332     1.007825032230
         H            0.778863246552     2.082524055024    -0.350092796668     1.007825032230
         H            1.551306246552    -1.936095944976    -0.749669796668     1.007825032230
         H            2.837348246552    -0.670124944976    -0.354000796668     1.007825032230
         H           -0.710911753448    -0.938588944976     1.732926203332     1.007825032230

  Basis Set: AUG-CC-PVTZ
    Blend: AUG-CC-PVTZ
  Basis Set: (AUG-CC-PVTZ AUX)
    Blend: AUG-CC-PVTZ-JKFIT
	 Reference Energy          =    -270.0880903253076895 [Eh]
	 Singles Energy            =      -0.0000000000000000 [Eh]
	 Same-Spin Energy          =      -0.2762215030548127 [Eh]
	 Opposite-Spin Energy      =      -0.9513468545470508 [Eh]
	 Correlation Energy        =      -1.2275683576018634 [Eh]
	 Total Energy              =    -271.3156586829095431 [Eh]

	 ================> DF-SCS-MP2 Energies <==================
	-----------------------------------------------------------
	 SCS Same-Spin Scale       =       0.3333333333333333 [-]
	 SCS Opposite-Spin Scale   =       1.2000000000000000 [-]
	 SCS Same-Spin Energy      =      -0.0920738343516042 [Eh]
	 SCS Opposite-Spin Energy  =      -1.1416162254564610 [Eh]
	 SCS Correlation Energy    =      -1.2336900598080653 [Eh]
	 SCS Total Energy          =    -271.3217803851157441 [Eh]
	-----------------------------------------------------------

  Dipole Moment: [D]
     X:     1.0575      Y:    -0.3618      Z:    -0.2969     Total:     1.1564

*** Psi4 exiting successfully. Buy a developer a beer!
