                               Psi4 1.3.2 release

  ==> Input File <==

--------------------------------------------------------------------------
#psi4
#
memory 32 gb

molecule  {
0 1
  O       -1.2523610    -0.3679540     1.1390180
  C       -0.6589156    -0.4476417    -0.1665119
  C        0.8068160    -0.0466880    -0.0850580
  C       -1.4810420     0.4064310    -1.0751840
  C        1.0983630     1.3493650     0.3860570
  C        1.7719920    -0.9222190    -0.3989230
  H       -0.6847220    -1.5045720    -0.5137440
  H       -1.0704880     0.4059060    -2.0885930
  H       -2.5045050     0.0256980    -1.1039840
  H       -1.5089050     1.4302280    -0.6989750
  H        0.5609280     1.5513020     1.3193640
  H        2.1701080     1.4924500     0.5529100
  H        0.7653060     2.0941260    -0.3453770
  H        1.5377490    -1.9244940    -0.7449540
  H        2.8237910    -0.6585230    -0.3492850
  H       -0.7348484    -0.9228129     1.7504515
units angstrom
no_reorient  #important for SAPT in psi4, default
symmetry c1  #important for SAPT in psi4, default
}

set PROPERTIES_ORIGIN ["COM"]
properties('MP2/aug-cc-pvtz', properties = ['dipole'])
--------------------------------------------------------------------------

    Molecular point group: c1
  Charge       = 0
  Multiplicity = 1
  Basis Set: AUG-CC-PVTZ
    Blend: AUG-CC-PVTZ
  Basis Set: (AUG-CC-PVTZ AUX)
    Blend: AUG-CC-PVTZ-JKFIT

    Orbital Energies [Eh]
    ---------------------

    Doubly Occupied:

       1A    -20.557056     2A    -11.285267     3A    -11.242026
       4A    -11.222140     5A    -11.220791     6A    -11.213978
       7A     -1.356291     8A     -1.092314     9A     -1.004129
      10A     -0.937472    11A     -0.844353    12A     -0.734672
      13A     -0.691234    14A     -0.649323    15A     -0.597286
      16A     -0.591131    17A     -0.564611    18A     -0.549551
      19A     -0.534839    20A     -0.522707    21A     -0.510619
      22A     -0.479574    23A     -0.435833    24A     -0.358857

  @DF-RHF Final Energy:  -270.10158283278531

   => Energetics <=

    Nuclear Repulsion Energy =            245.4954472603579632
    One-Electron Energy =                -852.8019527275703240
    Two-Electron Energy =                 337.2049226344270210
    Total Energy =                       -270.1015828327853114
  Basis Set: (AUG-CC-PVTZ AUX)
    Blend: AUG-CC-PVTZ-RI
    Molecular point group: c1

    Geometry (in Angstrom), charge = 0, multiplicity = 1:

       Center              X                  Y                   Z               Mass
    ------------   -----------------  -----------------  -----------------  -----------------
         O           -1.249806957309    -0.370166644164     1.140139352060    15.994914619570
         C           -0.656361557309    -0.449854344164    -0.165390547940    12.000000000000
         C            0.809370042691    -0.048900644164    -0.083936647940    12.000000000000
         C           -1.478487957309     0.404218355836    -1.074062647940    12.000000000000
         C            1.100917042691     1.347152355836     0.387178352060    12.000000000000
         C            1.774546042691    -0.924431644164    -0.397801647940    12.000000000000
         H           -0.682167957309    -1.506784644164    -0.512622647940     1.007825032230
         H           -1.067933957309     0.403693355836    -2.087471647940     1.007825032230
         H           -2.501950957309     0.023485355836    -1.102862647940     1.007825032230
         H           -1.506350957309     1.428015355836    -0.697853647940     1.007825032230
         H            0.563482042691     1.549089355836     1.320485352060     1.007825032230
         H            2.172662042691     1.490237355836     0.554031352060     1.007825032230
         H            0.767860042691     2.091913355836    -0.344255647940     1.007825032230
         H            1.540303042691    -1.926706644164    -0.743832647940     1.007825032230
         H            2.826345042691    -0.660735644164    -0.348163647940     1.007825032230
         H           -0.732294357309    -0.925025544164     1.751572852060     1.007825032230

  Basis Set: AUG-CC-PVTZ
    Blend: AUG-CC-PVTZ
  Basis Set: (AUG-CC-PVTZ AUX)
    Blend: AUG-CC-PVTZ-JKFIT
	 Reference Energy          =    -270.1015828327853114 [Eh]
	 Singles Energy            =      -0.0000000000000000 [Eh]
	 Same-Spin Energy          =      -0.2756502371565703 [Eh]
	 Opposite-Spin Energy      =      -0.9504991761330883 [Eh]
	 Correlation Energy        =      -1.2261494132896587 [Eh]
	 Total Energy              =    -271.3277322460749588 [Eh]

	 ================> DF-SCS-MP2 Energies <==================
	-----------------------------------------------------------
	 SCS Same-Spin Scale       =       0.3333333333333333 [-]
	 SCS Opposite-Spin Scale   =       1.2000000000000000 [-]
	 SCS Same-Spin Energy      =      -0.0918834123855234 [Eh]
	 SCS Opposite-Spin Energy  =      -1.1405990113597060 [Eh]
	 SCS Correlation Energy    =      -1.2324824237452294 [Eh]
	 SCS Total Energy          =    -271.3340652565305504 [Eh]
	-----------------------------------------------------------

  Dipole Moment: [D]
     X:     1.0684      Y:    -0.4154      Z:    -0.3863     Total:     1.2096

*** Psi4 exiting successfully. Buy a developer a beer!
