                               Psi4 1.3.2 release

  ==> Input File <==

--------------------------------------------------------------------------
#psi4
#
memory 32 gb

molecule  {
0 1
  I       -1.8204864    -1.0134924    -0.0159965
  I        1.8014910    -1.0382480    -0.0313790
  I       -0.0015860     2.0792570    -0.0309720
  C       -0.0000250    -0.0000610     0.5558340
  H       -0.0000740    -0.0002610     1.6413420
units angstrom
no_reorient  #important for SAPT in psi4, default
symmetry c1  #important for SAPT in psi4, default
}

set PROPERTIES_ORIGIN ["COM"]

basis mybas {
    assign aug-cc-pvtz
    assign I aug-cc-pvtz-pp
}
properties('MP2/mybas', properties = ['dipole'])
--------------------------------------------------------------------------

    Molecular point group: c1
  Charge       = 0
  Multiplicity = 1
  Basis Set: MYBAS
    Blend: AUG-CC-PVTZ + AUG-CC-PVTZ-PP
  Basis Set: (MYBAS AUX)
    Blend: AUG-CC-PVTZ-JKFIT + DEF2-QZVPP-JKFIT

    Orbital Energies [Eh]
    ---------------------

    Doubly Occupied:

       1A    -11.385074     2A     -7.741977     3A     -7.741537
       4A     -7.741293     5A     -5.574700     6A     -5.574249
       7A     -5.574007     8A     -5.563379     9A     -5.563352
      10A     -5.562951    11A     -5.562918    12A     -5.562712
      13A     -5.562670    14A     -2.304246    15A     -2.303776
      16A     -2.303502    17A     -2.298908    18A     -2.298884
      19A     -2.298469    20A     -2.298442    21A     -2.298233
      22A     -2.298189    23A     -2.286348    24A     -2.286347
      25A     -2.285929    26A     -2.285927    27A     -2.285688
      28A     -2.285686    29A     -1.047200    30A     -0.902873
      31A     -0.901616    32A     -0.800017    33A     -0.589055
      34A     -0.507665    35A     -0.506441    36A     -0.400943
      37A     -0.399593    38A     -0.383977    39A     -0.373937
      40A     -0.372687    41A     -0.359173

  @DF-RHF Final Energy:  -922.42036305313263

   => Energetics <=

    Nuclear Repulsion Energy =            403.3507648400635617
    One-Electron Energy =               -2398.1931156428263421
    Two-Electron Energy =                1072.4219877496300342
    Total Energy =                       -922.4203630531326326
  Basis Set: (MYBAS AUX)
    Blend: AUG-CC-PVTZ-RI + DEF2-QZVPP-RI
    Molecular point group: c1

    Geometry (in Angstrom), charge = 0, multiplicity = 1:

       Center              X                  Y                   Z               Mass
    ------------   -----------------  -----------------  -----------------  -----------------
         I           -1.813851639142    -1.022359040120    -0.011885838977   126.904471900000
         I            1.808125760858    -1.047114640120    -0.027268338977   126.904471900000
         I            0.005048760858     2.070390359880    -0.026861338977   126.904471900000
         C            0.006609760858    -0.008927640120     0.559944661023    12.000000000000
         H            0.006560760858    -0.009127640120     1.645452661023     1.007825032230

  Basis Set: MYBAS
    Blend: AUG-CC-PVTZ + AUG-CC-PVTZ-PP
  Basis Set: (MYBAS AUX)
    Blend: AUG-CC-PVTZ-JKFIT + DEF2-QZVPP-JKFIT
	 Reference Energy          =    -922.4203630531326326 [Eh]
	 Singles Energy            =      -0.0000000000000000 [Eh]
	 Same-Spin Energy          =      -0.2751242339014043 [Eh]
	 Opposite-Spin Energy      =      -0.6676438201062487 [Eh]
	 Correlation Energy        =      -0.9427680540076530 [Eh]
	 Total Energy              =    -923.3631311071402479 [Eh]

	 ================> DF-SCS-MP2 Energies <==================
	-----------------------------------------------------------
	 SCS Same-Spin Scale       =       0.3333333333333333 [-]
	 SCS Opposite-Spin Scale   =       1.2000000000000000 [-]
	 SCS Same-Spin Energy      =      -0.0917080779671348 [Eh]
	 SCS Opposite-Spin Energy  =      -0.8011725841274984 [Eh]
	 SCS Correlation Energy    =      -0.8928806620946331 [Eh]
	 SCS Total Energy          =    -923.3132437152272587 [Eh]
	-----------------------------------------------------------

  Dipole Moment: [D]
     X:     0.0094      Y:    -0.0044      Z:     0.5549     Total:     0.5550

*** Psi4 exiting successfully. Buy a developer a beer!
