                               Psi4 1.3.2 release

  ==> Input File <==

--------------------------------------------------------------------------
#psi4
#
memory 32 gb

molecule  {
0 1
  I       -1.8084981    -1.0459752     0.0048336
  I        1.8014910    -1.0382480    -0.0313790
  I       -0.0015860     2.0792570    -0.0309720
  C       -0.0000250    -0.0000610     0.5558340
  H       -0.0000740    -0.0002610     1.6413420
units angstrom
no_reorient  #important for SAPT in psi4, default
symmetry c1  #important for SAPT in psi4, default
}

set PROPERTIES_ORIGIN ["COM"]

basis mybas {
    assign aug-cc-pvtz
    assign I aug-cc-pvtz-pp
}
properties('MP2/mybas', properties = ['dipole'])
--------------------------------------------------------------------------

    Molecular point group: c1
  Charge       = 0
  Multiplicity = 1
  Basis Set: MYBAS
    Blend: AUG-CC-PVTZ + AUG-CC-PVTZ-PP
  Basis Set: (MYBAS AUX)
    Blend: AUG-CC-PVTZ-JKFIT + DEF2-QZVPP-JKFIT

    Orbital Energies [Eh]
    ---------------------

    Doubly Occupied:

       1A    -11.384980     2A     -7.741732     3A     -7.741729
       4A     -7.741505     5A     -5.574454     6A     -5.574450
       7A     -5.574211     8A     -5.563139     9A     -5.563135
      10A     -5.563108    11A     -5.563103    12A     -5.562916
      13A     -5.562896    14A     -2.304092    15A     -2.303893
      16A     -2.303695    17A     -2.298678    18A     -2.298664
      19A     -2.298660    20A     -2.298610    21A     -2.298428
      22A     -2.298399    23A     -2.286111    24A     -2.286109
      25A     -2.286106    26A     -2.286104    27A     -2.285904
      28A     -2.285902    29A     -1.047169    30A     -0.902454
      31A     -0.902227    32A     -0.799809    33A     -0.588842
      34A     -0.507247    35A     -0.506937    36A     -0.400428
      37A     -0.399924    38A     -0.383624    39A     -0.373691
      40A     -0.373416    41A     -0.359403

  @DF-RHF Final Energy:  -922.42036168919628

   => Energetics <=

    Nuclear Repulsion Energy =            403.1020651970371773
    One-Electron Energy =               -2397.6930883847176119
    Two-Electron Energy =                1072.1706614984843782
    Total Energy =                       -922.4203616891961701
  Basis Set: (MYBAS AUX)
    Blend: AUG-CC-PVTZ-RI + DEF2-QZVPP-RI
    Molecular point group: c1

    Geometry (in Angstrom), charge = 0, multiplicity = 1:

       Center              X                  Y                   Z               Mass
    ------------   -----------------  -----------------  -----------------  -----------------
         I           -1.805727415354    -1.044371964093     0.002230290409   126.904471900000
         I            1.804261684646    -1.036644764093    -0.033982309591   126.904471900000
         I            0.001184684646     2.080860235907    -0.033575309591   126.904471900000
         C            0.002745684646     0.001542235907     0.553230690409    12.000000000000
         H            0.002696684646     0.001342235907     1.638738690409     1.007825032230

  Basis Set: MYBAS
    Blend: AUG-CC-PVTZ + AUG-CC-PVTZ-PP
  Basis Set: (MYBAS AUX)
    Blend: AUG-CC-PVTZ-JKFIT + DEF2-QZVPP-JKFIT
	 Reference Energy          =    -922.4203616891962838 [Eh]
	 Singles Energy            =      -0.0000000000000000 [Eh]
	 Same-Spin Energy          =      -0.2751033718869514 [Eh]
	 Opposite-Spin Energy      =      -0.6676281268809945 [Eh]
	 Correlation Energy        =      -0.9427314987679459 [Eh]
	 Total Energy              =    -923.3630931879641821 [Eh]

	 ================> DF-SCS-MP2 Energies <==================
	-----------------------------------------------------------
	 SCS Same-Spin Scale       =       0.3333333333333333 [-]
	 SCS Opposite-Spin Scale   =       1.2000000000000000 [-]
	 SCS Same-Spin Energy      =      -0.0917011239623171 [Eh]
	 SCS Opposite-Spin Energy  =      -0.8011537522571933 [Eh]
	 SCS Correlation Energy    =      -0.8928548762195104 [Eh]
	 SCS Total Energy          =    -923.3132165654158143 [Eh]
	-----------------------------------------------------------

  Dipole Moment: [D]
     X:     0.0119      Y:     0.0069      Z:     0.5572     Total:     0.5573

*** Psi4 exiting successfully. Buy a developer a beer!
