                               Psi4 1.3.2 release

  ==> Input File <==

--------------------------------------------------------------------------
#psi4
#
memory 32 gb

molecule  {
0 1
  I       -1.8165444    -1.0506349     0.0413781
  I        1.8014910    -1.0382480    -0.0313790
  I       -0.0015860     2.0792570    -0.0309720
  C       -0.0000250    -0.0000610     0.5558340
  H       -0.0000740    -0.0002610     1.6413420
units angstrom
no_reorient  #important for SAPT in psi4, default
symmetry c1  #important for SAPT in psi4, default
}

set PROPERTIES_ORIGIN ["COM"]

basis mybas {
    assign aug-cc-pvtz
    assign I aug-cc-pvtz-pp
}
properties('MP2/mybas', properties = ['dipole'])
--------------------------------------------------------------------------

    Molecular point group: c1
  Charge       = 0
  Multiplicity = 1
  Basis Set: MYBAS
    Blend: AUG-CC-PVTZ + AUG-CC-PVTZ-PP
  Basis Set: (MYBAS AUX)
    Blend: AUG-CC-PVTZ-JKFIT + DEF2-QZVPP-JKFIT

    Orbital Energies [Eh]
    ---------------------

    Doubly Occupied:

       1A    -11.384803     2A     -7.741897     3A     -7.741893
       4A     -7.741454     5A     -5.574625     6A     -5.574620
       7A     -5.574152     8A     -5.563299     9A     -5.563295
      10A     -5.563269    11A     -5.563264    12A     -5.562863
      13A     -5.562856    14A     -2.304245    15A     -2.304062
      16A     -2.303646    17A     -2.298840    18A     -2.298830
      19A     -2.298824    20A     -2.298770    21A     -2.298367
      22A     -2.298352    23A     -2.286265    24A     -2.286262
      25A     -2.286260    26A     -2.286258    27A     -2.285864
      28A     -2.285861    29A     -1.047134    30A     -0.902732
      31A     -0.902273    32A     -0.799451    33A     -0.588479
      34A     -0.507448    35A     -0.506848    36A     -0.400540
      37A     -0.399535    38A     -0.383007    39A     -0.374260
      40A     -0.373721    41A     -0.359700

  @DF-RHF Final Energy:  -922.42022650158174

   => Energetics <=

    Nuclear Repulsion Energy =            402.6944701679794321
    One-Electron Energy =               -2396.8731432175686678
    Two-Electron Energy =                1071.7584465480074414
    Total Energy =                       -922.4202265015817375
  Basis Set: (MYBAS AUX)
    Blend: AUG-CC-PVTZ-RI + DEF2-QZVPP-RI
    Molecular point group: c1

    Geometry (in Angstrom), charge = 0, multiplicity = 1:

       Center              X                  Y                   Z               Mass
    ------------   -----------------  -----------------  -----------------  -----------------
         I           -1.811180227001    -1.047529746729     0.026995744746   126.904471900000
         I            1.806855172999    -1.035142846729    -0.045761355254   126.904471900000
         I            0.003778172999     2.082362153271    -0.045354355254   126.904471900000
         C            0.005339172999     0.003044153271     0.541451644746    12.000000000000
         H            0.005290172999     0.002844153271     1.626959644746     1.007825032230

  Basis Set: MYBAS
    Blend: AUG-CC-PVTZ + AUG-CC-PVTZ-PP
  Basis Set: (MYBAS AUX)
    Blend: AUG-CC-PVTZ-JKFIT + DEF2-QZVPP-JKFIT
	 Reference Energy          =    -922.4202265015817375 [Eh]
	 Singles Energy            =      -0.0000000000000000 [Eh]
	 Same-Spin Energy          =      -0.2750758909798121 [Eh]
	 Opposite-Spin Energy      =      -0.6676155701568915 [Eh]
	 Correlation Energy        =      -0.9426914611367037 [Eh]
	 Total Energy              =    -923.3629179627184840 [Eh]

	 ================> DF-SCS-MP2 Energies <==================
	-----------------------------------------------------------
	 SCS Same-Spin Scale       =       0.3333333333333333 [-]
	 SCS Opposite-Spin Scale   =       1.2000000000000000 [-]
	 SCS Same-Spin Energy      =      -0.0916919636599374 [Eh]
	 SCS Opposite-Spin Energy  =      -0.8011386841882698 [Eh]
	 SCS Correlation Energy    =      -0.8928306478482072 [Eh]
	 SCS Total Energy          =    -923.3130571494299375 [Eh]
	-----------------------------------------------------------

  Dipole Moment: [D]
     X:     0.0239      Y:     0.0138      Z:     0.5607     Total:     0.5614

*** Psi4 exiting successfully. Buy a developer a beer!
