                               Psi4 1.3.2 release

  ==> Input File <==

--------------------------------------------------------------------------
#psi4
#
memory 32 gb

molecule  {
0 1
  I       -1.7999010    -1.0409970    -0.0315430
  I        1.8014910    -1.0382480    -0.0313790
  I       -0.0015860     2.0792570    -0.0309720
  C       -0.0000250    -0.0000610     0.5558340
  H       -0.0000740    -0.0002610     1.6413420
units angstrom
no_reorient  #important for SAPT in psi4, default
symmetry c1  #important for SAPT in psi4, default
}

set PROPERTIES_ORIGIN ["COM"]

basis mybas {
    assign aug-cc-pvtz
    assign I aug-cc-pvtz-pp
}
properties('MP2/mybas', properties = ['dipole'])
--------------------------------------------------------------------------

    Molecular point group: c1
  Charge       = 0
  Multiplicity = 1
  Basis Set: MYBAS
    Blend: AUG-CC-PVTZ + AUG-CC-PVTZ-PP
  Basis Set: (MYBAS AUX)
    Blend: AUG-CC-PVTZ-JKFIT + DEF2-QZVPP-JKFIT

    Orbital Energies [Eh]
    ---------------------

    Doubly Occupied:

       1A    -11.385150     2A     -7.741566     3A     -7.741564
       4A     -7.741561     5A     -5.574283     6A     -5.574280
       7A     -5.574275     8A     -5.562979     9A     -5.562977
      10A     -5.562972    11A     -5.562946    12A     -5.562941
      13A     -5.562940    14A     -2.303967    15A     -2.303722
      16A     -2.303720    17A     -2.298517    18A     -2.298510
      19A     -2.298509    20A     -2.298478    21A     -2.298478
      22A     -2.298406    23A     -2.285955    24A     -2.285954
      25A     -2.285952    26A     -2.285949    27A     -2.285948
      28A     -2.285947    29A     -1.047215    30A     -0.902181
      31A     -0.902177    32A     -0.800164    33A     -0.589217
      34A     -0.507027    35A     -0.507024    36A     -0.400325
      37A     -0.400323    38A     -0.384227    39A     -0.373112
      40A     -0.373110    41A     -0.359097

  @DF-RHF Final Energy:  -922.42042252460919

   => Energetics <=

    Nuclear Repulsion Energy =            403.5213622115800831
    One-Electron Energy =               -2398.5362779075430808
    Two-Electron Energy =                1072.5944931713538608
    Total Energy =                       -922.4204225246091937
  Basis Set: (MYBAS AUX)
    Blend: AUG-CC-PVTZ-RI + DEF2-QZVPP-RI
    Molecular point group: c1

    Geometry (in Angstrom), charge = 0, multiplicity = 1:

       Center              X                  Y                   Z               Mass
    ------------   -----------------  -----------------  -----------------  -----------------
         I           -1.799901337901    -1.040998340571    -0.022421381558   126.904471900000
         I            1.801490662099    -1.038249340571    -0.022257381558   126.904471900000
         I           -0.001586337901     2.079255659429    -0.021850381558   126.904471900000
         C           -0.000025337901    -0.000062340571     0.564955618442    12.000000000000
         H           -0.000074337901    -0.000262340571     1.650463618442     1.007825032230

  Basis Set: MYBAS
    Blend: AUG-CC-PVTZ + AUG-CC-PVTZ-PP
  Basis Set: (MYBAS AUX)
    Blend: AUG-CC-PVTZ-JKFIT + DEF2-QZVPP-JKFIT
	 Reference Energy          =    -922.4204225246091937 [Eh]
	 Singles Energy            =      -0.0000000000000000 [Eh]
	 Same-Spin Energy          =      -0.2751352914855665 [Eh]
	 Opposite-Spin Energy      =      -0.6676483234028256 [Eh]
	 Correlation Energy        =      -0.9427836148883921 [Eh]
	 Total Energy              =    -923.3632061394976063 [Eh]

	 ================> DF-SCS-MP2 Energies <==================
	-----------------------------------------------------------
	 SCS Same-Spin Scale       =       0.3333333333333333 [-]
	 SCS Opposite-Spin Scale   =       1.2000000000000000 [-]
	 SCS Same-Spin Energy      =      -0.0917117638285222 [Eh]
	 SCS Opposite-Spin Energy  =      -0.8011779880833908 [Eh]
	 SCS Correlation Energy    =      -0.8928897519119130 [Eh]
	 SCS Total Energy          =    -923.3133122765210601 [Eh]
	-----------------------------------------------------------

  Dipole Moment: [D]
     X:    -0.0000      Y:     0.0000      Z:     0.5532     Total:     0.5532

*** Psi4 exiting successfully. Buy a developer a beer!
