                               Psi4 1.3.2 release

  ==> Input File <==

--------------------------------------------------------------------------
#psi4
#
memory 32 gb

molecule  {
0 1
  I       -1.7907556    -1.0357017    -0.0677407
  I        1.8014910    -1.0382480    -0.0313790
  I       -0.0015860     2.0792570    -0.0309720
  C       -0.0000250    -0.0000610     0.5558340
  H       -0.0000740    -0.0002610     1.6413420
units angstrom
no_reorient  #important for SAPT in psi4, default
symmetry c1  #important for SAPT in psi4, default
}

set PROPERTIES_ORIGIN ["COM"]

basis mybas {
    assign aug-cc-pvtz
    assign I aug-cc-pvtz-pp
}
properties('MP2/mybas', properties = ['dipole'])
--------------------------------------------------------------------------

    Molecular point group: c1
  Charge       = 0
  Multiplicity = 1
  Basis Set: MYBAS
    Blend: AUG-CC-PVTZ + AUG-CC-PVTZ-PP
  Basis Set: (MYBAS AUX)
    Blend: AUG-CC-PVTZ-JKFIT + DEF2-QZVPP-JKFIT

    Orbital Energies [Eh]
    ---------------------

    Doubly Occupied:

       1A    -11.385312     2A     -7.741627     3A     -7.741398
       4A     -7.741394     5A     -5.574353     6A     -5.574109
       7A     -5.574104     8A     -5.563039     9A     -5.562993
      10A     -5.562816    11A     -5.562811    12A     -5.562780
      13A     -5.562775    14A     -2.303942    15A     -2.303653
      16A     -2.303549    17A     -2.298575    18A     -2.298541
      19A     -2.298347    20A     -2.298322    21A     -2.298320
      22A     -2.298260    23A     -2.286002    24A     -2.286001
      25A     -2.285796    26A     -2.285794    27A     -2.285792
      28A     -2.285790    29A     -1.047274    30A     -0.902134
      31A     -0.901904    32A     -0.800517    33A     -0.589603
      34A     -0.507117    35A     -0.506784    36A     -0.400737
      37A     -0.400228    38A     -0.384815    39A     -0.372806
      40A     -0.372519    41A     -0.358779

  @DF-RHF Final Energy:  -922.42040883360187

   => Energetics <=

    Nuclear Repulsion Energy =            403.9524360840636632
    One-Electron Energy =               -2399.4028634438077461
    Two-Electron Energy =                1073.0300185261421575
    Total Energy =                       -922.4204088336018685
  Basis Set: (MYBAS AUX)
    Blend: AUG-CC-PVTZ-RI + DEF2-QZVPP-RI
    Molecular point group: c1

    Geometry (in Angstrom), charge = 0, multiplicity = 1:

       Center              X                  Y                   Z               Mass
    ------------   -----------------  -----------------  -----------------  -----------------
         I           -1.793703688841    -1.037409824916    -0.046951816683   126.904471900000
         I            1.798542911159    -1.039956124916    -0.010590116683   126.904471900000
         I           -0.004534088841     2.077548875084    -0.010183116683   126.904471900000
         C           -0.002973088841    -0.001769124916     0.576622883317    12.000000000000
         H           -0.003022088841    -0.001969124916     1.662130883317     1.007825032230

  Basis Set: MYBAS
    Blend: AUG-CC-PVTZ + AUG-CC-PVTZ-PP
  Basis Set: (MYBAS AUX)
    Blend: AUG-CC-PVTZ-JKFIT + DEF2-QZVPP-JKFIT
	 Reference Energy          =    -922.4204088336018685 [Eh]
	 Singles Energy            =      -0.0000000000000000 [Eh]
	 Same-Spin Energy          =      -0.2751716898502100 [Eh]
	 Opposite-Spin Energy      =      -0.6676761774439277 [Eh]
	 Correlation Energy        =      -0.9428478672941377 [Eh]
	 Total Energy              =    -923.3632567008960450 [Eh]

	 ================> DF-SCS-MP2 Energies <==================
	-----------------------------------------------------------
	 SCS Same-Spin Scale       =       0.3333333333333333 [-]
	 SCS Opposite-Spin Scale   =       1.2000000000000000 [-]
	 SCS Same-Spin Energy      =      -0.0917238966167367 [Eh]
	 SCS Opposite-Spin Energy  =      -0.8012114129327133 [Eh]
	 SCS Correlation Energy    =      -0.8929353095494499 [Eh]
	 SCS Total Energy          =    -923.3133441431513120 [Eh]
	-----------------------------------------------------------

  Dipole Moment: [D]
     X:    -0.0119      Y:    -0.0068      Z:     0.5490     Total:     0.5492

*** Psi4 exiting successfully. Buy a developer a beer!
