                               Psi4 1.3.2 release

  ==> Input File <==

--------------------------------------------------------------------------
#psi4
#
memory 32 gb

molecule  {
0 1
  I       -1.9149760    -0.8715099     0.0642522
  I        1.8014910    -1.0382480    -0.0313790
  I       -0.0015860     2.0792570    -0.0309720
  C       -0.0000250    -0.0000610     0.5558340
  H       -0.0000740    -0.0002610     1.6413420
units angstrom
no_reorient  #important for SAPT in psi4, default
symmetry c1  #important for SAPT in psi4, default
}

set PROPERTIES_ORIGIN ["COM"]

basis mybas {
    assign aug-cc-pvtz
    assign I aug-cc-pvtz-pp
}
properties('MP2/mybas', properties = ['dipole'])
--------------------------------------------------------------------------

    Molecular point group: c1
  Charge       = 0
  Multiplicity = 1
  Basis Set: MYBAS
    Blend: AUG-CC-PVTZ + AUG-CC-PVTZ-PP
  Basis Set: (MYBAS AUX)
    Blend: AUG-CC-PVTZ-JKFIT + DEF2-QZVPP-JKFIT

    Orbital Energies [Eh]
    ---------------------

    Doubly Occupied:

       1A    -11.384545     2A     -7.744032     3A     -7.741405
       4A     -7.739905     5A     -5.576802     6A     -5.574121
       7A     -5.572611     8A     -5.565413     9A     -5.565350
      10A     -5.562851    11A     -5.562749    12A     -5.561360
      13A     -5.561269    14A     -2.306313    15A     -2.303643
      16A     -2.302143    17A     -2.300981    18A     -2.300920
      19A     -2.298379    20A     -2.298282    21A     -2.296883
      22A     -2.296798    23A     -2.288315    24A     -2.288312
      25A     -2.285800    26A     -2.285793    27A     -2.284333
      28A     -2.284329    29A     -1.047333    30A     -0.906204
      31A     -0.898776    32A     -0.799374    33A     -0.588261
      34A     -0.510780    35A     -0.503457    36A     -0.404187
      37A     -0.396297    38A     -0.382849    39A     -0.378157
      40A     -0.371010    41A     -0.358037

  @DF-RHF Final Energy:  -922.41862263059215

   => Energetics <=

    Nuclear Repulsion Energy =            402.8064360240421138
    One-Electron Energy =               -2397.0933993252920118
    Two-Electron Energy =                1071.8683406706577443
    Total Energy =                       -922.4186226305921537
  Basis Set: (MYBAS AUX)
    Blend: AUG-CC-PVTZ-RI + DEF2-QZVPP-RI
    Molecular point group: c1

    Geometry (in Angstrom), charge = 0, multiplicity = 1:

       Center              X                  Y                   Z               Mass
    ------------   -----------------  -----------------  -----------------  -----------------
         I           -1.877885293291    -0.926140426640     0.042497050798   126.904471900000
         I            1.838581706709    -1.092878526640    -0.053134149202   126.904471900000
         I            0.035504706709     2.024626473360    -0.052727149202   126.904471900000
         C            0.037065706709    -0.054691526640     0.534078850798    12.000000000000
         H            0.037016706709    -0.054891526640     1.619586850798     1.007825032230

  Basis Set: MYBAS
    Blend: AUG-CC-PVTZ + AUG-CC-PVTZ-PP
  Basis Set: (MYBAS AUX)
    Blend: AUG-CC-PVTZ-JKFIT + DEF2-QZVPP-JKFIT
	 Reference Energy          =    -922.4186226305921537 [Eh]
	 Singles Energy            =      -0.0000000000000000 [Eh]
	 Same-Spin Energy          =      -0.2751700266443354 [Eh]
	 Opposite-Spin Energy      =      -0.6677880649233661 [Eh]
	 Correlation Energy        =      -0.9429580915677015 [Eh]
	 Total Energy              =    -923.3615807221598288 [Eh]

	 ================> DF-SCS-MP2 Energies <==================
	-----------------------------------------------------------
	 SCS Same-Spin Scale       =       0.3333333333333333 [-]
	 SCS Opposite-Spin Scale   =       1.2000000000000000 [-]
	 SCS Same-Spin Energy      =      -0.0917233422147785 [Eh]
	 SCS Opposite-Spin Energy  =      -0.8013456779080392 [Eh]
	 SCS Correlation Energy    =      -0.8930690201228177 [Eh]
	 SCS Total Energy          =    -923.3116916507149199 [Eh]
	-----------------------------------------------------------

  Dipole Moment: [D]
     X:     0.0582      Y:    -0.0275      Z:     0.5619     Total:     0.5656

*** Psi4 exiting successfully. Buy a developer a beer!
