                               Psi4 1.4a3.dev225

  ==> Input File <==

--------------------------------------------------------------------------
#psi4
#
memory 32 gb

molecule  {
0 1
  I       -1.7999010    -1.0409970    -0.0315430
  I        1.8014910    -1.0382480    -0.0313790
  I       -0.0015860     2.0792570    -0.0309720
  C        0.0416276     0.0240283     0.5694270
  H       -0.0000740    -0.0002610     1.6413420
units angstrom
no_reorient  #important for SAPT in psi4, default
symmetry c1  #important for SAPT in psi4, default
}

set PROPERTIES_ORIGIN ["COM"]
properties('MP2/aug-cc-pvtz', properties = ['dipole'])
--------------------------------------------------------------------------

    Molecular point group: c1
  Charge       = 0
  Multiplicity = 1
  Basis Set: AUG-CC-PVTZ
    Blend: AUG-CC-PVTZ
  Basis Set: (AUG-CC-PVTZ AUX)
    Blend: AUG-CC-PVTZ-JKFIT + DEF2-UNIVERSAL-JKFIT

    Orbital Energies [Eh]
    ---------------------

    Doubly Occupied:

       1A    -11.384986     2A     -7.743145     3A     -7.743142
       4A     -7.738307     5A     -5.575902     6A     -5.575897
       7A     -5.570924     8A     -5.564557     9A     -5.564553
      10A     -5.564526    11A     -5.564521    12A     -5.559728
      13A     -5.559671    14A     -2.305627    15A     -2.305452
      16A     -2.300237    17A     -2.300129    18A     -2.300110
      19A     -2.300061    20A     -2.300056    21A     -2.295153
      22A     -2.295097    23A     -2.287532    24A     -2.287532
      25A     -2.287529    26A     -2.287527    27A     -2.282693
      28A     -2.282692    29A     -1.047848    30A     -0.905424
      31A     -0.898052    32A     -0.803233    33A     -0.590745
      34A     -0.508943    35A     -0.503893    36A     -0.402001
      37A     -0.398939    38A     -0.384897    39A     -0.374772
      40A     -0.370450    41A     -0.358888

  @DF-RHF Final Energy:  -922.41963439813026

   => Energetics <=

    Nuclear Repulsion Energy =            403.3752077339871676
    One-Electron Energy =               -2398.2389395228638023
    Two-Electron Energy =                1072.4440973907462649
    Total Energy =                       -922.4196343981302562
  Basis Set: (AUG-CC-PVTZ AUX)
    Blend: AUG-CC-PVTZ-RI + DEF2-QZVPP-RI
    Molecular point group: c1

    Geometry (in Angstrom), charge = 0, multiplicity = 1:

       Center              X                  Y                   Z               Mass
    ------------   -----------------  -----------------  -----------------  -----------------
         I           -1.801170843196    -1.041732544292    -0.022835674675   126.904471900000
         I            1.800221156804    -1.038983544292    -0.022671674675   126.904471900000
         I           -0.002855843196     2.078521455708    -0.022264674675   126.904471900000
         C            0.040357756804     0.023292755708     0.578134325325    12.000000000000
         H           -0.001343843196    -0.000996544292     1.650049325325     1.007825032230

  Basis Set: AUG-CC-PVTZ
    Blend: AUG-CC-PVTZ
  Basis Set: (AUG-CC-PVTZ AUX)
    Blend: AUG-CC-PVTZ-JKFIT + DEF2-UNIVERSAL-JKFIT
	 Reference Energy          =    -922.4196343981302562 [Eh]
	 Singles Energy            =      -0.0000000000000000 [Eh]
	 Same-Spin Energy          =      -0.2750826924639775 [Eh]
	 Opposite-Spin Energy      =      -0.6676796978560704 [Eh]
	 Correlation Energy        =      -0.9427623903200479 [Eh]
	 Total Energy              =    -923.3623967884502690 [Eh]

	 ================> DF-SCS-MP2 Energies <==================
	-----------------------------------------------------------
	 SCS Same-Spin Scale       =       0.3333333333333333 [-]
	 SCS Opposite-Spin Scale   =       1.2000000000000000 [-]
	 SCS Same-Spin Energy      =      -0.0916942308213258 [Eh]
	 SCS Opposite-Spin Energy  =      -0.8012156374272844 [Eh]
	 SCS Correlation Energy    =      -0.8929098682486103 [Eh]
	 SCS Total Energy          =    -923.3125442663788363 [Eh]
	-----------------------------------------------------------

  Dipole Moment: [D]
     X:     0.1539      Y:     0.0891      Z:     0.5420     Total:     0.5705

*** Psi4 exiting successfully. Buy a developer a beer!
