                               Psi4 1.4a3.dev225

  ==> Input File <==

--------------------------------------------------------------------------
#psi4
#
memory 32 gb

molecule  {
0 1
  I       -1.7999010    -1.0409970    -0.0315430
  I        1.8014910    -1.0382480    -0.0313790
  I       -0.0015860     2.0792570    -0.0309720
  C       -0.0166860    -0.0096967     0.5503968
  H       -0.0000740    -0.0002610     1.6413420
units angstrom
no_reorient  #important for SAPT in psi4, default
symmetry c1  #important for SAPT in psi4, default
}

set PROPERTIES_ORIGIN ["COM"]
properties('MP2/aug-cc-pvtz', properties = ['dipole'])
--------------------------------------------------------------------------

    Molecular point group: c1
  Charge       = 0
  Multiplicity = 1
  Basis Set: AUG-CC-PVTZ
    Blend: AUG-CC-PVTZ
  Basis Set: (AUG-CC-PVTZ AUX)
    Blend: AUG-CC-PVTZ-JKFIT + DEF2-UNIVERSAL-JKFIT

    Orbital Energies [Eh]
    ---------------------

    Doubly Occupied:

       1A    -11.385368     2A     -7.742797     3A     -7.740971
       4A     -7.740968     5A     -5.575547     6A     -5.573672
       7A     -5.573667     8A     -5.564210     9A     -5.564188
      10A     -5.562383    11A     -5.562379    12A     -5.562348
      13A     -5.562344    14A     -2.305197    15A     -2.303222
      16A     -2.303069    17A     -2.299766    18A     -2.299746
      19A     -2.297903    20A     -2.297883    21A     -2.297881
      22A     -2.297823    23A     -2.287199    24A     -2.287197
      25A     -2.285358    26A     -2.285356    27A     -2.285353
      28A     -2.285351    29A     -1.047247    30A     -0.903760
      31A     -0.900924    32A     -0.798868    33A     -0.588839
      34A     -0.508226    35A     -0.506429    36A     -0.400975
      37A     -0.399610    38A     -0.383729    39A     -0.374054
      40A     -0.372461    41A     -0.359102

  @DF-RHF Final Energy:  -922.42019229103073

   => Energetics <=

    Nuclear Repulsion Energy =            403.5831622568503576
    One-Electron Energy =               -2398.6599737950787130
    Two-Electron Energy =                1072.6566192471977956
    Total Energy =                       -922.4201922910306166
  Basis Set: (AUG-CC-PVTZ AUX)
    Blend: AUG-CC-PVTZ-RI + DEF2-QZVPP-RI
    Molecular point group: c1

    Geometry (in Angstrom), charge = 0, multiplicity = 1:

       Center              X                  Y                   Z               Mass
    ------------   -----------------  -----------------  -----------------  -----------------
         I           -1.799393537002    -1.040704659692    -0.022255664311   126.904471900000
         I            1.801998462998    -1.037955659692    -0.022091664311   126.904471900000
         I           -0.001078537002     2.079549340308    -0.021684664311   126.904471900000
         C           -0.016178537002    -0.009404359692     0.559684135689    12.000000000000
         H            0.000433462998     0.000031340308     1.650629335689     1.007825032230

  Basis Set: AUG-CC-PVTZ
    Blend: AUG-CC-PVTZ
  Basis Set: (AUG-CC-PVTZ AUX)
    Blend: AUG-CC-PVTZ-JKFIT + DEF2-UNIVERSAL-JKFIT
	 Reference Energy          =    -922.4201922910307303 [Eh]
	 Singles Energy            =      -0.0000000000000000 [Eh]
	 Same-Spin Energy          =      -0.2751954651759654 [Eh]
	 Opposite-Spin Energy      =      -0.6676906095955948 [Eh]
	 Correlation Energy        =      -0.9428860747715602 [Eh]
	 Total Energy              =    -923.3630783658022665 [Eh]

	 ================> DF-SCS-MP2 Energies <==================
	-----------------------------------------------------------
	 SCS Same-Spin Scale       =       0.3333333333333333 [-]
	 SCS Opposite-Spin Scale   =       1.2000000000000000 [-]
	 SCS Same-Spin Energy      =      -0.0917318217253218 [Eh]
	 SCS Opposite-Spin Energy  =      -0.8012287315147137 [Eh]
	 SCS Correlation Energy    =      -0.8929605532400355 [Eh]
	 SCS Total Energy          =    -923.3131528442708031 [Eh]
	-----------------------------------------------------------

  Dipole Moment: [D]
     X:    -0.0617      Y:    -0.0357      Z:     0.5578     Total:     0.5623

*** Psi4 exiting successfully. Buy a developer a beer!
