                               Psi4 1.3.2 release

  ==> Input File <==

--------------------------------------------------------------------------
#psi4
#
memory 32 gb

molecule  {
0 1
  I       -1.7999010    -1.0409970    -0.0315430
  I        1.8014910    -1.0382480    -0.0313790
  I       -0.0015860     2.0792570    -0.0309720
  C        0.1665853     0.0962960     0.6102061
  H       -0.0000740    -0.0002610     1.6413420
units angstrom
no_reorient  #important for SAPT in psi4, default
symmetry c1  #important for SAPT in psi4, default
}

set PROPERTIES_ORIGIN ["COM"]

basis mybas {
    assign aug-cc-pvtz
    assign I aug-cc-pvtz-pp
}
properties('MP2/mybas', properties = ['dipole'])
--------------------------------------------------------------------------

    Molecular point group: c1
  Charge       = 0
  Multiplicity = 1
  Basis Set: MYBAS
    Blend: AUG-CC-PVTZ + AUG-CC-PVTZ-PP
  Basis Set: (MYBAS AUX)
    Blend: AUG-CC-PVTZ-JKFIT + DEF2-QZVPP-JKFIT

    Orbital Energies [Eh]
    ---------------------

    Doubly Occupied:

       1A    -11.388117     2A     -7.748893     3A     -7.748890
       4A     -7.726559     5A     -5.581797     6A     -5.581792
       7A     -5.570312     8A     -5.570308     9A     -5.570231
      10A     -5.570226    11A     -5.558745    12A     -5.548133
      13A     -5.548027    14A     -2.311890    15A     -2.311696
      16A     -2.306044    17A     -2.306022    18A     -2.305965
      19A     -2.305904    20A     -2.293249    21A     -2.293246
      22A     -2.293242    23A     -2.293239    24A     -2.287438
      25A     -2.283102    26A     -2.282998    27A     -2.271247
      28A     -2.271247    29A     -1.054149    30A     -0.916146
      31A     -0.884846    32A     -0.810781    33A     -0.599122
      34A     -0.517847    35A     -0.495034    36A     -0.406361
      37A     -0.399734    38A     -0.380428    39A     -0.379499
      40A     -0.359791    41A     -0.356210

  @DF-RHF Final Energy:  -922.40855687400222

   => Energetics <=

    Nuclear Repulsion Energy =            402.9604721880904776
    One-Electron Energy =               -2397.3610539827136563
    Two-Electron Energy =                1071.9920249206209064
    Total Energy =                       -922.4085568740022154
  Basis Set: (MYBAS AUX)
    Blend: AUG-CC-PVTZ-RI + DEF2-QZVPP-RI
    Molecular point group: c1

    Geometry (in Angstrom), charge = 0, multiplicity = 1:

       Center              X                  Y                   Z               Mass
    ------------   -----------------  -----------------  -----------------  -----------------
         I           -1.804979356035    -1.043935149360    -0.024078557073   126.904471900000
         I            1.796412643965    -1.041186149360    -0.023914557073   126.904471900000
         I           -0.006664356035     2.076318850640    -0.023507557073   126.904471900000
         C            0.161506943965     0.093357850640     0.617670542927    12.000000000000
         H           -0.005152356035    -0.003199149360     1.648806442927     1.007825032230

  Basis Set: MYBAS
    Blend: AUG-CC-PVTZ + AUG-CC-PVTZ-PP
  Basis Set: (MYBAS AUX)
    Blend: AUG-CC-PVTZ-JKFIT + DEF2-QZVPP-JKFIT
	 Reference Energy          =    -922.4085568740022154 [Eh]
	 Singles Energy            =      -0.0000000000000000 [Eh]
	 Same-Spin Energy          =      -0.2755914848339535 [Eh]
	 Opposite-Spin Energy      =      -0.6686357095715667 [Eh]
	 Correlation Energy        =      -0.9442271944055203 [Eh]
	 Total Energy              =    -923.3527840684076864 [Eh]

	 ================> DF-SCS-MP2 Energies <==================
	-----------------------------------------------------------
	 SCS Same-Spin Scale       =       0.3333333333333333 [-]
	 SCS Opposite-Spin Scale   =       1.2000000000000000 [-]
	 SCS Same-Spin Energy      =      -0.0918638282779845 [Eh]
	 SCS Opposite-Spin Energy  =      -0.8023628514858800 [Eh]
	 SCS Correlation Energy    =      -0.8942266797638645 [Eh]
	 SCS Total Energy          =    -923.3027835537660621 [Eh]
	-----------------------------------------------------------

  Dipole Moment: [D]
     X:     0.6225      Y:     0.3601      Z:     0.5077     Total:     0.8803

*** Psi4 exiting successfully. Buy a developer a beer!
