                               Psi4 1.3.2 release

  ==> Input File <==

--------------------------------------------------------------------------
#psi4
#
memory 32 gb

molecule  {
0 1
  I       -1.7999010    -1.0409970    -0.0315430
  I        1.8014910    -1.0382480    -0.0313790
  I       -0.0015860     2.0792570    -0.0309720
  C       -0.1666353    -0.0964180     0.5014619
  H       -0.0000740    -0.0002610     1.6413420
units angstrom
no_reorient  #important for SAPT in psi4, default
symmetry c1  #important for SAPT in psi4, default
}

set PROPERTIES_ORIGIN ["COM"]

basis mybas {
    assign aug-cc-pvtz
    assign I aug-cc-pvtz-pp
}
properties('MP2/mybas', properties = ['dipole'])
--------------------------------------------------------------------------

    Molecular point group: c1
  Charge       = 0
  Multiplicity = 1
  Basis Set: MYBAS
    Blend: AUG-CC-PVTZ + AUG-CC-PVTZ-PP
  Basis Set: (MYBAS AUX)
    Blend: AUG-CC-PVTZ-JKFIT + DEF2-QZVPP-JKFIT

    Orbital Energies [Eh]
    ---------------------

    Doubly Occupied:

       1A    -11.390469     2A     -7.753250     3A     -7.736045
       4A     -7.736042     5A     -5.586245     6A     -5.574918
       7A     -5.574787     8A     -5.568636     9A     -5.568630
      10A     -5.557444    11A     -5.557440    12A     -5.557385
      13A     -5.557380    14A     -2.317476    15A     -2.310677
      16A     -2.310549    17A     -2.298141    18A     -2.298138
      19A     -2.297797    20A     -2.297670    21A     -2.292857
      22A     -2.292849    23A     -2.292826    24A     -2.292754
      25A     -2.280403    26A     -2.280394    27A     -2.280393
      28A     -2.280389    29A     -1.057949    30A     -0.914621
      31A     -0.890349    32A     -0.785597    33A     -0.591848
      34A     -0.516541    35A     -0.506091    36A     -0.405914
      37A     -0.391987    38A     -0.381243    39A     -0.374743
      40A     -0.366258    41A     -0.357370

  @DF-RHF Final Energy:  -922.39945554296605

   => Energetics <=

    Nuclear Repulsion Energy =            404.2963976566318252
    One-Electron Energy =               -2400.0267153510085336
    Two-Electron Energy =                1073.3308621514106562
    Total Energy =                       -922.3994555429660522
  Basis Set: (MYBAS AUX)
    Blend: AUG-CC-PVTZ-RI + DEF2-QZVPP-RI
    Molecular point group: c1

    Geometry (in Angstrom), charge = 0, multiplicity = 1:

       Center              X                  Y                   Z               Mass
    ------------   -----------------  -----------------  -----------------  -----------------
         I           -1.794823319768    -1.038061531783    -0.020764206043   126.904471900000
         I            1.806568680232    -1.035312531783    -0.020600206043   126.904471900000
         I            0.003491680232     2.082192468217    -0.020193206043   126.904471900000
         C           -0.161557619768    -0.093482531783     0.512240693957    12.000000000000
         H            0.005003680232     0.002674468217     1.652120793957     1.007825032230

  Basis Set: MYBAS
    Blend: AUG-CC-PVTZ + AUG-CC-PVTZ-PP
  Basis Set: (MYBAS AUX)
    Blend: AUG-CC-PVTZ-JKFIT + DEF2-QZVPP-JKFIT
	 Reference Energy          =    -922.3994555429660522 [Eh]
	 Singles Energy            =      -0.0000000000000000 [Eh]
	 Same-Spin Energy          =      -0.2769707068404587 [Eh]
	 Opposite-Spin Energy      =      -0.6698438730694225 [Eh]
	 Correlation Energy        =      -0.9468145799098813 [Eh]
	 Total Energy              =    -923.3462701228759215 [Eh]

	 ================> DF-SCS-MP2 Energies <==================
	-----------------------------------------------------------
	 SCS Same-Spin Scale       =       0.3333333333333333 [-]
	 SCS Opposite-Spin Scale   =       1.2000000000000000 [-]
	 SCS Same-Spin Energy      =      -0.0923235689468196 [Eh]
	 SCS Opposite-Spin Energy  =      -0.8038126476833070 [Eh]
	 SCS Correlation Energy    =      -0.8961362166301265 [Eh]
	 SCS Total Energy          =    -923.2955917595961637 [Eh]
	-----------------------------------------------------------

  Dipole Moment: [D]
     X:    -0.6627      Y:    -0.3832      Z:     0.6003     Total:     0.9728

*** Psi4 exiting successfully. Buy a developer a beer!
