                               Psi4 1.3.2 release

  ==> Input File <==

--------------------------------------------------------------------------
#psi4
#
memory 32 gb

molecule  {
0 1
  I       -1.7999010    -1.0409970    -0.0315430
  I        1.8014910    -1.0382480    -0.0313790
  I       -0.0015860     2.0792570    -0.0309720
  C        0.0832802     0.0481175     0.5830201
  H       -0.0000740    -0.0002610     1.6413420
units angstrom
no_reorient  #important for SAPT in psi4, default
symmetry c1  #important for SAPT in psi4, default
}

set PROPERTIES_ORIGIN ["COM"]

basis mybas {
    assign aug-cc-pvtz
    assign I aug-cc-pvtz-pp
}
properties('MP2/mybas', properties = ['dipole'])
--------------------------------------------------------------------------

    Molecular point group: c1
  Charge       = 0
  Multiplicity = 1
  Basis Set: MYBAS
    Blend: AUG-CC-PVTZ + AUG-CC-PVTZ-PP
  Basis Set: (MYBAS AUX)
    Blend: AUG-CC-PVTZ-JKFIT + DEF2-QZVPP-JKFIT

    Orbital Energies [Eh]
    ---------------------

    Doubly Occupied:

       1A    -11.385406     2A     -7.744878     3A     -7.744875
       4A     -7.734752     5A     -5.577681     6A     -5.577676
       7A     -5.567249     8A     -5.566289     9A     -5.566285
      10A     -5.566254    11A     -5.566250    12A     -5.556203
      13A     -5.556126    14A     -2.307527    15A     -2.307345
      16A     -2.301907    17A     -2.301895    18A     -2.301890
      19A     -2.301829    20A     -2.296284    21A     -2.291504
      22A     -2.291429    23A     -2.289260    24A     -2.289258
      25A     -2.289257    26A     -2.289254    27A     -2.279188
      28A     -2.279187    29A     -1.049328    30A     -0.908828
      31A     -0.893753    32A     -0.806044    33A     -0.593004
      34A     -0.511423    35A     -0.500729    36A     -0.403543
      37A     -0.398291    38A     -0.384381    39A     -0.376519
      40A     -0.367352    41A     -0.358366

  @DF-RHF Final Energy:  -922.41717876042185

   => Energetics <=

    Nuclear Repulsion Energy =            403.2365214514147169
    One-Electron Energy =               -2397.9504040961351166
    Two-Electron Energy =                1072.2967038842984948
    Total Energy =                       -922.4171787604218480
  Basis Set: (MYBAS AUX)
    Blend: AUG-CC-PVTZ-RI + DEF2-QZVPP-RI
    Molecular point group: c1

    Geometry (in Angstrom), charge = 0, multiplicity = 1:

       Center              X                  Y                   Z               Mass
    ------------   -----------------  -----------------  -----------------  -----------------
         I           -1.802440348492    -1.042466744965    -0.023249970839   126.904471900000
         I            1.798951651508    -1.039717744965    -0.023085970839   126.904471900000
         I           -0.004125348492     2.077787255035    -0.022678970839   126.904471900000
         C            0.080740851508     0.046647755035     0.591313129161    12.000000000000
         H           -0.002613348492    -0.001730744965     1.649635029161     1.007825032230

  Basis Set: MYBAS
    Blend: AUG-CC-PVTZ + AUG-CC-PVTZ-PP
  Basis Set: (MYBAS AUX)
    Blend: AUG-CC-PVTZ-JKFIT + DEF2-QZVPP-JKFIT
	 Reference Energy          =    -922.4171787604218480 [Eh]
	 Singles Energy            =      -0.0000000000000000 [Eh]
	 Same-Spin Energy          =      -0.2751542041013570 [Eh]
	 Opposite-Spin Energy      =      -0.6678794250821812 [Eh]
	 Correlation Energy        =      -0.9430336291835383 [Eh]
	 Total Energy              =    -923.3602123896054081 [Eh]

	 ================> DF-SCS-MP2 Energies <==================
	-----------------------------------------------------------
	 SCS Same-Spin Scale       =       0.3333333333333333 [-]
	 SCS Opposite-Spin Scale   =       1.2000000000000000 [-]
	 SCS Same-Spin Energy      =      -0.0917180680337857 [Eh]
	 SCS Opposite-Spin Energy  =      -0.8014553100986175 [Eh]
	 SCS Correlation Energy    =      -0.8931733781324032 [Eh]
	 SCS Total Energy          =    -923.3103521385542081 [Eh]
	-----------------------------------------------------------

  Dipole Moment: [D]
     X:     0.3088      Y:     0.1786      Z:     0.5309     Total:     0.6396

*** Psi4 exiting successfully. Buy a developer a beer!
