                               Psi4 1.3.2 release

  ==> Input File <==

--------------------------------------------------------------------------
#psi4
#
memory 32 gb

molecule  {
0 1
  I       -1.8309746    -1.0589928     0.1149260
  I        1.8014910    -1.0382480    -0.0313790
  I       -0.0015860     2.0792570    -0.0309720
  C       -0.0000250    -0.0000610     0.5558340
  H       -0.0000740    -0.0002610     1.6413420
units angstrom
no_reorient  #important for SAPT in psi4, default
symmetry c1  #important for SAPT in psi4, default
}

set PROPERTIES_ORIGIN ["COM"]

basis mybas {
    assign aug-cc-pvtz
    assign I aug-cc-pvtz-pp
}
properties('MP2/mybas', properties = ['dipole'])
--------------------------------------------------------------------------

    Molecular point group: c1
  Charge       = 0
  Multiplicity = 1
  Basis Set: MYBAS
    Blend: AUG-CC-PVTZ + AUG-CC-PVTZ-PP
  Basis Set: (MYBAS AUX)
    Blend: AUG-CC-PVTZ-JKFIT + DEF2-QZVPP-JKFIT

    Orbital Energies [Eh]
    ---------------------

    Doubly Occupied:

       1A    -11.384426     2A     -7.742219     3A     -7.742215
       4A     -7.741374     5A     -5.574958     6A     -5.574954
       7A     -5.574058     8A     -5.563611     9A     -5.563607
      10A     -5.563582    11A     -5.563577    12A     -5.562795
      13A     -5.562777    14A     -2.304566    15A     -2.304394
      16A     -2.303555    17A     -2.299159    18A     -2.299158
      19A     -2.299148    20A     -2.299092    21A     -2.298276
      22A     -2.298270    23A     -2.286567    24A     -2.286563
      25A     -2.286561    26A     -2.286559    27A     -2.285799
      28A     -2.285795    29A     -1.047103    30A     -0.903298
      31A     -0.902364    32A     -0.798728    33A     -0.587791
      34A     -0.507790    35A     -0.506674    36A     -0.400780
      37A     -0.398792    38A     -0.381738    39A     -0.375369
      40A     -0.374327    41A     -0.360263

  @DF-RHF Final Energy:  -922.41973349105820

   => Energetics <=

    Nuclear Repulsion Energy =            401.9141656592977370
    One-Electron Energy =               -2395.3025356074358569
    Two-Electron Energy =                1070.9686364570798105
    Total Energy =                       -922.4197334910581958
  Basis Set: (MYBAS AUX)
    Blend: AUG-CC-PVTZ-RI + DEF2-QZVPP-RI
    Molecular point group: c1

    Geometry (in Angstrom), charge = 0, multiplicity = 1:

       Center              X                  Y                   Z               Mass
    ------------   -----------------  -----------------  -----------------  -----------------
         I           -1.820959276082    -1.053193723273     0.076837640489   126.904471900000
         I            1.811506323918    -1.032448923273    -0.069467359511   126.904471900000
         I            0.008429323918     2.085056076727    -0.069060359511   126.904471900000
         C            0.009990323918     0.005738076727     0.517745640489    12.000000000000
         H            0.009941323918     0.005538076727     1.603253640489     1.007825032230

  Basis Set: MYBAS
    Blend: AUG-CC-PVTZ + AUG-CC-PVTZ-PP
  Basis Set: (MYBAS AUX)
    Blend: AUG-CC-PVTZ-JKFIT + DEF2-QZVPP-JKFIT
	 Reference Energy          =    -922.4197334910581958 [Eh]
	 Singles Energy            =      -0.0000000000000000 [Eh]
	 Same-Spin Energy          =      -0.2750341130909068 [Eh]
	 Opposite-Spin Energy      =      -0.6676133479702417 [Eh]
	 Correlation Energy        =      -0.9426474610611485 [Eh]
	 Total Energy              =    -923.3623809521193380 [Eh]

	 ================> DF-SCS-MP2 Energies <==================
	-----------------------------------------------------------
	 SCS Same-Spin Scale       =       0.3333333333333333 [-]
	 SCS Opposite-Spin Scale   =       1.2000000000000000 [-]
	 SCS Same-Spin Energy      =      -0.0916780376969689 [Eh]
	 SCS Opposite-Spin Energy  =      -0.8011360175642901 [Eh]
	 SCS Correlation Energy    =      -0.8928140552612590 [Eh]
	 SCS Total Energy          =    -923.3125475463194789 [Eh]
	-----------------------------------------------------------

  Dipole Moment: [D]
     X:     0.0479      Y:     0.0277      Z:     0.5669     Total:     0.5696

*** Psi4 exiting successfully. Buy a developer a beer!
