                               Psi4 1.3.2 release

  ==> Input File <==

--------------------------------------------------------------------------
#psi4
#
memory 32 gb

molecule  {
0 1
  I       -1.7369080    -1.0045287    -0.2456616
  I        1.8014910    -1.0382480    -0.0313790
  I       -0.0015860     2.0792570    -0.0309720
  C       -0.0000250    -0.0000610     0.5558340
  H       -0.0000740    -0.0002610     1.6413420
units angstrom
no_reorient  #important for SAPT in psi4, default
symmetry c1  #important for SAPT in psi4, default
}

set PROPERTIES_ORIGIN ["COM"]

basis mybas {
    assign aug-cc-pvtz
    assign I aug-cc-pvtz-pp
}
properties('MP2/mybas', properties = ['dipole'])
--------------------------------------------------------------------------

    Molecular point group: c1
  Charge       = 0
  Multiplicity = 1
  Basis Set: MYBAS
    Blend: AUG-CC-PVTZ + AUG-CC-PVTZ-PP
  Basis Set: (MYBAS AUX)
    Blend: AUG-CC-PVTZ-JKFIT + DEF2-QZVPP-JKFIT

    Orbital Energies [Eh]
    ---------------------

    Doubly Occupied:

       1A    -11.386019     2A     -7.742031     3A     -7.740530
       4A     -7.740527     5A     -5.574831     6A     -5.573216
       7A     -5.573211     8A     -5.563434     9A     -5.563324
      10A     -5.561978    11A     -5.561974    12A     -5.561924
      13A     -5.561919    14A     -2.304392    15A     -2.302821
      16A     -2.302663    17A     -2.299055    18A     -2.298961
      19A     -2.297495    20A     -2.297457    21A     -2.297442
      22A     -2.297397    23A     -2.286325    24A     -2.286322
      25A     -2.284977    26A     -2.284976    27A     -2.284973
      28A     -2.284971    29A     -1.047747    30A     -0.901910
      31A     -0.900555    32A     -0.802248    33A     -0.591672
      34A     -0.507588    35A     -0.505308    36A     -0.402995
      37A     -0.399960    38A     -0.387485    39A     -0.371283
      40A     -0.369387    41A     -0.357005

  @DF-RHF Final Energy:  -922.41921240772308

   => Energetics <=

    Nuclear Repulsion Energy =            406.2868331974462421
    One-Electron Energy =               -2404.0915158546017665
    Two-Electron Energy =                1075.3854702494325011
    Total Energy =                       -922.4192124077230801
  Basis Set: (MYBAS AUX)
    Blend: AUG-CC-PVTZ-RI + DEF2-QZVPP-RI
    Molecular point group: c1

    Geometry (in Angstrom), charge = 0, multiplicity = 1:

       Center              X                  Y                   Z               Mass
    ------------   -----------------  -----------------  -----------------  -----------------
         I           -1.757212280314    -1.016284525404    -0.167525143023   126.904471900000
         I            1.781186719686    -1.050003825404     0.046757456977   126.904471900000
         I           -0.021890280314     2.067501174596     0.047164456977   126.904471900000
         C           -0.020329280314    -0.011816825404     0.633970456977    12.000000000000
         H           -0.020378280314    -0.012016825404     1.719478456977     1.007825032230

  Basis Set: MYBAS
    Blend: AUG-CC-PVTZ + AUG-CC-PVTZ-PP
  Basis Set: (MYBAS AUX)
    Blend: AUG-CC-PVTZ-JKFIT + DEF2-QZVPP-JKFIT
	 Reference Energy          =    -922.4192124077230801 [Eh]
	 Singles Energy            =      -0.0000000000000000 [Eh]
	 Same-Spin Energy          =      -0.2754224411560752 [Eh]
	 Opposite-Spin Energy      =      -0.6679315049737979 [Eh]
	 Correlation Energy        =      -0.9433539461298732 [Eh]
	 Total Energy              =    -923.3625663538529125 [Eh]

	 ================> DF-SCS-MP2 Energies <==================
	-----------------------------------------------------------
	 SCS Same-Spin Scale       =       0.3333333333333333 [-]
	 SCS Opposite-Spin Scale   =       1.2000000000000000 [-]
	 SCS Same-Spin Energy      =      -0.0918074803853584 [Eh]
	 SCS Opposite-Spin Energy  =      -0.8015178059685575 [Eh]
	 SCS Correlation Energy    =      -0.8933252863539158 [Eh]
	 SCS Total Energy          =    -923.3125376940770366 [Eh]
	-----------------------------------------------------------

  Dipole Moment: [D]
     X:    -0.0695      Y:    -0.0402      Z:     0.5228     Total:     0.5289

*** Psi4 exiting successfully. Buy a developer a beer!
