                               Psi4 1.3.2 release

  ==> Input File <==

--------------------------------------------------------------------------
#psi4
#
memory 32 gb

molecule  {
0 1
  I       -1.6651062    -1.1990793    -0.1209028
  I        1.8014910    -1.0382480    -0.0313790
  I       -0.0015860     2.0792570    -0.0309720
  C       -0.0000250    -0.0000610     0.5558340
  H       -0.0000740    -0.0002610     1.6413420
units angstrom
no_reorient  #important for SAPT in psi4, default
symmetry c1  #important for SAPT in psi4, default
}

set PROPERTIES_ORIGIN ["COM"]

basis mybas {
    assign aug-cc-pvtz
    assign I aug-cc-pvtz-pp
}
properties('MP2/mybas', properties = ['dipole'])
--------------------------------------------------------------------------

    Molecular point group: c1
  Charge       = 0
  Multiplicity = 1
  Basis Set: MYBAS
    Blend: AUG-CC-PVTZ + AUG-CC-PVTZ-PP
  Basis Set: (MYBAS AUX)
    Blend: AUG-CC-PVTZ-JKFIT + DEF2-QZVPP-JKFIT

    Orbital Energies [Eh]
    ---------------------

    Doubly Occupied:

       1A    -11.385372     2A     -7.743153     3A     -7.741717
       4A     -7.739080     5A     -5.575886     6A     -5.574485
       7A     -5.571767     8A     -5.564550     9A     -5.564509
      10A     -5.563148    11A     -5.563017    12A     -5.560563
      13A     -5.560451    14A     -2.305406    15A     -2.304025
      16A     -2.301311    17A     -2.300083    18A     -2.300043
      19A     -2.298733    20A     -2.298619    21A     -2.296073
      22A     -2.295973    23A     -2.287496    24A     -2.287493
      25A     -2.286052    26A     -2.286045    27A     -2.283552
      28A     -2.283547    29A     -1.047624    30A     -0.905601
      31A     -0.897734    32A     -0.801198    33A     -0.590194
      34A     -0.510454    35A     -0.503060    36A     -0.405369
      37A     -0.396761    38A     -0.385911    39A     -0.376057
      40A     -0.368923    41A     -0.355997

  @DF-RHF Final Energy:  -922.41861240526930

   => Energetics <=

    Nuclear Repulsion Energy =            404.9947461502985107
    One-Electron Energy =               -2401.4926513027467081
    Two-Electron Energy =                1074.0792927471791245
    Total Energy =                       -922.4186124052691866
  Basis Set: (MYBAS AUX)
    Blend: AUG-CC-PVTZ-RI + DEF2-QZVPP-RI
    Molecular point group: c1

    Geometry (in Angstrom), charge = 0, multiplicity = 1:

       Center              X                  Y                   Z               Mass
    ------------   -----------------  -----------------  -----------------  -----------------
         I           -1.708553680547    -1.148127456636    -0.082978675991   126.904471900000
         I            1.758043519453    -0.987296156636     0.006545124009   126.904471900000
         I           -0.045033480547     2.130208843364     0.006952124009   126.904471900000
         C           -0.043472480547     0.050890843364     0.593758124009    12.000000000000
         H           -0.043521480547     0.050690843364     1.679266124009     1.007825032230

  Basis Set: MYBAS
    Blend: AUG-CC-PVTZ + AUG-CC-PVTZ-PP
  Basis Set: (MYBAS AUX)
    Blend: AUG-CC-PVTZ-JKFIT + DEF2-QZVPP-JKFIT
	 Reference Energy          =    -922.4186124052693003 [Eh]
	 Singles Energy            =      -0.0000000000000000 [Eh]
	 Same-Spin Energy          =      -0.2753545837497507 [Eh]
	 Opposite-Spin Energy      =      -0.6679246537786405 [Eh]
	 Correlation Energy        =      -0.9432792375283913 [Eh]
	 Total Energy              =    -923.3618916427976728 [Eh]

	 ================> DF-SCS-MP2 Energies <==================
	-----------------------------------------------------------
	 SCS Same-Spin Scale       =       0.3333333333333333 [-]
	 SCS Opposite-Spin Scale   =       1.2000000000000000 [-]
	 SCS Same-Spin Energy      =      -0.0917848612499169 [Eh]
	 SCS Opposite-Spin Energy  =      -0.8015095845343686 [Eh]
	 SCS Correlation Energy    =      -0.8932944457842855 [Eh]
	 SCS Total Energy          =    -923.3119068510535499 [Eh]
	-----------------------------------------------------------

  Dipole Moment: [D]
     X:    -0.0525      Y:     0.0241      Z:     0.5407     Total:     0.5438

*** Psi4 exiting successfully. Buy a developer a beer!
