                               Psi4 1.3.2 release

  ==> Input File <==

--------------------------------------------------------------------------
#psi4
#
memory 32 gb

molecule  {
0 1
  I       -1.8788912    -0.9291605     0.0316689
  I        1.8014910    -1.0382480    -0.0313790
  I       -0.0015860     2.0792570    -0.0309720
  C       -0.0000250    -0.0000610     0.5558340
  H       -0.0000740    -0.0002610     1.6413420
units angstrom
no_reorient  #important for SAPT in psi4, default
symmetry c1  #important for SAPT in psi4, default
}

set PROPERTIES_ORIGIN ["COM"]

basis mybas {
    assign aug-cc-pvtz
    assign I aug-cc-pvtz-pp
}
properties('MP2/mybas', properties = ['dipole'])
--------------------------------------------------------------------------

    Molecular point group: c1
  Charge       = 0
  Multiplicity = 1
  Basis Set: MYBAS
    Blend: AUG-CC-PVTZ + AUG-CC-PVTZ-PP
  Basis Set: (MYBAS AUX)
    Blend: AUG-CC-PVTZ-JKFIT + DEF2-QZVPP-JKFIT

    Orbital Energies [Eh]
    ---------------------

    Doubly Occupied:

       1A    -11.384785     2A     -7.743213     3A     -7.741458
       4A     -7.740465     5A     -5.575963     6A     -5.574168
       7A     -5.573173     8A     -5.564600     9A     -5.564559
      10A     -5.562892    11A     -5.562821    12A     -5.561905
      13A     -5.561835    14A     -2.305480    15A     -2.303692
      16A     -2.302696    17A     -2.300150    18A     -2.300110
      19A     -2.298410    20A     -2.298344    21A     -2.297427
      22A     -2.297360    23A     -2.287534    24A     -2.287531
      25A     -2.285856    26A     -2.285851    27A     -2.284880
      28A     -2.284877    29A     -1.047239    30A     -0.904899
      31A     -0.899917    32A     -0.799613    33A     -0.588575
      34A     -0.509552    35A     -0.504662    36A     -0.402857
      37A     -0.397548    38A     -0.383276    39A     -0.376477
      40A     -0.371585    41A     -0.358775

  @DF-RHF Final Energy:  -922.41960307578665

   => Energetics <=

    Nuclear Repulsion Energy =            402.9631393852818633
    One-Electron Energy =               -2397.4114654926161165
    Two-Electron Energy =                1072.0287230315475426
    Total Energy =                       -922.4196030757866538
  Basis Set: (MYBAS AUX)
    Blend: AUG-CC-PVTZ-RI + DEF2-QZVPP-RI
    Molecular point group: c1

    Geometry (in Angstrom), charge = 0, multiplicity = 1:

       Center              X                  Y                   Z               Mass
    ------------   -----------------  -----------------  -----------------  -----------------
         I           -1.853431368169    -0.965209049874     0.020416020047   126.904471900000
         I            1.826950831831    -1.074296549874    -0.042631879953   126.904471900000
         I            0.023873831831     2.043208450126    -0.042224879953   126.904471900000
         C            0.025434831831    -0.036109549874     0.544581120047    12.000000000000
         H            0.025385831831    -0.036309549874     1.630089120047     1.007825032230

  Basis Set: MYBAS
    Blend: AUG-CC-PVTZ + AUG-CC-PVTZ-PP
  Basis Set: (MYBAS AUX)
    Blend: AUG-CC-PVTZ-JKFIT + DEF2-QZVPP-JKFIT
	 Reference Energy          =    -922.4196030757866538 [Eh]
	 Singles Energy            =      -0.0000000000000000 [Eh]
	 Same-Spin Energy          =      -0.2751319340187563 [Eh]
	 Opposite-Spin Energy      =      -0.6676976588761325 [Eh]
	 Correlation Energy        =      -0.9428295928948889 [Eh]
	 Total Energy              =    -923.3624326686815493 [Eh]

	 ================> DF-SCS-MP2 Energies <==================
	-----------------------------------------------------------
	 SCS Same-Spin Scale       =       0.3333333333333333 [-]
	 SCS Opposite-Spin Scale   =       1.2000000000000000 [-]
	 SCS Same-Spin Energy      =      -0.0917106446729188 [Eh]
	 SCS Opposite-Spin Energy  =      -0.8012371906513590 [Eh]
	 SCS Correlation Energy    =      -0.8929478353242778 [Eh]
	 SCS Total Energy          =    -923.3125509111109750 [Eh]
	-----------------------------------------------------------

  Dipole Moment: [D]
     X:     0.0383      Y:    -0.0182      Z:     0.5594     Total:     0.5610

*** Psi4 exiting successfully. Buy a developer a beer!
