                               Psi4 1.3.2 release

  ==> Input File <==

--------------------------------------------------------------------------
#psi4
#
memory 32 gb

molecule  {
0 1
  I       -1.7121420    -1.1477621    -0.0918932
  I        1.8014910    -1.0382480    -0.0313790
  I       -0.0015860     2.0792570    -0.0309720
  C       -0.0000250    -0.0000610     0.5558340
  H       -0.0000740    -0.0002610     1.6413420
units angstrom
no_reorient  #important for SAPT in psi4, default
symmetry c1  #important for SAPT in psi4, default
}

set PROPERTIES_ORIGIN ["COM"]

basis mybas {
    assign aug-cc-pvtz
    assign I aug-cc-pvtz-pp
}
properties('MP2/mybas', properties = ['dipole'])
--------------------------------------------------------------------------

    Molecular point group: c1
  Charge       = 0
  Multiplicity = 1
  Basis Set: MYBAS
    Blend: AUG-CC-PVTZ + AUG-CC-PVTZ-PP
  Basis Set: (MYBAS AUX)
    Blend: AUG-CC-PVTZ-JKFIT + DEF2-QZVPP-JKFIT

    Orbital Energies [Eh]
    ---------------------

    Doubly Occupied:

       1A    -11.385345     2A     -7.742634     3A     -7.741666
       4A     -7.739906     5A     -5.575360     6A     -5.574410
       7A     -5.572599     8A     -5.564031     9A     -5.564003
      10A     -5.563091    11A     -5.562998    12A     -5.561366
      13A     -5.561282    14A     -2.304886    15A     -2.303942
      16A     -2.302131    17A     -2.299560    18A     -2.299533
      19A     -2.298647    20A     -2.298566    21A     -2.296876
      22A     -2.296799    23A     -2.286992    24A     -2.286990
      25A     -2.286023    26A     -2.286019    27A     -2.284352
      28A     -2.284349    29A     -1.047425    30A     -0.904450
      31A     -0.899271    32A     -0.800823    33A     -0.589868
      34A     -0.509328    35A     -0.504404    36A     -0.403551
      37A     -0.397922    38A     -0.385312    39A     -0.375021
      40A     -0.370123    41A     -0.357571

  @DF-RHF Final Energy:  -922.41964498131119

   => Energetics <=

    Nuclear Repulsion Energy =            404.4163038694122747
    One-Electron Energy =               -2400.3330517712593064
    Two-Electron Energy =                1073.4971029205357809
    Total Energy =                       -922.4196449813111940
  Basis Set: (MYBAS AUX)
    Blend: AUG-CC-PVTZ-RI + DEF2-QZVPP-RI
    Molecular point group: c1

    Geometry (in Angstrom), charge = 0, multiplicity = 1:

       Center              X                  Y                   Z               Mass
    ------------   -----------------  -----------------  -----------------  -----------------
         I           -1.740428872630    -1.113350848028    -0.063319468063   126.904471900000
         I            1.773204127370    -1.003836748028    -0.002805268063   126.904471900000
         I           -0.029872872630     2.113668251972    -0.002398268063   126.904471900000
         C           -0.028311872630     0.034350251972     0.584407731937    12.000000000000
         H           -0.028360872630     0.034150251972     1.669915731937     1.007825032230

  Basis Set: MYBAS
    Blend: AUG-CC-PVTZ + AUG-CC-PVTZ-PP
  Basis Set: (MYBAS AUX)
    Blend: AUG-CC-PVTZ-JKFIT + DEF2-QZVPP-JKFIT
	 Reference Energy          =    -922.4196449813111940 [Eh]
	 Singles Energy            =      -0.0000000000000000 [Eh]
	 Same-Spin Energy          =      -0.2752512630025822 [Eh]
	 Opposite-Spin Energy      =      -0.6677836161497829 [Eh]
	 Correlation Energy        =      -0.9430348791523651 [Eh]
	 Total Energy              =    -923.3626798604635724 [Eh]

	 ================> DF-SCS-MP2 Energies <==================
	-----------------------------------------------------------
	 SCS Same-Spin Scale       =       0.3333333333333333 [-]
	 SCS Opposite-Spin Scale   =       1.2000000000000000 [-]
	 SCS Same-Spin Energy      =      -0.0917504210008607 [Eh]
	 SCS Opposite-Spin Energy  =      -0.8013403393797395 [Eh]
	 SCS Correlation Energy    =      -0.8930907603806002 [Eh]
	 SCS Total Energy          =    -923.3127357416917675 [Eh]
	-----------------------------------------------------------

  Dipole Moment: [D]
     X:    -0.0359      Y:     0.0167      Z:     0.5454     Total:     0.5468

*** Psi4 exiting successfully. Buy a developer a beer!
