                               Psi4 1.4a3.dev225

  ==> Input File <==

--------------------------------------------------------------------------
#psi4
#
memory 32 gb

molecule  {
0 1
  I       -1.7999010    -1.0409970    -0.0315430
  I        1.8014910    -1.0382480    -0.0313790
  I       -0.0015860     2.0792570    -0.0309720
  C        0.0166360     0.0095747     0.5612712
  H       -0.0000740    -0.0002610     1.6413420
units angstrom
no_reorient  #important for SAPT in psi4, default
symmetry c1  #important for SAPT in psi4, default
}

set PROPERTIES_ORIGIN ["COM"]
properties('MP2/aug-cc-pvtz', properties = ['dipole'])
--------------------------------------------------------------------------

    Molecular point group: c1
  Charge       = 0
  Multiplicity = 1
  Basis Set: AUG-CC-PVTZ
    Blend: AUG-CC-PVTZ
  Basis Set: (AUG-CC-PVTZ AUX)
    Blend: AUG-CC-PVTZ-JKFIT + DEF2-UNIVERSAL-JKFIT

    Orbital Energies [Eh]
    ---------------------

    Doubly Occupied:

       1A    -11.385017     2A     -7.742181     3A     -7.742178
       4A     -7.740292     5A     -5.574913     6A     -5.574908
       7A     -5.572971     8A     -5.563593     9A     -5.563589
      10A     -5.563561    11A     -5.563557    12A     -5.561706
      13A     -5.561662    14A     -2.304570    15A     -2.304396
      16A     -2.302378    17A     -2.299143    18A     -2.299125
      19A     -2.299121    20A     -2.299068    21A     -2.297192
      22A     -2.297150    23A     -2.286569    24A     -2.286568
      25A     -2.286566    26A     -2.286563    27A     -2.284673
      28A     -2.284672    29A     -1.047354    30A     -0.903460
      31A     -0.900554    32A     -0.801421    33A     -0.589732
      34A     -0.507722    35A     -0.505789    36A     -0.401013
      37A     -0.399713    38A     -0.384608    39A     -0.373768
      40A     -0.372098    41A     -0.359048

  @DF-RHF Final Energy:  -922.42032953445732

   => Energetics <=

    Nuclear Repulsion Energy =            403.4616510989542348
    One-Electron Energy =               -2398.4156364725408821
    Two-Electron Energy =                1072.5336558391293238
    Total Energy =                       -922.4203295344573235
  Basis Set: (AUG-CC-PVTZ AUX)
    Blend: AUG-CC-PVTZ-RI + DEF2-QZVPP-RI
    Molecular point group: c1

    Geometry (in Angstrom), charge = 0, multiplicity = 1:

       Center              X                  Y                   Z               Mass
    ------------   -----------------  -----------------  -----------------  -----------------
         I           -1.800409138800    -1.041292021450    -0.022587098805   126.904471900000
         I            1.800982861200    -1.038543021450    -0.022423098805   126.904471900000
         I           -0.002094138800     2.078961978550    -0.022016098805   126.904471900000
         C            0.016127861200     0.009279678550     0.570227101195    12.000000000000
         H           -0.000582138800    -0.000556021450     1.650297901195     1.007825032230

  Basis Set: AUG-CC-PVTZ
    Blend: AUG-CC-PVTZ
  Basis Set: (AUG-CC-PVTZ AUX)
    Blend: AUG-CC-PVTZ-JKFIT + DEF2-UNIVERSAL-JKFIT
	 Reference Energy          =    -922.4203295344573235 [Eh]
	 Singles Energy            =      -0.0000000000000000 [Eh]
	 Same-Spin Energy          =      -0.2750981045021876 [Eh]
	 Opposite-Spin Energy      =      -0.6676384367231124 [Eh]
	 Correlation Energy        =      -0.9427365412252999 [Eh]
	 Total Energy              =    -923.3630660756825819 [Eh]

	 ================> DF-SCS-MP2 Energies <==================
	-----------------------------------------------------------
	 SCS Same-Spin Scale       =       0.3333333333333333 [-]
	 SCS Opposite-Spin Scale   =       1.2000000000000000 [-]
	 SCS Same-Spin Energy      =      -0.0916993681673959 [Eh]
	 SCS Opposite-Spin Energy  =      -0.8011661240677349 [Eh]
	 SCS Correlation Energy    =      -0.8928654922351308 [Eh]
	 SCS Total Energy          =    -923.3131950266924832 [Eh]
	-----------------------------------------------------------

  Dipole Moment: [D]
     X:     0.0615      Y:     0.0356      Z:     0.5487     Total:     0.5533

*** Psi4 exiting successfully. Buy a developer a beer!
