                               Psi4 1.3.2 release

  ==> Input File <==

--------------------------------------------------------------------------
#psi4
#
memory 32 gb

molecule  {
0 1
  I       -1.7787673    -1.0681845    -0.0469106
  I        1.8014910    -1.0382480    -0.0313790
  I       -0.0015860     2.0792570    -0.0309720
  C       -0.0000250    -0.0000610     0.5558340
  H       -0.0000740    -0.0002610     1.6413420
units angstrom
no_reorient  #important for SAPT in psi4, default
symmetry c1  #important for SAPT in psi4, default
}

set PROPERTIES_ORIGIN ["COM"]

basis mybas {
    assign aug-cc-pvtz
    assign I aug-cc-pvtz-pp
}
properties('MP2/mybas', properties = ['dipole'])
--------------------------------------------------------------------------

    Molecular point group: c1
  Charge       = 0
  Multiplicity = 1
  Basis Set: MYBAS
    Blend: AUG-CC-PVTZ + AUG-CC-PVTZ-PP
  Basis Set: (MYBAS AUX)
    Blend: AUG-CC-PVTZ-JKFIT + DEF2-QZVPP-JKFIT

    Orbital Energies [Eh]
    ---------------------

    Doubly Occupied:

       1A    -11.385215     2A     -7.741836     3A     -7.741589
       4A     -7.741149     5A     -5.574554     6A     -5.574309
       7A     -5.573858     8A     -5.563242     9A     -5.563215
      10A     -5.563003    11A     -5.562960    12A     -5.562572
      13A     -5.562528    14A     -2.304115    15A     -2.303818
      16A     -2.303363    17A     -2.298767    18A     -2.298745
      19A     -2.298530    20A     -2.298492    21A     -2.298090
      22A     -2.298045    23A     -2.286217    24A     -2.286215
      25A     -2.285971    26A     -2.285969    27A     -2.285552
      28A     -2.285550    29A     -1.047245    30A     -0.902746
      31A     -0.901470    32A     -0.800318    33A     -0.589379
      34A     -0.507608    35A     -0.506378    36A     -0.401085
      37A     -0.399712    38A     -0.384485    39A     -0.373561
      40A     -0.372306    41A     -0.358905

  @DF-RHF Final Energy:  -922.42038252743146

   => Energetics <=

    Nuclear Repulsion Energy =            403.7129895556691963
    One-Electron Energy =               -2398.9214099295618325
    Two-Electron Energy =                1072.7880378464612932
    Total Energy =                       -922.4203825274314568
  Basis Set: (MYBAS AUX)
    Blend: AUG-CC-PVTZ-RI + DEF2-QZVPP-RI
    Molecular point group: c1

    Geometry (in Angstrom), charge = 0, multiplicity = 1:

       Center              X                  Y                   Z               Mass
    ------------   -----------------  -----------------  -----------------  -----------------
         I           -1.785579465053    -1.059422748889    -0.032835687296   126.904471900000
         I            1.794678834947    -1.029486248889    -0.017304087296   126.904471900000
         I           -0.008398165053     2.088018751111    -0.016897087296   126.904471900000
         C           -0.006837165053     0.008700751111     0.569908912704    12.000000000000
         H           -0.006886165053     0.008500751111     1.655416912704     1.007825032230

  Basis Set: MYBAS
    Blend: AUG-CC-PVTZ + AUG-CC-PVTZ-PP
  Basis Set: (MYBAS AUX)
    Blend: AUG-CC-PVTZ-JKFIT + DEF2-QZVPP-JKFIT
	 Reference Energy          =    -922.4203825274314568 [Eh]
	 Singles Energy            =      -0.0000000000000000 [Eh]
	 Same-Spin Energy          =      -0.2751533744415081 [Eh]
	 Opposite-Spin Energy      =      -0.6676643524947363 [Eh]
	 Correlation Energy        =      -0.9428177269362443 [Eh]
	 Total Energy              =    -923.3632002543677118 [Eh]

	 ================> DF-SCS-MP2 Energies <==================
	-----------------------------------------------------------
	 SCS Same-Spin Scale       =       0.3333333333333333 [-]
	 SCS Opposite-Spin Scale   =       1.2000000000000000 [-]
	 SCS Same-Spin Energy      =      -0.0917177914805027 [Eh]
	 SCS Opposite-Spin Energy  =      -0.8011972229936836 [Eh]
	 SCS Correlation Energy    =      -0.8929150144741862 [Eh]
	 SCS Total Energy          =    -923.3132975419056265 [Eh]
	-----------------------------------------------------------

  Dipole Moment: [D]
     X:    -0.0093      Y:     0.0044      Z:     0.5515     Total:     0.5516

*** Psi4 exiting successfully. Buy a developer a beer!
