                               Psi4 1.3.2 release

  ==> Input File <==

--------------------------------------------------------------------------
#psi4
#
memory 32 gb

molecule  {
0 1
  I       -1.7600585    -1.0179298    -0.1751503
  I        1.8014910    -1.0382480    -0.0313790
  I       -0.0015860     2.0792570    -0.0309720
  C       -0.0000250    -0.0000610     0.5558340
  H       -0.0000740    -0.0002610     1.6413420
units angstrom
no_reorient  #important for SAPT in psi4, default
symmetry c1  #important for SAPT in psi4, default
}

set PROPERTIES_ORIGIN ["COM"]

basis mybas {
    assign aug-cc-pvtz
    assign I aug-cc-pvtz-pp
}
properties('MP2/mybas', properties = ['dipole'])
--------------------------------------------------------------------------

    Molecular point group: c1
  Charge       = 0
  Multiplicity = 1
  Basis Set: MYBAS
    Blend: AUG-CC-PVTZ + AUG-CC-PVTZ-PP
  Basis Set: (MYBAS AUX)
    Blend: AUG-CC-PVTZ-JKFIT + DEF2-QZVPP-JKFIT

    Orbital Energies [Eh]
    ---------------------

    Doubly Occupied:

       1A    -11.385757     2A     -7.741853     3A     -7.740882
       4A     -7.740879     5A     -5.574620     6A     -5.573577
       7A     -5.573572     8A     -5.563263     9A     -5.563178
      10A     -5.562318    11A     -5.562313    12A     -5.562272
      13A     -5.562267    14A     -2.304177    15A     -2.303173
      16A     -2.303021    17A     -2.298844    18A     -2.298772
      19A     -2.297840    20A     -2.297807    21A     -2.297798
      22A     -2.297748    23A     -2.286184    24A     -2.286182
      25A     -2.285309    26A     -2.285308    27A     -2.285306
      28A     -2.285304    29A     -1.047522    30A     -0.901997
      31A     -0.901092    32A     -0.801562    33A     -0.590820
      34A     -0.507395    35A     -0.505950    36A     -0.402051
      37A     -0.400015    38A     -0.386480    39A     -0.371891
      40A     -0.370677    41A     -0.357754

  @DF-RHF Final Energy:  -922.41991804259578

   => Energetics <=

    Nuclear Repulsion Energy =            405.3169887392099895
    One-Electron Energy =               -2402.1443479490917525
    Two-Electron Energy =                1074.4074411672859242
    Total Energy =                       -922.4199180425957820
  Basis Set: (MYBAS AUX)
    Blend: AUG-CC-PVTZ-RI + DEF2-QZVPP-RI
    Molecular point group: c1

    Geometry (in Angstrom), charge = 0, multiplicity = 1:

       Center              X                  Y                   Z               Mass
    ------------   -----------------  -----------------  -----------------  -----------------
         I           -1.772900896948    -1.025366174629    -0.119741088504   126.904471900000
         I            1.788648603052    -1.045684374629     0.024030211496   126.904471900000
         I           -0.014428396948     2.071820625371     0.024437211496   126.904471900000
         C           -0.012867396948    -0.007497374629     0.611243211496    12.000000000000
         H           -0.012916396948    -0.007697374629     1.696751211496     1.007825032230

  Basis Set: MYBAS
    Blend: AUG-CC-PVTZ + AUG-CC-PVTZ-PP
  Basis Set: (MYBAS AUX)
    Blend: AUG-CC-PVTZ-JKFIT + DEF2-QZVPP-JKFIT
	 Reference Energy          =    -922.4199180425957820 [Eh]
	 Singles Energy            =      -0.0000000000000000 [Eh]
	 Same-Spin Energy          =      -0.2753081934892750 [Eh]
	 Opposite-Spin Energy      =      -0.6678059821820823 [Eh]
	 Correlation Energy        =      -0.9431141756713574 [Eh]
	 Total Energy              =    -923.3630322182671080 [Eh]

	 ================> DF-SCS-MP2 Energies <==================
	-----------------------------------------------------------
	 SCS Same-Spin Scale       =       0.3333333333333333 [-]
	 SCS Opposite-Spin Scale   =       1.2000000000000000 [-]
	 SCS Same-Spin Energy      =      -0.0917693978297583 [Eh]
	 SCS Opposite-Spin Energy  =      -0.8013671786184987 [Eh]
	 SCS Correlation Energy    =      -0.8931365764482571 [Eh]
	 SCS Total Energy          =    -923.3130546190440100 [Eh]
	-----------------------------------------------------------

  Dipole Moment: [D]
     X:    -0.0469      Y:    -0.0271      Z:     0.5343     Total:     0.5370

*** Psi4 exiting successfully. Buy a developer a beer!
