                               Psi4 1.4a3.dev225

  ==> Input File <==

--------------------------------------------------------------------------
#psi4
#
memory 32 gb

molecule  {
0 1
  I       -1.7999010    -1.0409970    -0.0315430
  I        1.8014910    -1.0382480    -0.0313790
  I       -0.0015860     2.0792570    -0.0309720
  C       -0.0416776    -0.0241503     0.5422410
  H       -0.0000740    -0.0002610     1.6413420
units angstrom
no_reorient  #important for SAPT in psi4, default
symmetry c1  #important for SAPT in psi4, default
}

set PROPERTIES_ORIGIN ["COM"]
properties('MP2/aug-cc-pvtz', properties = ['dipole'])
--------------------------------------------------------------------------

    Molecular point group: c1
  Charge       = 0
  Multiplicity = 1
  Basis Set: AUG-CC-PVTZ
    Blend: AUG-CC-PVTZ
  Basis Set: (AUG-CC-PVTZ AUX)
    Blend: AUG-CC-PVTZ-JKFIT + DEF2-UNIVERSAL-JKFIT

    Orbital Energies [Eh]
    ---------------------

    Doubly Occupied:

       1A    -11.385848     2A     -7.744589     3A     -7.740110
       4A     -7.740107     5A     -5.577386     6A     -5.572790
       7A     -5.572785     8A     -5.566010     9A     -5.566006
      10A     -5.561520    11A     -5.561516    12A     -5.561484
      13A     -5.561479    14A     -2.307229    15A     -2.302276
      16A     -2.302133    17A     -2.301609    18A     -2.301597
      19A     -2.297020    20A     -2.297000    21A     -2.296998
      22A     -2.296938    23A     -2.289029    24A     -2.289027
      25A     -2.284494    26A     -2.284490    27A     -2.284488
      28A     -2.284486    29A     -1.047647    30A     -0.906038
      31A     -0.899078    32A     -0.796855    33A     -0.588541
      34A     -0.509940    35A     -0.505726    36A     -0.401972
      37A     -0.398489    38A     -0.382823    39A     -0.375331
      40A     -0.371486    41A     -0.359033

  @DF-RHF Final Energy:  -922.41918891304044

   => Energetics <=

    Nuclear Repulsion Energy =            403.6805897289632981
    One-Electron Energy =               -2398.8527386644145736
    Two-Electron Energy =                1072.7529600224108890
    Total Energy =                       -922.4191889130404434
  Basis Set: (AUG-CC-PVTZ AUX)
    Blend: AUG-CC-PVTZ-RI + DEF2-QZVPP-RI
    Molecular point group: c1

    Geometry (in Angstrom), charge = 0, multiplicity = 1:

       Center              X                  Y                   Z               Mass
    ------------   -----------------  -----------------  -----------------  -----------------
         I           -1.798631832606    -1.040264136850    -0.022007088441   126.904471900000
         I            1.802760167394    -1.037515136850    -0.021843088441   126.904471900000
         I           -0.000316832606     2.079989863150    -0.021436088441   126.904471900000
         C           -0.040408432606    -0.023417436850     0.551776911559    12.000000000000
         H            0.001195167394     0.000471863150     1.650877911559     1.007825032230

  Basis Set: AUG-CC-PVTZ
    Blend: AUG-CC-PVTZ
  Basis Set: (AUG-CC-PVTZ AUX)
    Blend: AUG-CC-PVTZ-JKFIT + DEF2-UNIVERSAL-JKFIT
	 Reference Energy          =    -922.4191889130404434 [Eh]
	 Singles Energy            =      -0.0000000000000000 [Eh]
	 Same-Spin Energy          =      -0.2753315375158307 [Eh]
	 Opposite-Spin Energy      =      -0.6678192512024839 [Eh]
	 Correlation Energy        =      -0.9431507887183146 [Eh]
	 Total Energy              =    -923.3623397017587422 [Eh]

	 ================> DF-SCS-MP2 Energies <==================
	-----------------------------------------------------------
	 SCS Same-Spin Scale       =       0.3333333333333333 [-]
	 SCS Opposite-Spin Scale   =       1.2000000000000000 [-]
	 SCS Same-Spin Energy      =      -0.0917771791719436 [Eh]
	 SCS Opposite-Spin Energy  =      -0.8013831014429806 [Eh]
	 SCS Correlation Energy    =      -0.8931602806149243 [Eh]
	 SCS Total Energy          =    -923.3123491936553364 [Eh]
	-----------------------------------------------------------

  Dipole Moment: [D]
     X:    -0.1550      Y:    -0.0896      Z:     0.5647     Total:     0.5924

*** Psi4 exiting successfully. Buy a developer a beer!
