                               Psi4 1.3.2 release

  ==> Input File <==

--------------------------------------------------------------------------
#psi4
#
memory 32 gb

molecule  {
0 1
  I       -1.8405173    -0.9856792    -0.0002758
  I        1.8014910    -1.0382480    -0.0313790
  I       -0.0015860     2.0792570    -0.0309720
  C       -0.0000250    -0.0000610     0.5558340
  H       -0.0000740    -0.0002610     1.6413420
units angstrom
no_reorient  #important for SAPT in psi4, default
symmetry c1  #important for SAPT in psi4, default
}

set PROPERTIES_ORIGIN ["COM"]

basis mybas {
    assign aug-cc-pvtz
    assign I aug-cc-pvtz-pp
}
properties('MP2/mybas', properties = ['dipole'])
--------------------------------------------------------------------------

    Molecular point group: c1
  Charge       = 0
  Multiplicity = 1
  Basis Set: MYBAS
    Blend: AUG-CC-PVTZ + AUG-CC-PVTZ-PP
  Basis Set: (MYBAS AUX)
    Blend: AUG-CC-PVTZ-JKFIT + DEF2-QZVPP-JKFIT

    Orbital Energies [Eh]
    ---------------------

    Doubly Occupied:

       1A    -11.384987     2A     -7.742390     3A     -7.741511
       4A     -7.741019     5A     -5.575121     6A     -5.574221
       7A     -5.573730     8A     -5.563784     9A     -5.563758
      10A     -5.562930    11A     -5.562888    12A     -5.562445
      13A     -5.562394    14A     -2.304650    15A     -2.303748
      16A     -2.303240    17A     -2.299319    18A     -2.299295
      19A     -2.298447    20A     -2.298410    21A     -2.297966
      22A     -2.297916    23A     -2.286745    24A     -2.286743
      25A     -2.285906    26A     -2.285903    27A     -2.285421
      28A     -2.285418    29A     -1.047199    30A     -0.903558
      31A     -0.901051    32A     -0.799876    33A     -0.588894
      34A     -0.508300    35A     -0.505852    36A     -0.401572
      37A     -0.398887    38A     -0.383735    39A     -0.374779
      40A     -0.372289    41A     -0.359141

  @DF-RHF Final Energy:  -922.42020577014216

   => Energetics <=

    Nuclear Repulsion Energy =            403.2009841799225569
    One-Electron Energy =               -2397.8915017663862272
    Two-Electron Energy =                1072.2703118163215095
    Total Energy =                       -922.4202057701420472
  Basis Set: (MYBAS AUX)
    Blend: AUG-CC-PVTZ-RI + DEF2-QZVPP-RI
    Molecular point group: c1

    Geometry (in Angstrom), charge = 0, multiplicity = 1:

       Center              X                  Y                   Z               Mass
    ------------   -----------------  -----------------  -----------------  -----------------
         I           -1.827426167163    -1.003510607810    -0.001232244647   126.904471900000
         I            1.814582132837    -1.056079407810    -0.032335444647   126.904471900000
         I            0.011505132837     2.061425592190    -0.031928444647   126.904471900000
         C            0.013066132837    -0.017892407810     0.554877555353    12.000000000000
         H            0.013017132837    -0.018092407810     1.640385555353     1.007825032230

  Basis Set: MYBAS
    Blend: AUG-CC-PVTZ + AUG-CC-PVTZ-PP
  Basis Set: (MYBAS AUX)
    Blend: AUG-CC-PVTZ-JKFIT + DEF2-QZVPP-JKFIT
	 Reference Energy          =    -922.4202057701421609 [Eh]
	 Singles Energy            =      -0.0000000000000000 [Eh]
	 Same-Spin Energy          =      -0.2751200680278635 [Eh]
	 Opposite-Spin Energy      =      -0.6676506563218783 [Eh]
	 Correlation Energy        =      -0.9427707243497417 [Eh]
	 Total Energy              =    -923.3629764944919316 [Eh]

	 ================> DF-SCS-MP2 Energies <==================
	-----------------------------------------------------------
	 SCS Same-Spin Scale       =       0.3333333333333333 [-]
	 SCS Opposite-Spin Scale   =       1.2000000000000000 [-]
	 SCS Same-Spin Energy      =      -0.0917066893426212 [Eh]
	 SCS Opposite-Spin Energy  =      -0.8011807875862539 [Eh]
	 SCS Correlation Energy    =      -0.8928874769288750 [Eh]
	 SCS Total Energy          =    -923.3130932470710377 [Eh]
	-----------------------------------------------------------

  Dipole Moment: [D]
     X:     0.0189      Y:    -0.0090      Z:     0.5565     Total:     0.5569

*** Psi4 exiting successfully. Buy a developer a beer!
