                               Psi4 1.3.2 release

  ==> Input File <==

--------------------------------------------------------------------------
#psi4
#
memory 32 gb

molecule  {
0 1
  I       -1.7999010    -1.0409970    -0.0315430
  I        1.8014910    -1.0382480    -0.0313790
  I       -0.0015860     2.0792570    -0.0309720
  C       -0.0833302    -0.0482395     0.5286479
  H       -0.0000740    -0.0002610     1.6413420
units angstrom
no_reorient  #important for SAPT in psi4, default
symmetry c1  #important for SAPT in psi4, default
}

set PROPERTIES_ORIGIN ["COM"]

basis mybas {
    assign aug-cc-pvtz
    assign I aug-cc-pvtz-pp
}
properties('MP2/mybas', properties = ['dipole'])
--------------------------------------------------------------------------

    Molecular point group: c1
  Charge       = 0
  Multiplicity = 1
  Basis Set: MYBAS
    Blend: AUG-CC-PVTZ + AUG-CC-PVTZ-PP
  Basis Set: (MYBAS AUX)
    Blend: AUG-CC-PVTZ-JKFIT + DEF2-QZVPP-JKFIT

    Orbital Energies [Eh]
    ---------------------

    Doubly Occupied:

       1A    -11.387018     2A     -7.747473     3A     -7.738738
       4A     -7.738734     5A     -5.580339     6A     -5.571386
       7A     -5.571381     8A     -5.568952     9A     -5.568919
      10A     -5.560143    11A     -5.560139    12A     -5.560103
      13A     -5.560098    14A     -2.310561    15A     -2.304617
      16A     -2.304582    17A     -2.300758    18A     -2.300612
      19A     -2.295611    20A     -2.295596    21A     -2.295591
      22A     -2.295526    23A     -2.292015    24A     -2.292013
      25A     -2.283114    26A     -2.283108    27A     -2.283106
      28A     -2.283104    29A     -1.049398    30A     -0.909505
      31A     -0.896095    32A     -0.793318    33A     -0.588782
      34A     -0.512504    35A     -0.505097    36A     -0.403550
      37A     -0.396483    38A     -0.381155    39A     -0.376961
      40A     -0.369836    41A     -0.358725

  @DF-RHF Final Energy:  -922.41555645420885

   => Energetics <=

    Nuclear Repulsion Energy =            403.8587408196045203
    One-Electron Energy =               -2399.1991026880050413
    Two-Electron Energy =                1072.9248054141917237
    Total Energy =                       -922.4155564542088541
  Basis Set: (MYBAS AUX)
    Blend: AUG-CC-PVTZ-RI + DEF2-QZVPP-RI
    Molecular point group: c1

    Geometry (in Angstrom), charge = 0, multiplicity = 1:

       Center              X                  Y                   Z               Mass
    ------------   -----------------  -----------------  -----------------  -----------------
         I           -1.797362327310    -1.039529936177    -0.021592792276   126.904471900000
         I            1.804029672690    -1.036780936177    -0.021428792276   126.904471900000
         I            0.000952672690     2.080724063823    -0.021021792276   126.904471900000
         C           -0.080791527310    -0.046772436177     0.538598107724    12.000000000000
         H            0.002464672690     0.001206063823     1.651292207724     1.007825032230

  Basis Set: MYBAS
    Blend: AUG-CC-PVTZ + AUG-CC-PVTZ-PP
  Basis Set: (MYBAS AUX)
    Blend: AUG-CC-PVTZ-JKFIT + DEF2-QZVPP-JKFIT
	 Reference Energy          =    -922.4155564542088541 [Eh]
	 Singles Energy            =      -0.0000000000000000 [Eh]
	 Same-Spin Energy          =      -0.2756906644363010 [Eh]
	 Opposite-Spin Energy      =      -0.6682236601732154 [Eh]
	 Correlation Energy        =      -0.9439143246095165 [Eh]
	 Total Energy              =    -923.3594707788183769 [Eh]

	 ================> DF-SCS-MP2 Energies <==================
	-----------------------------------------------------------
	 SCS Same-Spin Scale       =       0.3333333333333333 [-]
	 SCS Opposite-Spin Scale   =       1.2000000000000000 [-]
	 SCS Same-Spin Energy      =      -0.0918968881454337 [Eh]
	 SCS Opposite-Spin Energy  =      -0.8018683922078585 [Eh]
	 SCS Correlation Energy    =      -0.8937652803532923 [Eh]
	 SCS Total Energy          =    -923.3093217345621042 [Eh]
	-----------------------------------------------------------

  Dipole Moment: [D]
     X:    -0.3141      Y:    -0.1816      Z:     0.5765     Total:     0.6812

*** Psi4 exiting successfully. Buy a developer a beer!
