                               Psi4 1.3.2 release

  ==> Input File <==

--------------------------------------------------------------------------
#psi4
#
memory 32 gb

molecule  {
0 1
  I       -1.8431742    -1.0660606     0.1890110
  I        1.8014910    -1.0382480    -0.0313790
  I       -0.0015860     2.0792570    -0.0309720
  C       -0.0000250    -0.0000610     0.5558340
  H       -0.0000740    -0.0002610     1.6413420
units angstrom
no_reorient  #important for SAPT in psi4, default
symmetry c1  #important for SAPT in psi4, default
}

set PROPERTIES_ORIGIN ["COM"]

basis mybas {
    assign aug-cc-pvtz
    assign I aug-cc-pvtz-pp
}
properties('MP2/mybas', properties = ['dipole'])
--------------------------------------------------------------------------

    Molecular point group: c1
  Charge       = 0
  Multiplicity = 1
  Basis Set: MYBAS
    Blend: AUG-CC-PVTZ + AUG-CC-PVTZ-PP
  Basis Set: (MYBAS AUX)
    Blend: AUG-CC-PVTZ-JKFIT + DEF2-QZVPP-JKFIT

    Orbital Energies [Eh]
    ---------------------

    Doubly Occupied:

       1A    -11.384017     2A     -7.742531     3A     -7.742527
       4A     -7.741324     5A     -5.575283     6A     -5.575278
       7A     -5.574001     8A     -5.563914     9A     -5.563910
      10A     -5.563884    11A     -5.563879    12A     -5.562762
      13A     -5.562718    14A     -2.304883    15A     -2.304717
      16A     -2.303495    17A     -2.299477    18A     -2.299468
      19A     -2.299463    20A     -2.299405    21A     -2.298233
      22A     -2.298209    23A     -2.286858    24A     -2.286854
      25A     -2.286852    26A     -2.286850    27A     -2.285761
      28A     -2.285755    29A     -1.047122    30A     -0.903877
      31A     -0.902453    32A     -0.797995    33A     -0.587158
      34A     -0.508047    35A     -0.506503    36A     -0.401035
      37A     -0.398090    38A     -0.380424    39A     -0.376439
      40A     -0.374931    41A     -0.360790

  @DF-RHF Final Energy:  -922.41894374855747

   => Energetics <=

    Nuclear Repulsion Energy =            401.1799518185689521
    One-Electron Energy =               -2393.8234384619668162
    Two-Electron Energy =                1070.2245428948403969
    Total Energy =                       -922.4189437485574672
  Basis Set: (MYBAS AUX)
    Blend: AUG-CC-PVTZ-RI + DEF2-QZVPP-RI
    Molecular point group: c1

    Geometry (in Angstrom), charge = 0, multiplicity = 1:

       Center              X                  Y                   Z               Mass
    ------------   -----------------  -----------------  -----------------  -----------------
         I           -1.829226693525    -1.057983425640     0.127043517830   126.904471900000
         I            1.815438506475    -1.030170825640    -0.093346482170   126.904471900000
         I            0.012361506475     2.087334174360    -0.092939482170   126.904471900000
         C            0.013922506475     0.008016174360     0.493866517830    12.000000000000
         H            0.013873506475     0.007816174360     1.579374517830     1.007825032230

  Basis Set: MYBAS
    Blend: AUG-CC-PVTZ + AUG-CC-PVTZ-PP
  Basis Set: (MYBAS AUX)
    Blend: AUG-CC-PVTZ-JKFIT + DEF2-QZVPP-JKFIT
	 Reference Energy          =    -922.4189437485574672 [Eh]
	 Singles Energy            =      -0.0000000000000000 [Eh]
	 Same-Spin Energy          =      -0.2750097264903798 [Eh]
	 Opposite-Spin Energy      =      -0.6676416702997551 [Eh]
	 Correlation Energy        =      -0.9426513967901349 [Eh]
	 Total Energy              =    -923.3615951453475645 [Eh]

	 ================> DF-SCS-MP2 Energies <==================
	-----------------------------------------------------------
	 SCS Same-Spin Scale       =       0.3333333333333333 [-]
	 SCS Opposite-Spin Scale   =       1.2000000000000000 [-]
	 SCS Same-Spin Energy      =      -0.0916699088301266 [Eh]
	 SCS Opposite-Spin Energy  =      -0.8011700043597061 [Eh]
	 SCS Correlation Energy    =      -0.8928399131898327 [Eh]
	 SCS Total Energy          =    -923.3117836617473131 [Eh]
	-----------------------------------------------------------

  Dipole Moment: [D]
     X:     0.0718      Y:     0.0416      Z:     0.5717     Total:     0.5777

*** Psi4 exiting successfully. Buy a developer a beer!
