                               Psi4 1.3.2 release

  ==> Input File <==

--------------------------------------------------------------------------
#psi4
#
memory 32 gb

molecule  {
0 1
  I       -1.7810647    -1.0300909    -0.1037485
  I        1.8014910    -1.0382480    -0.0313790
  I       -0.0015860     2.0792570    -0.0309720
  C       -0.0000250    -0.0000610     0.5558340
  H       -0.0000740    -0.0002610     1.6413420
units angstrom
no_reorient  #important for SAPT in psi4, default
symmetry c1  #important for SAPT in psi4, default
}

set PROPERTIES_ORIGIN ["COM"]

basis mybas {
    assign aug-cc-pvtz
    assign I aug-cc-pvtz-pp
}
properties('MP2/mybas', properties = ['dipole'])
--------------------------------------------------------------------------

    Molecular point group: c1
  Charge       = 0
  Multiplicity = 1
  Basis Set: MYBAS
    Blend: AUG-CC-PVTZ + AUG-CC-PVTZ-PP
  Basis Set: (MYBAS AUX)
    Blend: AUG-CC-PVTZ-JKFIT + DEF2-QZVPP-JKFIT

    Orbital Energies [Eh]
    ---------------------

    Doubly Occupied:

       1A    -11.385467     2A     -7.741697     3A     -7.741228
       4A     -7.741224     5A     -5.574436     6A     -5.573933
       7A     -5.573928     8A     -5.563109     9A     -5.563050
      10A     -5.562651    11A     -5.562647    12A     -5.562613
      13A     -5.562608    14A     -2.303999    15A     -2.303509
      16A     -2.303375    17A     -2.298658    18A     -2.298610
      19A     -2.298180    20A     -2.298152    21A     -2.298148
      22A     -2.298093    23A     -2.286058    24A     -2.286058
      25A     -2.285635    26A     -2.285634    27A     -2.285632
      28A     -2.285630    29A     -1.047345    30A     -0.902088
      31A     -0.901632    32A     -0.800868    33A     -0.589999
      34A     -0.507209    35A     -0.506524    36A     -0.401162
      37A     -0.400144    38A     -0.385388    39A     -0.372501
      40A     -0.371917    41A     -0.358450

  @DF-RHF Final Energy:  -922.42032039751598

   => Energetics <=

    Nuclear Repulsion Energy =            404.3953533451357316
    One-Electron Energy =               -2400.2929794531264633
    Two-Electron Energy =                1073.4773057104746385
    Total Energy =                       -922.4203203975159795
  Basis Set: (MYBAS AUX)
    Blend: AUG-CC-PVTZ-RI + DEF2-QZVPP-RI
    Molecular point group: c1

    Geometry (in Angstrom), charge = 0, multiplicity = 1:

       Center              X                  Y                   Z               Mass
    ------------   -----------------  -----------------  -----------------  -----------------
         I           -1.787136365675    -1.033607501415    -0.071353560493   126.904471900000
         I            1.795419334325    -1.041764601415     0.001015939507   126.904471900000
         I           -0.007657665675     2.075740398585     0.001422939507   126.904471900000
         C           -0.006096665675    -0.003577601415     0.588228939507    12.000000000000
         H           -0.006145665675    -0.003777601415     1.673736939507     1.007825032230

  Basis Set: MYBAS
    Blend: AUG-CC-PVTZ + AUG-CC-PVTZ-PP
  Basis Set: (MYBAS AUX)
    Blend: AUG-CC-PVTZ-JKFIT + DEF2-QZVPP-JKFIT
	 Reference Energy          =    -922.4203203975159795 [Eh]
	 Singles Energy            =      -0.0000000000000000 [Eh]
	 Same-Spin Energy          =      -0.2752126090221623 [Eh]
	 Opposite-Spin Energy      =      -0.6677117145292122 [Eh]
	 Correlation Energy        =      -0.9429243235513745 [Eh]
	 Total Energy              =    -923.3632447210673035 [Eh]

	 ================> DF-SCS-MP2 Energies <==================
	-----------------------------------------------------------
	 SCS Same-Spin Scale       =       0.3333333333333333 [-]
	 SCS Opposite-Spin Scale   =       1.2000000000000000 [-]
	 SCS Same-Spin Energy      =      -0.0917375363407208 [Eh]
	 SCS Opposite-Spin Energy  =      -0.8012540574350546 [Eh]
	 SCS Correlation Energy    =      -0.8929915937757754 [Eh]
	 SCS Total Energy          =    -923.3133119912916982 [Eh]
	-----------------------------------------------------------

  Dipole Moment: [D]
     X:    -0.0236      Y:    -0.0136      Z:     0.5444     Total:     0.5451

*** Psi4 exiting successfully. Buy a developer a beer!
