                               Psi4 1.3.2 release

  ==> Input File <==

--------------------------------------------------------------------------
#psi4
#
memory 32 gb

molecule  {
0 1
  I       -1.7570919    -1.0950466    -0.0620945
  I        1.8014910    -1.0382480    -0.0313790
  I       -0.0015860     2.0792570    -0.0309720
  C       -0.0000250    -0.0000610     0.5558340
  H       -0.0000740    -0.0002610     1.6413420
units angstrom
no_reorient  #important for SAPT in psi4, default
symmetry c1  #important for SAPT in psi4, default
}

set PROPERTIES_ORIGIN ["COM"]

basis mybas {
    assign aug-cc-pvtz
    assign I aug-cc-pvtz-pp
}
properties('MP2/mybas', properties = ['dipole'])
--------------------------------------------------------------------------

    Molecular point group: c1
  Charge       = 0
  Multiplicity = 1
  Basis Set: MYBAS
    Blend: AUG-CC-PVTZ + AUG-CC-PVTZ-PP
  Basis Set: (MYBAS AUX)
    Blend: AUG-CC-PVTZ-JKFIT + DEF2-QZVPP-JKFIT

    Orbital Energies [Eh]
    ---------------------

    Doubly Occupied:

       1A    -11.385269     2A     -7.742104     3A     -7.741614
       4A     -7.740734     5A     -5.574825     6A     -5.574342
       7A     -5.573437     8A     -5.563506     9A     -5.563482
      10A     -5.563032    11A     -5.562974    12A     -5.562170
      13A     -5.562114    14A     -2.304364    15A     -2.303863
      16A     -2.302955    17A     -2.299032    18A     -2.299010
      19A     -2.298567    20A     -2.298517    21A     -2.297684
      22A     -2.297630    23A     -2.286477    24A     -2.286476
      25A     -2.285990    26A     -2.285987    27A     -2.285152
      28A     -2.285150    29A     -1.047289    30A     -0.903312
      31A     -0.900750    32A     -0.800479    33A     -0.589542
      34A     -0.508186    35A     -0.505726    36A     -0.401875
      37A     -0.399108    38A     -0.384751    39A     -0.374031
      40A     -0.371535    41A     -0.358591

  @DF-RHF Final Energy:  -922.42024113727928

   => Energetics <=

    Nuclear Repulsion Energy =            403.9258595070730280
    One-Electron Energy =               -2399.3489301066501866
    Two-Electron Energy =                1073.0028294622977683
    Total Energy =                       -922.4202411372793904
  Basis Set: (MYBAS AUX)
    Blend: AUG-CC-PVTZ-RI + DEF2-QZVPP-RI
    Molecular point group: c1

    Geometry (in Angstrom), charge = 0, multiplicity = 1:

       Center              X                  Y                   Z               Mass
    ------------   -----------------  -----------------  -----------------  -----------------
         I           -1.770890493281    -1.077626640334    -0.043125503331   126.904471900000
         I            1.787692406719    -1.020828040334    -0.012410003331   126.904471900000
         I           -0.015384593281     2.096676959666    -0.012003003331   126.904471900000
         C           -0.013823593281     0.017358959666     0.574802996669    12.000000000000
         H           -0.013872593281     0.017158959666     1.660310996669     1.007825032230

  Basis Set: MYBAS
    Blend: AUG-CC-PVTZ + AUG-CC-PVTZ-PP
  Basis Set: (MYBAS AUX)
    Blend: AUG-CC-PVTZ-JKFIT + DEF2-QZVPP-JKFIT
	 Reference Energy          =    -922.4202411372792767 [Eh]
	 Singles Energy            =      -0.0000000000000000 [Eh]
	 Same-Spin Energy          =      -0.2751786252082024 [Eh]
	 Opposite-Spin Energy      =      -0.6676921039017133 [Eh]
	 Correlation Energy        =      -0.9428707291099157 [Eh]
	 Total Energy              =    -923.3631118663892039 [Eh]

	 ================> DF-SCS-MP2 Energies <==================
	-----------------------------------------------------------
	 SCS Same-Spin Scale       =       0.3333333333333333 [-]
	 SCS Opposite-Spin Scale   =       1.2000000000000000 [-]
	 SCS Same-Spin Energy      =      -0.0917262084027341 [Eh]
	 SCS Opposite-Spin Energy  =      -0.8012305246820559 [Eh]
	 SCS Correlation Energy    =      -0.8929567330847901 [Eh]
	 SCS Total Energy          =    -923.3131978703640925 [Eh]
	-----------------------------------------------------------

  Dipole Moment: [D]
     X:    -0.0183      Y:     0.0086      Z:     0.5496     Total:     0.5499

*** Psi4 exiting successfully. Buy a developer a beer!
