                               Psi4 1.3.2 release

  ==> Input File <==

--------------------------------------------------------------------------
#psi4
#
memory 32 gb

molecule  {
0 1
  O        1.0823540    -0.5566580    -0.2632920
  O       -1.0823250    -0.5564370    -0.2635130
  O        0.0000290     0.8790020     1.1568390
  C        2.3645980    -0.0472600     0.2117580
  C       -2.3765295    -0.0634101     0.1960699
  C        3.3580870    -1.1527530    -0.0787140
  C        2.6794210     1.2541120    -0.5011060
  C       -2.6796530     1.2540600    -0.5011170
  C       -3.3579470    -1.1529030    -0.0785870
  C        0.0000190     0.0134100     0.2963400
  H        2.2751950     0.1248800     1.2880410
  H       -2.2750520     0.1249260     1.2879850
  H        4.3537060    -0.8600380     0.2666930
  H        3.0667940    -2.0744370     0.4299490
  H        3.4032550    -1.3462360    -1.1536500
  H        3.6582030     1.6290460    -0.1867860
  H        1.9279580     2.0093320    -0.2633690
  H        2.6983220     1.0899770    -1.5821290
  H       -3.6584150     1.6289180    -0.1866510
  H       -1.9282070     2.0093390    -0.2634970
  H       -2.6986940     1.0899190    -1.5821360
  H       -4.3535640    -0.8602980     0.2669170
  H       -3.0664820    -2.0745270     0.4300870
  H       -3.4032180    -1.3464490    -1.1535090
units angstrom
no_reorient  #important for SAPT in psi4, default
symmetry c1  #important for SAPT in psi4, default
}

set PROPERTIES_ORIGIN ["COM"]
properties('MP2/aug-cc-pvtz', properties = ['dipole'])
--------------------------------------------------------------------------

    Molecular point group: c1
  Charge       = 0
  Multiplicity = 1
  Basis Set: AUG-CC-PVTZ
    Blend: AUG-CC-PVTZ
  Basis Set: (AUG-CC-PVTZ AUX)
    Blend: AUG-CC-PVTZ-JKFIT

    Orbital Energies [Eh]
    ---------------------

    Doubly Occupied:

       1A    -20.600843     2A    -20.600011     3A    -20.540903
       4A    -11.427939     5A    -11.294652     6A    -11.293673
       7A    -11.221555     8A    -11.221505     9A    -11.218721
      10A    -11.218408    11A     -1.491340    12A     -1.388671
      13A     -1.353908    14A     -1.083124    15A     -1.055617
      16A     -0.948170    17A     -0.946269    18A     -0.877009
      19A     -0.799761    20A     -0.767331    21A     -0.745164
      22A     -0.694713    23A     -0.673956    24A     -0.632593
      25A     -0.626294    26A     -0.616131    27A     -0.581542
      28A     -0.574995    29A     -0.560230    30A     -0.548616
      31A     -0.548300    32A     -0.533941    33A     -0.526066
      34A     -0.517371    35A     -0.507041    36A     -0.490960
      37A     -0.483483    38A     -0.467798    39A     -0.456675
      40A     -0.450489

  @DF-RHF Final Energy:  -498.03825606878581

   => Energetics <=

    Nuclear Repulsion Energy =            577.2524058864573817
    One-Electron Energy =               -1825.4097850912539798
    Two-Electron Energy =                 750.1191231360107849
    Total Energy =                       -498.0382560687858131
  Basis Set: (AUG-CC-PVTZ AUX)
    Blend: AUG-CC-PVTZ-RI
    Molecular point group: c1

    Geometry (in Angstrom), charge = 0, multiplicity = 1:

       Center              X                  Y                   Z               Mass
    ------------   -----------------  -----------------  -----------------  -----------------
         O            1.083335057151    -0.547568526910    -0.278297484574    15.994914619570
         O           -1.081343942849    -0.547347526910    -0.278518484574    15.994914619570
         O            0.001010057151     0.888091473090     1.141833515426    15.994914619570
         C            2.365579057151    -0.038170526910     0.196752515426    12.000000000000
         C           -2.375548442849    -0.054320626910     0.181064415426    12.000000000000
         C            3.359068057151    -1.143663526910    -0.093719484574    12.000000000000
         C            2.680402057151     1.263201473090    -0.516111484574    12.000000000000
         C           -2.678671942849     1.263149473090    -0.516122484574    12.000000000000
         C           -3.356965942849    -1.143813526910    -0.093592484574    12.000000000000
         C            0.001000057151     0.022499473090     0.281334515426    12.000000000000
         H            2.276176057151     0.133969473090     1.273035515426     1.007825032230
         H           -2.274070942849     0.134015473090     1.272979515426     1.007825032230
         H            4.354687057151    -0.850948526910     0.251687515426     1.007825032230
         H            3.067775057151    -2.065347526910     0.414943515426     1.007825032230
         H            3.404236057151    -1.337146526910    -1.168655484574     1.007825032230
         H            3.659184057151     1.638135473090    -0.201791484574     1.007825032230
         H            1.928939057151     2.018421473090    -0.278374484574     1.007825032230
         H            2.699303057151     1.099066473090    -1.597134484574     1.007825032230
         H           -3.657433942849     1.638007473090    -0.201656484574     1.007825032230
         H           -1.927225942849     2.018428473090    -0.278502484574     1.007825032230
         H           -2.697712942849     1.099008473090    -1.597141484574     1.007825032230
         H           -4.352582942849    -0.851208526910     0.251911515426     1.007825032230
         H           -3.065500942849    -2.065437526910     0.415081515426     1.007825032230
         H           -3.402236942849    -1.337359526910    -1.168514484574     1.007825032230

  Basis Set: AUG-CC-PVTZ
    Blend: AUG-CC-PVTZ
  Basis Set: (AUG-CC-PVTZ AUX)
    Blend: AUG-CC-PVTZ-JKFIT
	 Reference Energy          =    -498.0382560687858131 [Eh]
	 Singles Energy            =      -0.0000000000000000 [Eh]
	 Same-Spin Energy          =      -0.4944393824641914 [Eh]
	 Opposite-Spin Energy      =      -1.6249163012722483 [Eh]
	 Correlation Energy        =      -2.1193556837364396 [Eh]
	 Total Energy              =    -500.1576117525222571 [Eh]

	 ================> DF-SCS-MP2 Energies <==================
	-----------------------------------------------------------
	 SCS Same-Spin Scale       =       0.3333333333333333 [-]
	 SCS Opposite-Spin Scale   =       1.2000000000000000 [-]
	 SCS Same-Spin Energy      =      -0.1648131274880638 [Eh]
	 SCS Opposite-Spin Energy  =      -1.9498995615266979 [Eh]
	 SCS Correlation Energy    =      -2.1147126890147616 [Eh]
	 SCS Total Energy          =    -500.1529687578005792 [Eh]
	-----------------------------------------------------------

  Dipole Moment: [D]
     X:    -0.0345      Y:    -0.1420      Z:    -0.3042     Total:     0.3374

*** Psi4 exiting successfully. Buy a developer a beer!
