                               Psi4 1.3.2 release

  ==> Input File <==

--------------------------------------------------------------------------
#psi4
#
memory 32 gb

molecule  {
0 1
  O        1.0823540    -0.5566580    -0.2632920
  O       -1.0823250    -0.5564370    -0.2635130
  O        0.0000290     0.8790020     1.1568390
  C        2.3645980    -0.0472600     0.2117580
  C       -2.3645710    -0.0472670     0.2117220
  C        3.3580870    -1.1527530    -0.0787140
  C        2.6794210     1.2541120    -0.5011060
  C       -2.6796530     1.2540600    -0.5011170
  C       -3.3579470    -1.1529030    -0.0785870
  C        0.0000206     0.1552480     0.4373435
  H        2.2751950     0.1248800     1.2880410
  H       -2.2750520     0.1249260     1.2879850
  H        4.3537060    -0.8600380     0.2666930
  H        3.0667940    -2.0744370     0.4299490
  H        3.4032550    -1.3462360    -1.1536500
  H        3.6582030     1.6290460    -0.1867860
  H        1.9279580     2.0093320    -0.2633690
  H        2.6983220     1.0899770    -1.5821290
  H       -3.6584150     1.6289180    -0.1866510
  H       -1.9282070     2.0093390    -0.2634970
  H       -2.6986940     1.0899190    -1.5821360
  H       -4.3535640    -0.8602980     0.2669170
  H       -3.0664820    -2.0745270     0.4300870
  H       -3.4032180    -1.3464490    -1.1535090
units angstrom
no_reorient  #important for SAPT in psi4, default
symmetry c1  #important for SAPT in psi4, default
}

set PROPERTIES_ORIGIN ["COM"]
properties('MP2/aug-cc-pvtz', properties = ['dipole'])
--------------------------------------------------------------------------

    Molecular point group: c1
  Charge       = 0
  Multiplicity = 1
  Basis Set: AUG-CC-PVTZ
    Blend: AUG-CC-PVTZ
  Basis Set: (AUG-CC-PVTZ AUX)
    Blend: AUG-CC-PVTZ-JKFIT

    Orbital Energies [Eh]
    ---------------------

    Doubly Occupied:

       1A    -20.598241     2A    -20.576147     3A    -20.576120
       4A    -11.414418     5A    -11.282738     6A    -11.282735
       7A    -11.217166     8A    -11.217162     9A    -11.215037
      10A    -11.215036    11A     -1.593058    12A     -1.385249
      13A     -1.338654    14A     -1.062212    15A     -1.039764
      16A     -0.942393    17A     -0.942249    18A     -0.841025
      19A     -0.789603    20A     -0.779786    21A     -0.758156
      22A     -0.737084    23A     -0.708872    24A     -0.629523
      25A     -0.624740    26A     -0.605495    27A     -0.602090
      28A     -0.580736    29A     -0.561861    30A     -0.543862
      31A     -0.542821    32A     -0.537575    33A     -0.517178
      34A     -0.514862    35A     -0.510199    36A     -0.493852
      37A     -0.484961    38A     -0.461818    39A     -0.452631
      40A     -0.436663

  @DF-RHF Final Energy:  -497.94655971251484

   => Energetics <=

    Nuclear Repulsion Energy =            577.8517739452117894
    One-Electron Energy =               -1826.3691311128304733
    Two-Electron Energy =                 750.5707974551038433
    Total Energy =                       -497.9465597125148406
  Basis Set: (AUG-CC-PVTZ AUX)
    Blend: AUG-CC-PVTZ-RI
    Molecular point group: c1

    Geometry (in Angstrom), charge = 0, multiplicity = 1:

       Center              X                  Y                   Z               Mass
    ------------   -----------------  -----------------  -----------------  -----------------
         O            1.082352669709    -0.560544894050    -0.291164976825    15.994914619570
         O           -1.082326330291    -0.560323894050    -0.291385976825    15.994914619570
         O            0.000027669709     0.875115105950     1.128966023175    15.994914619570
         C            2.364596669709    -0.051146894050     0.183885023175    12.000000000000
         C           -2.364572330291    -0.051153894050     0.183849023175    12.000000000000
         C            3.358085669709    -1.156639894050    -0.106586976825    12.000000000000
         C            2.679419669709     1.250225105950    -0.528978976825    12.000000000000
         C           -2.679654330291     1.250173105950    -0.528989976825    12.000000000000
         C           -3.357948330291    -1.156789894050    -0.106459976825    12.000000000000
         C            0.000019269709     0.151361105950     0.409470523175    12.000000000000
         H            2.275193669709     0.120993105950     1.260168023175     1.007825032230
         H           -2.275053330291     0.121039105950     1.260112023175     1.007825032230
         H            4.353704669709    -0.863924894050     0.238820023175     1.007825032230
         H            3.066792669709    -2.078323894050     0.402076023175     1.007825032230
         H            3.403253669709    -1.350122894050    -1.181522976825     1.007825032230
         H            3.658201669709     1.625159105950    -0.214658976825     1.007825032230
         H            1.927956669709     2.005445105950    -0.291241976825     1.007825032230
         H            2.698320669709     1.086090105950    -1.610001976825     1.007825032230
         H           -3.658416330291     1.625031105950    -0.214523976825     1.007825032230
         H           -1.928208330291     2.005452105950    -0.291369976825     1.007825032230
         H           -2.698695330291     1.086032105950    -1.610008976825     1.007825032230
         H           -4.353565330291    -0.864184894050     0.239044023175     1.007825032230
         H           -3.066483330291    -2.078413894050     0.402214023175     1.007825032230
         H           -3.403219330291    -1.350335894050    -1.181381976825     1.007825032230

  Basis Set: AUG-CC-PVTZ
    Blend: AUG-CC-PVTZ
  Basis Set: (AUG-CC-PVTZ AUX)
    Blend: AUG-CC-PVTZ-JKFIT
	 Reference Energy          =    -497.9465597125148406 [Eh]
	 Singles Energy            =      -0.0000000000000000 [Eh]
	 Same-Spin Energy          =      -0.4937912997583828 [Eh]
	 Opposite-Spin Energy      =      -1.6260713738134500 [Eh]
	 Correlation Energy        =      -2.1198626735718329 [Eh]
	 Total Energy              =    -500.0664223860866855 [Eh]

	 ================> DF-SCS-MP2 Energies <==================
	-----------------------------------------------------------
	 SCS Same-Spin Scale       =       0.3333333333333333 [-]
	 SCS Opposite-Spin Scale   =       1.2000000000000000 [-]
	 SCS Same-Spin Energy      =      -0.1645970999194609 [Eh]
	 SCS Opposite-Spin Energy  =      -1.9512856485761398 [Eh]
	 SCS Correlation Energy    =      -2.1158827484956007 [Eh]
	 SCS Total Energy          =    -500.0624424610104484 [Eh]
	-----------------------------------------------------------

  Dipole Moment: [D]
     X:     0.0001      Y:     0.9365      Z:     0.8208     Total:     1.2453

*** Psi4 exiting successfully. Buy a developer a beer!
