                               Psi4 1.4a3.dev225

  ==> Input File <==

--------------------------------------------------------------------------
#psi4
#
memory 32 gb

molecule  {
0 1
  O        1.0823660    -0.5568910    -0.2629560
  O       -1.0823640    -0.5568750    -0.2629780
  O       -0.0000050     0.8796030     1.1562750
  C        2.3645860    -0.0472710     0.2118040
  C       -2.3645830    -0.0472720     0.2117990
  C        3.3581450    -1.1527440    -0.0787380
  C        2.6794270     1.2540320    -0.5011890
  C       -2.6794360     1.2540300    -0.5011890
  C       -3.3581360    -1.1527540    -0.0787300
  C       -0.0000009    -0.0007695     0.2822824
  H        2.2753340     0.1249760     1.2880770
  H       -2.2753170     0.1249770     1.2880710
  H        4.3539520    -0.8597410     0.2658680
  H        3.0673460    -2.0742840     0.4304720
  H        3.4026140    -1.3466350    -1.1536290
  H        3.6579950     1.6291330    -0.1863970
  H        1.9277540     2.0091980    -0.2639900
  H        2.6989690     1.0896910    -1.5821710
  H       -3.6580010     1.6291290    -0.1863860
  H       -1.9277600     2.0091950    -0.2639970
  H       -2.6989890     1.0896910    -1.5821710
  H       -4.3539420    -0.8597570     0.2658840
  H       -3.0673260    -2.0742900     0.4304790
  H       -3.4026140    -1.3466480    -1.1536200
units angstrom
no_reorient  #important for SAPT in psi4, default
symmetry c1  #important for SAPT in psi4, default
}

set PROPERTIES_ORIGIN ["COM"]
properties('MP2/aug-cc-pvtz', properties = ['dipole'])
--------------------------------------------------------------------------

    Molecular point group: c1
  Charge       = 0
  Multiplicity = 1
  Basis Set: AUG-CC-PVTZ
    Blend: AUG-CC-PVTZ
  Basis Set: (AUG-CC-PVTZ AUX)
    Blend: AUG-CC-PVTZ-JKFIT

    Orbital Energies [Eh]
    ---------------------

    Doubly Occupied:

       1A    -20.603137     2A    -20.603112     3A    -20.535379
       4A    -11.428472     5A    -11.294890     6A    -11.294889
       7A    -11.222255     8A    -11.222255     9A    -11.218647
      10A    -11.218646    11A     -1.494214    12A     -1.394710
      13A     -1.340969    14A     -1.083743    15A     -1.055861
      16A     -0.946830    17A     -0.946644    18A     -0.880023
      19A     -0.803094    20A     -0.769509    21A     -0.747596
      22A     -0.694327    23A     -0.673433    24A     -0.633420
      25A     -0.624410    26A     -0.616739    27A     -0.578766
      28A     -0.575068    29A     -0.559562    30A     -0.548912
      31A     -0.548695    32A     -0.533619    33A     -0.528002
      34A     -0.518059    35A     -0.503755    36A     -0.489679
      37A     -0.485878    38A     -0.466690    39A     -0.452641
      40A     -0.451762

  @DF-RHF Final Energy:  -498.03830423539034

   => Energetics <=

    Nuclear Repulsion Energy =            577.2864694719808085
    One-Electron Energy =               -1825.4729682656980003
    Two-Electron Energy =                 750.1481945583268498
    Total Energy =                       -498.0383042353903420
  Basis Set: (AUG-CC-PVTZ AUX)
    Blend: AUG-CC-PVTZ-RI
    Molecular point group: c1

    Geometry (in Angstrom), charge = 0, multiplicity = 1:

       Center              X                  Y                   Z               Mass
    ------------   -----------------  -----------------  -----------------  -----------------
         O            1.082366052482    -0.547959731380    -0.278099683355    15.994914619570
         O           -1.082363947518    -0.547943731380    -0.278121683355    15.994914619570
         O           -0.000004947518     0.888534268620     1.141131316645    15.994914619570
         C            2.364586052482    -0.038339731380     0.196660316645    12.000000000000
         C           -2.364582947518    -0.038340731380     0.196655316645    12.000000000000
         C            3.358145052482    -1.143812731380    -0.093881683355    12.000000000000
         C            2.679427052482     1.262963268620    -0.516332683355    12.000000000000
         C           -2.679435947518     1.262961268620    -0.516332683355    12.000000000000
         C           -3.358135947518    -1.143822731380    -0.093873683355    12.000000000000
         C           -0.000000847518     0.008161768620     0.267138716645    12.000000000000
         H            2.275334052482     0.133907268620     1.272933316645     1.007825032230
         H           -2.275316947518     0.133908268620     1.272927316645     1.007825032230
         H            4.353952052482    -0.850809731380     0.250724316645     1.007825032230
         H            3.067346052482    -2.065352731380     0.415328316645     1.007825032230
         H            3.402614052482    -1.337703731380    -1.168772683355     1.007825032230
         H            3.657995052482     1.638064268620    -0.201540683355     1.007825032230
         H            1.927754052482     2.018129268620    -0.279133683355     1.007825032230
         H            2.698969052482     1.098622268620    -1.597314683355     1.007825032230
         H           -3.658000947518     1.638060268620    -0.201529683355     1.007825032230
         H           -1.927759947518     2.018126268620    -0.279140683355     1.007825032230
         H           -2.698988947518     1.098622268620    -1.597314683355     1.007825032230
         H           -4.353941947518    -0.850825731380     0.250740316645     1.007825032230
         H           -3.067325947518    -2.065358731380     0.415335316645     1.007825032230
         H           -3.402613947518    -1.337716731380    -1.168763683355     1.007825032230

  Basis Set: AUG-CC-PVTZ
    Blend: AUG-CC-PVTZ
  Basis Set: (AUG-CC-PVTZ AUX)
    Blend: AUG-CC-PVTZ-JKFIT
	 Reference Energy          =    -498.0383042353903420 [Eh]
	 Singles Energy            =      -0.0000000000000000 [Eh]
	 Same-Spin Energy          =      -0.4943559702180012 [Eh]
	 Opposite-Spin Energy      =      -1.6247327236519562 [Eh]
	 Correlation Energy        =      -2.1190886938699576 [Eh]
	 Total Energy              =    -500.1573929292603111 [Eh]

	 ================> DF-SCS-MP2 Energies <==================
	-----------------------------------------------------------
	 SCS Same-Spin Scale       =       0.3333333333333333 [-]
	 SCS Opposite-Spin Scale   =       1.2000000000000000 [-]
	 SCS Same-Spin Energy      =      -0.1647853234060004 [Eh]
	 SCS Opposite-Spin Energy  =      -1.9496792683823474 [Eh]
	 SCS Correlation Energy    =      -2.1144645917883480 [Eh]
	 SCS Total Energy          =    -500.1527688271787042 [Eh]
	-----------------------------------------------------------

  Dipole Moment: [D]
     X:     0.0000      Y:    -0.2146      Z:    -0.3990     Total:     0.4530

*** Psi4 exiting successfully. Buy a developer a beer!
