                               Psi4 1.4a3.dev225

  ==> Input File <==

--------------------------------------------------------------------------
#psi4
#
memory 32 gb

molecule  {
0 1
  O        1.0823660    -0.5568910    -0.2629560
  O       -1.0823640    -0.5568750    -0.2629780
  O       -0.0000050     0.8796030     1.1562750
  C        2.3645860    -0.0472710     0.2118040
  C       -2.3206466    -0.0647340     0.1955303
  C        3.3581450    -1.1527440    -0.0787380
  C        2.6794270     1.2540320    -0.5011890
  C       -2.6794360     1.2540300    -0.5011890
  C       -3.3581360    -1.1527540    -0.0787300
  C       -0.0000010     0.0134240     0.2963730
  H        2.2753340     0.1249760     1.2880770
  H       -2.2753170     0.1249770     1.2880710
  H        4.3539520    -0.8597410     0.2658680
  H        3.0673460    -2.0742840     0.4304720
  H        3.4026140    -1.3466350    -1.1536290
  H        3.6579950     1.6291330    -0.1863970
  H        1.9277540     2.0091980    -0.2639900
  H        2.6989690     1.0896910    -1.5821710
  H       -3.6580010     1.6291290    -0.1863860
  H       -1.9277600     2.0091950    -0.2639970
  H       -2.6989890     1.0896910    -1.5821710
  H       -4.3539420    -0.8597570     0.2658840
  H       -3.0673260    -2.0742900     0.4304790
  H       -3.4026140    -1.3466480    -1.1536200
units angstrom
no_reorient  #important for SAPT in psi4, default
symmetry c1  #important for SAPT in psi4, default
}

set PROPERTIES_ORIGIN ["COM"]
properties('MP2/aug-cc-pvtz', properties = ['dipole'])
--------------------------------------------------------------------------

    Molecular point group: c1
  Charge       = 0
  Multiplicity = 1
  Basis Set: AUG-CC-PVTZ
    Blend: AUG-CC-PVTZ
  Basis Set: (AUG-CC-PVTZ AUX)
    Blend: AUG-CC-PVTZ-JKFIT

    Orbital Energies [Eh]
    ---------------------

    Doubly Occupied:

       1A    -20.607636     2A    -20.603749     3A    -20.544674
       4A    -11.432044     5A    -11.295545     6A    -11.292024
       7A    -11.222908     8A    -11.219888     9A    -11.219797
      10A    -11.216608    11A     -1.500070    12A     -1.400405
      13A     -1.358710    14A     -1.081392    15A     -1.050838
      16A     -0.947703    17A     -0.942139    18A     -0.884500
      19A     -0.802087    20A     -0.770124    21A     -0.751582
      22A     -0.699852    23A     -0.678219    24A     -0.635550
      25A     -0.624377    26A     -0.616252    27A     -0.583497
      28A     -0.575398    29A     -0.559613    30A     -0.550109
      31A     -0.545515    32A     -0.537013    33A     -0.530614
      34A     -0.519438    35A     -0.505442    36A     -0.489103
      37A     -0.480330    38A     -0.470174    39A     -0.457680
      40A     -0.447860

  @DF-RHF Final Energy:  -498.03773595916749

   => Energetics <=

    Nuclear Repulsion Energy =            578.0056413092735283
    One-Electron Energy =               -1826.7858383299994784
    Two-Electron Energy =                 750.7424610615585152
    Total Energy =                       -498.0377359591675486
  Basis Set: (AUG-CC-PVTZ AUX)
    Blend: AUG-CC-PVTZ-RI
    Molecular point group: c1

    Geometry (in Angstrom), charge = 0, multiplicity = 1:

       Center              X                  Y                   Z               Mass
    ------------   -----------------  -----------------  -----------------  -----------------
         O            1.078757180538    -0.547691260937    -0.277920776984    15.994914619570
         O           -1.085972819462    -0.547675260937    -0.277942776984    15.994914619570
         O           -0.003613819462     0.888802739063     1.141310223016    15.994914619570
         C            2.360977180538    -0.038071260937     0.196839223016    12.000000000000
         C           -2.324255419462    -0.055534260937     0.180565523016    12.000000000000
         C            3.354536180538    -1.143544260937    -0.093702776984    12.000000000000
         C            2.675818180538     1.263231739063    -0.516153776984    12.000000000000
         C           -2.683044819462     1.263229739063    -0.516153776984    12.000000000000
         C           -3.361744819462    -1.143554260937    -0.093694776984    12.000000000000
         C           -0.003609819462     0.022623739063     0.281408223016    12.000000000000
         H            2.271725180538     0.134175739063     1.273112223016     1.007825032230
         H           -2.278925819462     0.134176739063     1.273106223016     1.007825032230
         H            4.350343180538    -0.850541260937     0.250903223016     1.007825032230
         H            3.063737180538    -2.065084260937     0.415507223016     1.007825032230
         H            3.399005180538    -1.337435260937    -1.168593776984     1.007825032230
         H            3.654386180538     1.638332739063    -0.201361776984     1.007825032230
         H            1.924145180538     2.018397739063    -0.278954776984     1.007825032230
         H            2.695360180538     1.098890739063    -1.597135776984     1.007825032230
         H           -3.661609819462     1.638328739063    -0.201350776984     1.007825032230
         H           -1.931368819462     2.018394739063    -0.278961776984     1.007825032230
         H           -2.702597819462     1.098890739063    -1.597135776984     1.007825032230
         H           -4.357550819462    -0.850557260937     0.250919223016     1.007825032230
         H           -3.070934819462    -2.065090260937     0.415514223016     1.007825032230
         H           -3.406222819462    -1.337448260937    -1.168584776984     1.007825032230

  Basis Set: AUG-CC-PVTZ
    Blend: AUG-CC-PVTZ
  Basis Set: (AUG-CC-PVTZ AUX)
    Blend: AUG-CC-PVTZ-JKFIT
	 Reference Energy          =    -498.0377359591674917 [Eh]
	 Singles Energy            =      -0.0000000000000000 [Eh]
	 Same-Spin Energy          =      -0.4942479998368511 [Eh]
	 Opposite-Spin Energy      =      -1.6244560750106172 [Eh]
	 Correlation Energy        =      -2.1187040748474684 [Eh]
	 Total Energy              =    -500.1564400340149632 [Eh]

	 ================> DF-SCS-MP2 Energies <==================
	-----------------------------------------------------------
	 SCS Same-Spin Scale       =       0.3333333333333333 [-]
	 SCS Opposite-Spin Scale   =       1.2000000000000000 [-]
	 SCS Same-Spin Energy      =      -0.1647493332789504 [Eh]
	 SCS Opposite-Spin Energy  =      -1.9493472900127404 [Eh]
	 SCS Correlation Energy    =      -2.1140966232916907 [Eh]
	 SCS Total Energy          =    -500.1518325824591784 [Eh]
	-----------------------------------------------------------

  Dipole Moment: [D]
     X:     0.2548      Y:    -0.1431      Z:    -0.2921     Total:     0.4132

*** Psi4 exiting successfully. Buy a developer a beer!
