                               Psi4 1.3.2 release

  ==> Input File <==

--------------------------------------------------------------------------
#psi4
#
memory 32 gb

molecule  {
0 1
  O        1.0823540    -0.5566580    -0.2632920
  O       -1.0874868    -0.5962013    -0.2321072
  O        0.0000290     0.8790020     1.1568390
  C        2.3645980    -0.0472600     0.2117580
  C       -2.3645710    -0.0472670     0.2117220
  C        3.3580870    -1.1527530    -0.0787140
  C        2.6794210     1.2541120    -0.5011060
  C       -2.6796530     1.2540600    -0.5011170
  C       -3.3579470    -1.1529030    -0.0785870
  C        0.0000190     0.0134100     0.2963400
  H        2.2751950     0.1248800     1.2880410
  H       -2.2750520     0.1249260     1.2879850
  H        4.3537060    -0.8600380     0.2666930
  H        3.0667940    -2.0744370     0.4299490
  H        3.4032550    -1.3462360    -1.1536500
  H        3.6582030     1.6290460    -0.1867860
  H        1.9279580     2.0093320    -0.2633690
  H        2.6983220     1.0899770    -1.5821290
  H       -3.6584150     1.6289180    -0.1866510
  H       -1.9282070     2.0093390    -0.2634970
  H       -2.6986940     1.0899190    -1.5821360
  H       -4.3535640    -0.8602980     0.2669170
  H       -3.0664820    -2.0745270     0.4300870
  H       -3.4032180    -1.3464490    -1.1535090
units angstrom
no_reorient  #important for SAPT in psi4, default
symmetry c1  #important for SAPT in psi4, default
}

set PROPERTIES_ORIGIN ["COM"]
properties('MP2/aug-cc-pvtz', properties = ['dipole'])
--------------------------------------------------------------------------

    Molecular point group: c1
  Charge       = 0
  Multiplicity = 1
  Basis Set: AUG-CC-PVTZ
    Blend: AUG-CC-PVTZ
  Basis Set: (AUG-CC-PVTZ AUX)
    Blend: AUG-CC-PVTZ-JKFIT

    Orbital Energies [Eh]
    ---------------------

    Doubly Occupied:

       1A    -20.601729     2A    -20.600824     3A    -20.542812
       4A    -11.428938     5A    -11.294194     6A    -11.292921
       7A    -11.221901     8A    -11.220450     9A    -11.219485
      10A    -11.218873    11A     -1.490357    12A     -1.388127
      13A     -1.354966    14A     -1.081211    15A     -1.054010
      16A     -0.946763    17A     -0.946417    18A     -0.875829
      19A     -0.800804    20A     -0.768877    21A     -0.744242
      22A     -0.695366    23A     -0.674124    24A     -0.633454
      25A     -0.624854    26A     -0.615451    27A     -0.581896
      28A     -0.573947    29A     -0.558268    30A     -0.548865
      31A     -0.547900    32A     -0.534947    33A     -0.525559
      34A     -0.517292    35A     -0.505792    36A     -0.490544
      37A     -0.485394    38A     -0.468862    39A     -0.457752
      40A     -0.452356

  @DF-RHF Final Energy:  -498.03787783183361

   => Energetics <=

    Nuclear Repulsion Energy =            576.9398712504731748
    One-Electron Energy =               -1824.7827957806032373
    Two-Electron Energy =                 749.8050466982963371
    Total Energy =                       -498.0378778318336117
  Basis Set: (AUG-CC-PVTZ AUX)
    Blend: AUG-CC-PVTZ-RI
    Molecular point group: c1

    Geometry (in Angstrom), charge = 0, multiplicity = 1:

       Center              X                  Y                   Z               Mass
    ------------   -----------------  -----------------  -----------------  -----------------
         O            1.082917933060    -0.544540965940    -0.283021545105    15.994914619570
         O           -1.086922866940    -0.584084265940    -0.251836745105    15.994914619570
         O            0.000592933060     0.891119034060     1.137109454895    15.994914619570
         C            2.365161933060    -0.035142965940     0.192028454895    12.000000000000
         C           -2.364007066940    -0.035149965940     0.191992454895    12.000000000000
         C            3.358650933060    -1.140635965940    -0.098443545105    12.000000000000
         C            2.679984933060     1.266229034060    -0.520835545105    12.000000000000
         C           -2.679089066940     1.266177034060    -0.520846545105    12.000000000000
         C           -3.357383066940    -1.140785965940    -0.098316545105    12.000000000000
         C            0.000582933060     0.025527034060     0.276610454895    12.000000000000
         H            2.275758933060     0.136997034060     1.268311454895     1.007825032230
         H           -2.274488066940     0.137043034060     1.268255454895     1.007825032230
         H            4.354269933060    -0.847920965940     0.246963454895     1.007825032230
         H            3.067357933060    -2.062319965940     0.410219454895     1.007825032230
         H            3.403818933060    -1.334118965940    -1.173379545105     1.007825032230
         H            3.658766933060     1.641163034060    -0.206515545105     1.007825032230
         H            1.928521933060     2.021449034060    -0.283098545105     1.007825032230
         H            2.698885933060     1.102094034060    -1.601858545105     1.007825032230
         H           -3.657851066940     1.641035034060    -0.206380545105     1.007825032230
         H           -1.927643066940     2.021456034060    -0.283226545105     1.007825032230
         H           -2.698130066940     1.102036034060    -1.601865545105     1.007825032230
         H           -4.353000066940    -0.848180965940     0.247187454895     1.007825032230
         H           -3.065918066940    -2.062409965940     0.410357454895     1.007825032230
         H           -3.402654066940    -1.334331965940    -1.173238545105     1.007825032230

  Basis Set: AUG-CC-PVTZ
    Blend: AUG-CC-PVTZ
  Basis Set: (AUG-CC-PVTZ AUX)
    Blend: AUG-CC-PVTZ-JKFIT
	 Reference Energy          =    -498.0378778318336117 [Eh]
	 Singles Energy            =      -0.0000000000000000 [Eh]
	 Same-Spin Energy          =      -0.4944946115703818 [Eh]
	 Opposite-Spin Energy      =      -1.6253048252872735 [Eh]
	 Correlation Energy        =      -2.1197994368576554 [Eh]
	 Total Energy              =    -500.1576772686912591 [Eh]

	 ================> DF-SCS-MP2 Energies <==================
	-----------------------------------------------------------
	 SCS Same-Spin Scale       =       0.3333333333333333 [-]
	 SCS Opposite-Spin Scale   =       1.2000000000000000 [-]
	 SCS Same-Spin Energy      =      -0.1648315371901272 [Eh]
	 SCS Opposite-Spin Energy  =      -1.9503657903447280 [Eh]
	 SCS Correlation Energy    =      -2.1151973275348555 [Eh]
	 SCS Total Energy          =    -500.1530751593684840 [Eh]
	-----------------------------------------------------------

  Dipole Moment: [D]
     X:     0.0646      Y:    -0.0376      Z:    -0.3166     Total:     0.3253

*** Psi4 exiting successfully. Buy a developer a beer!
