                               Psi4 1.3.2 release

  ==> Input File <==

--------------------------------------------------------------------------
#psi4
#
memory 32 gb

molecule  {
0 1
  O        1.0823540    -0.5566580    -0.2632920
  O       -1.0482110    -0.5496907    -0.1677829
  O        0.0000290     0.8790020     1.1568390
  C        2.3645980    -0.0472600     0.2117580
  C       -2.3645710    -0.0472670     0.2117220
  C        3.3580870    -1.1527530    -0.0787140
  C        2.6794210     1.2541120    -0.5011060
  C       -2.6796530     1.2540600    -0.5011170
  C       -3.3579470    -1.1529030    -0.0785870
  C        0.0000190     0.0134100     0.2963400
  H        2.2751950     0.1248800     1.2880410
  H       -2.2750520     0.1249260     1.2879850
  H        4.3537060    -0.8600380     0.2666930
  H        3.0667940    -2.0744370     0.4299490
  H        3.4032550    -1.3462360    -1.1536500
  H        3.6582030     1.6290460    -0.1867860
  H        1.9279580     2.0093320    -0.2633690
  H        2.6983220     1.0899770    -1.5821290
  H       -3.6584150     1.6289180    -0.1866510
  H       -1.9282070     2.0093390    -0.2634970
  H       -2.6986940     1.0899190    -1.5821360
  H       -4.3535640    -0.8602980     0.2669170
  H       -3.0664820    -2.0745270     0.4300870
  H       -3.4032180    -1.3464490    -1.1535090
units angstrom
no_reorient  #important for SAPT in psi4, default
symmetry c1  #important for SAPT in psi4, default
}

set PROPERTIES_ORIGIN ["COM"]
properties('MP2/aug-cc-pvtz', properties = ['dipole'])
--------------------------------------------------------------------------

    Molecular point group: c1
  Charge       = 0
  Multiplicity = 1
  Basis Set: AUG-CC-PVTZ
    Blend: AUG-CC-PVTZ
  Basis Set: (AUG-CC-PVTZ AUX)
    Blend: AUG-CC-PVTZ-JKFIT

    Orbital Energies [Eh]
    ---------------------

    Doubly Occupied:

       1A    -20.600514     2A    -20.595829     3A    -20.527478
       4A    -11.417533     5A    -11.299717     6A    -11.290758
       7A    -11.226034     8A    -11.222663     9A    -11.219636
      10A    -11.216058    11A     -1.507636    12A     -1.395979
      13A     -1.346369    14A     -1.087157    15A     -1.056060
      16A     -0.950010    17A     -0.944060    18A     -0.886107
      19A     -0.804431    20A     -0.766289    21A     -0.750078
      22A     -0.698175    23A     -0.677024    24A     -0.633680
      25A     -0.627431    26A     -0.615406    27A     -0.580588
      28A     -0.574320    29A     -0.561574    30A     -0.551109
      31A     -0.546675    32A     -0.535091    33A     -0.528618
      34A     -0.517106    35A     -0.503986    36A     -0.489909
      37A     -0.483193    38A     -0.463555    39A     -0.452773
      40A     -0.449922

  @DF-RHF Final Energy:  -498.03990651662269

   => Energetics <=

    Nuclear Repulsion Energy =            578.9755987847045162
    One-Electron Energy =               -1828.8299451172167664
    Two-Electron Energy =                 751.8144398158895001
    Total Energy =                       -498.0399065166227501
  Basis Set: (AUG-CC-PVTZ AUX)
    Blend: AUG-CC-PVTZ-RI
    Molecular point group: c1

    Geometry (in Angstrom), charge = 0, multiplicity = 1:

       Center              X                  Y                   Z               Mass
    ------------   -----------------  -----------------  -----------------  -----------------
         O            1.078617881024    -0.549633109198    -0.290063994582    15.994914619570
         O           -1.051947118976    -0.542665809198    -0.194554894582    15.994914619570
         O           -0.003707118976     0.886026890802     1.130067005418    15.994914619570
         C            2.360861881024    -0.040235109198     0.184986005418    12.000000000000
         C           -2.368307118976    -0.040242109198     0.184950005418    12.000000000000
         C            3.354350881024    -1.145728109198    -0.105485994582    12.000000000000
         C            2.675684881024     1.261136890802    -0.527877994582    12.000000000000
         C           -2.683389118976     1.261084890802    -0.527888994582    12.000000000000
         C           -3.361683118976    -1.145878109198    -0.105358994582    12.000000000000
         C           -0.003717118976     0.020434890802     0.269568005418    12.000000000000
         H            2.271458881024     0.131904890802     1.261269005418     1.007825032230
         H           -2.278788118976     0.131950890802     1.261213005418     1.007825032230
         H            4.349969881024    -0.853013109198     0.239921005418     1.007825032230
         H            3.063057881024    -2.067412109198     0.403177005418     1.007825032230
         H            3.399518881024    -1.339211109198    -1.180421994582     1.007825032230
         H            3.654466881024     1.636070890802    -0.213557994582     1.007825032230
         H            1.924221881024     2.016356890802    -0.290140994582     1.007825032230
         H            2.694585881024     1.097001890802    -1.608900994582     1.007825032230
         H           -3.662151118976     1.635942890802    -0.213422994582     1.007825032230
         H           -1.931943118976     2.016363890802    -0.290268994582     1.007825032230
         H           -2.702430118976     1.096943890802    -1.608907994582     1.007825032230
         H           -4.357300118976    -0.853273109198     0.240145005418     1.007825032230
         H           -3.070218118976    -2.067502109198     0.403315005418     1.007825032230
         H           -3.406954118976    -1.339424109198    -1.180280994582     1.007825032230

  Basis Set: AUG-CC-PVTZ
    Blend: AUG-CC-PVTZ
  Basis Set: (AUG-CC-PVTZ AUX)
    Blend: AUG-CC-PVTZ-JKFIT
	 Reference Energy          =    -498.0399065166226933 [Eh]
	 Singles Energy            =      -0.0000000000000000 [Eh]
	 Same-Spin Energy          =      -0.4930853497609086 [Eh]
	 Opposite-Spin Energy      =      -1.6213675086154253 [Eh]
	 Correlation Energy        =      -2.1144528583763340 [Eh]
	 Total Energy              =    -500.1543593749990464 [Eh]

	 ================> DF-SCS-MP2 Energies <==================
	-----------------------------------------------------------
	 SCS Same-Spin Scale       =       0.3333333333333333 [-]
	 SCS Opposite-Spin Scale   =       1.2000000000000000 [-]
	 SCS Same-Spin Energy      =      -0.1643617832536362 [Eh]
	 SCS Opposite-Spin Energy  =      -1.9456410103385102 [Eh]
	 SCS Correlation Energy    =      -2.1100027935921464 [Eh]
	 SCS Total Energy          =    -500.1499093102148663 [Eh]
	-----------------------------------------------------------

  Dipole Moment: [D]
     X:    -0.4704      Y:    -0.2261      Z:    -0.5183     Total:     0.7355

*** Psi4 exiting successfully. Buy a developer a beer!
