                               Psi4 1.4a3.dev225

  ==> Input File <==

--------------------------------------------------------------------------
#psi4
#
memory 32 gb

molecule  {
0 1
  O        1.0823660    -0.5568910    -0.2629560
  O       -1.0823640    -0.5568750    -0.2629780
  O       -0.0000050     0.8796030     1.1562750
  C        2.3645860    -0.0472710     0.2118040
  C       -2.3821576    -0.0402872     0.2183065
  C        3.3581450    -1.1527440    -0.0787380
  C        2.6794270     1.2540320    -0.5011890
  C       -2.6794360     1.2540300    -0.5011890
  C       -3.3581360    -1.1527540    -0.0787300
  C       -0.0000010     0.0134240     0.2963730
  H        2.2753340     0.1249760     1.2880770
  H       -2.2753170     0.1249770     1.2880710
  H        4.3539520    -0.8597410     0.2658680
  H        3.0673460    -2.0742840     0.4304720
  H        3.4026140    -1.3466350    -1.1536290
  H        3.6579950     1.6291330    -0.1863970
  H        1.9277540     2.0091980    -0.2639900
  H        2.6989690     1.0896910    -1.5821710
  H       -3.6580010     1.6291290    -0.1863860
  H       -1.9277600     2.0091950    -0.2639970
  H       -2.6989890     1.0896910    -1.5821710
  H       -4.3539420    -0.8597570     0.2658840
  H       -3.0673260    -2.0742900     0.4304790
  H       -3.4026140    -1.3466480    -1.1536200
units angstrom
no_reorient  #important for SAPT in psi4, default
symmetry c1  #important for SAPT in psi4, default
}

set PROPERTIES_ORIGIN ["COM"]
properties('MP2/aug-cc-pvtz', properties = ['dipole'])
--------------------------------------------------------------------------

    Molecular point group: c1
  Charge       = 0
  Multiplicity = 1
  Basis Set: AUG-CC-PVTZ
    Blend: AUG-CC-PVTZ
  Basis Set: (AUG-CC-PVTZ AUX)
    Blend: AUG-CC-PVTZ-JKFIT

    Orbital Energies [Eh]
    ---------------------

    Doubly Occupied:

       1A    -20.599801     2A    -20.598103     3A    -20.539890
       4A    -11.426211     5A    -11.294704     6A    -11.293028
       7A    -11.222394     8A    -11.221100     9A    -11.219304
      10A    -11.217973    11A     -1.489044    12A     -1.384962
      13A     -1.352336    14A     -1.082250    15A     -1.055298
      16A     -0.948102    17A     -0.945794    18A     -0.873774
      19A     -0.800914    20A     -0.768740    21A     -0.743203
      22A     -0.693833    23A     -0.672694    24A     -0.631870
      25A     -0.625248    26A     -0.615235    27A     -0.580691
      28A     -0.574345    29A     -0.558902    30A     -0.549467
      31A     -0.547770    32A     -0.533410    33A     -0.524135
      34A     -0.515398    35A     -0.506511    36A     -0.491925
      37A     -0.486645    38A     -0.467842    39A     -0.456777
      40A     -0.452289

  @DF-RHF Final Energy:  -498.03846337927564

   => Energetics <=

    Nuclear Repulsion Energy =            576.9926857567861589
    One-Electron Energy =               -1824.9384722955196594
    Two-Electron Energy =                 749.9073231594578601
    Total Energy =                       -498.0384633792756404
  Basis Set: (AUG-CC-PVTZ AUX)
    Blend: AUG-CC-PVTZ-RI
    Molecular point group: c1

    Geometry (in Angstrom), charge = 0, multiplicity = 1:

       Center              X                  Y                   Z               Mass
    ------------   -----------------  -----------------  -----------------  -----------------
         O            1.083809616045    -0.549699290076    -0.279791585158    15.994914619570
         O           -1.080920383955    -0.549683290076    -0.279813585158    15.994914619570
         O            0.001438616045     0.886794709924     1.139439414842    15.994914619570
         C            2.366029616045    -0.040079290076     0.194968414842    12.000000000000
         C           -2.380713983955    -0.033095490076     0.201470914842    12.000000000000
         C            3.359588616045    -1.145552290076    -0.095573585158    12.000000000000
         C            2.680870616045     1.261223709924    -0.518024585158    12.000000000000
         C           -2.677992383955     1.261221709924    -0.518024585158    12.000000000000
         C           -3.356692383955    -1.145562290076    -0.095565585158    12.000000000000
         C            0.001442616045     0.020615709924     0.279537414842    12.000000000000
         H            2.276777616045     0.132167709924     1.271241414842     1.007825032230
         H           -2.273873383955     0.132168709924     1.271235414842     1.007825032230
         H            4.355395616045    -0.852549290076     0.249032414842     1.007825032230
         H            3.068789616045    -2.067092290076     0.413636414842     1.007825032230
         H            3.404057616045    -1.339443290076    -1.170464585158     1.007825032230
         H            3.659438616045     1.636324709924    -0.203232585158     1.007825032230
         H            1.929197616045     2.016389709924    -0.280825585158     1.007825032230
         H            2.700412616045     1.096882709924    -1.599006585158     1.007825032230
         H           -3.656557383955     1.636320709924    -0.203221585158     1.007825032230
         H           -1.926316383955     2.016386709924    -0.280832585158     1.007825032230
         H           -2.697545383955     1.096882709924    -1.599006585158     1.007825032230
         H           -4.352498383955    -0.852565290076     0.249048414842     1.007825032230
         H           -3.065882383955    -2.067098290076     0.413643414842     1.007825032230
         H           -3.401170383955    -1.339456290076    -1.170455585158     1.007825032230

  Basis Set: AUG-CC-PVTZ
    Blend: AUG-CC-PVTZ
  Basis Set: (AUG-CC-PVTZ AUX)
    Blend: AUG-CC-PVTZ-JKFIT
	 Reference Energy          =    -498.0384633792756404 [Eh]
	 Singles Energy            =      -0.0000000000000000 [Eh]
	 Same-Spin Energy          =      -0.4943995528830518 [Eh]
	 Opposite-Spin Energy      =      -1.6250848947533674 [Eh]
	 Correlation Energy        =      -2.1194844476364194 [Eh]
	 Total Energy              =    -500.1579478269120500 [Eh]

	 ================> DF-SCS-MP2 Energies <==================
	-----------------------------------------------------------
	 SCS Same-Spin Scale       =       0.3333333333333333 [-]
	 SCS Opposite-Spin Scale   =       1.2000000000000000 [-]
	 SCS Same-Spin Energy      =      -0.1647998509610173 [Eh]
	 SCS Opposite-Spin Energy  =      -1.9501018737040408 [Eh]
	 SCS Correlation Energy    =      -2.1149017246650579 [Eh]
	 SCS Total Energy          =    -500.1533651039407005 [Eh]
	-----------------------------------------------------------

  Dipole Moment: [D]
     X:    -0.1016      Y:    -0.1027      Z:    -0.2908     Total:     0.3247

*** Psi4 exiting successfully. Buy a developer a beer!
