                               Psi4 1.3.2 release

  ==> Input File <==

--------------------------------------------------------------------------
#psi4
#
memory 32 gb

molecule  {
0 1
  O        1.0823540    -0.5566580    -0.2632920
  O       -1.0918368    -0.5577370    -0.2871017
  O        0.0000290     0.8790020     1.1568390
  C        2.3645980    -0.0472600     0.2117580
  C       -2.3645710    -0.0472670     0.2117220
  C        3.3580870    -1.1527530    -0.0787140
  C        2.6794210     1.2541120    -0.5011060
  C       -2.6796530     1.2540600    -0.5011170
  C       -3.3579470    -1.1529030    -0.0785870
  C        0.0000190     0.0134100     0.2963400
  H        2.2751950     0.1248800     1.2880410
  H       -2.2750520     0.1249260     1.2879850
  H        4.3537060    -0.8600380     0.2666930
  H        3.0667940    -2.0744370     0.4299490
  H        3.4032550    -1.3462360    -1.1536500
  H        3.6582030     1.6290460    -0.1867860
  H        1.9279580     2.0093320    -0.2633690
  H        2.6983220     1.0899770    -1.5821290
  H       -3.6584150     1.6289180    -0.1866510
  H       -1.9282070     2.0093390    -0.2634970
  H       -2.6986940     1.0899190    -1.5821360
  H       -4.3535640    -0.8602980     0.2669170
  H       -3.0664820    -2.0745270     0.4300870
  H       -3.4032180    -1.3464490    -1.1535090
units angstrom
no_reorient  #important for SAPT in psi4, default
symmetry c1  #important for SAPT in psi4, default
}

set PROPERTIES_ORIGIN ["COM"]
properties('MP2/aug-cc-pvtz', properties = ['dipole'])
--------------------------------------------------------------------------

    Molecular point group: c1
  Charge       = 0
  Multiplicity = 1
  Basis Set: AUG-CC-PVTZ
    Blend: AUG-CC-PVTZ
  Basis Set: (AUG-CC-PVTZ AUX)
    Blend: AUG-CC-PVTZ-JKFIT

    Orbital Energies [Eh]
    ---------------------

    Doubly Occupied:

       1A    -20.602288     2A    -20.600885     3A    -20.544570
       4A    -11.430404     5A    -11.294523     6A    -11.292331
       7A    -11.222135     8A    -11.220534     9A    -11.219121
      10A    -11.217477    11A     -1.488967    12A     -1.387018
      13A     -1.355958    14A     -1.080759    15A     -1.053427
      16A     -0.946948    17A     -0.945454    18A     -0.874676
      19A     -0.800160    20A     -0.770052    21A     -0.744181
      22A     -0.695427    23A     -0.673449    24A     -0.632165
      25A     -0.624804    26A     -0.615000    27A     -0.581728
      28A     -0.574592    29A     -0.558630    30A     -0.548828
      31A     -0.547744    32A     -0.534172    33A     -0.525162
      34A     -0.516813    35A     -0.506565    36A     -0.490303
      37A     -0.486096    38A     -0.469873    39A     -0.457738
      40A     -0.451978

  @DF-RHF Final Energy:  -498.03703255294090

   => Energetics <=

    Nuclear Repulsion Energy =            576.8451015046225621
    One-Electron Energy =               -1824.5983994960840846
    Two-Electron Energy =                 749.7162654385206224
    Total Energy =                       -498.0370325529409001
  Basis Set: (AUG-CC-PVTZ AUX)
    Blend: AUG-CC-PVTZ-RI
    Molecular point group: c1

    Geometry (in Angstrom), charge = 0, multiplicity = 1:

       Center              X                  Y                   Z               Mass
    ------------   -----------------  -----------------  -----------------  -----------------
         O            1.083394186283    -0.548752172115    -0.277000554784    15.994914619570
         O           -1.090796613717    -0.549831172115    -0.300810254784    15.994914619570
         O            0.001069186283     0.886907827885     1.143130445216    15.994914619570
         C            2.365638186283    -0.039354172115     0.198049445216    12.000000000000
         C           -2.363530813717    -0.039361172115     0.198013445216    12.000000000000
         C            3.359127186283    -1.144847172115    -0.092422554784    12.000000000000
         C            2.680461186283     1.262017827885    -0.514814554784    12.000000000000
         C           -2.678612813717     1.261965827885    -0.514825554784    12.000000000000
         C           -3.356906813717    -1.144997172115    -0.092295554784    12.000000000000
         C            0.001059186283     0.021315827885     0.282631445216    12.000000000000
         H            2.276235186283     0.132785827885     1.274332445216     1.007825032230
         H           -2.274011813717     0.132831827885     1.274276445216     1.007825032230
         H            4.354746186283    -0.852132172115     0.252984445216     1.007825032230
         H            3.067834186283    -2.066531172115     0.416240445216     1.007825032230
         H            3.404295186283    -1.338330172115    -1.167358554784     1.007825032230
         H            3.659243186283     1.636951827885    -0.200494554784     1.007825032230
         H            1.928998186283     2.017237827885    -0.277077554784     1.007825032230
         H            2.699362186283     1.097882827885    -1.595837554784     1.007825032230
         H           -3.657374813717     1.636823827885    -0.200359554784     1.007825032230
         H           -1.927166813717     2.017244827885    -0.277205554784     1.007825032230
         H           -2.697653813717     1.097824827885    -1.595844554784     1.007825032230
         H           -4.352523813717    -0.852392172115     0.253208445216     1.007825032230
         H           -3.065441813717    -2.066621172115     0.416378445216     1.007825032230
         H           -3.402177813717    -1.338543172115    -1.167217554784     1.007825032230

  Basis Set: AUG-CC-PVTZ
    Blend: AUG-CC-PVTZ
  Basis Set: (AUG-CC-PVTZ AUX)
    Blend: AUG-CC-PVTZ-JKFIT
	 Reference Energy          =    -498.0370325529409001 [Eh]
	 Singles Energy            =      -0.0000000000000000 [Eh]
	 Same-Spin Energy          =      -0.4946842246350966 [Eh]
	 Opposite-Spin Energy      =      -1.6258559411228344 [Eh]
	 Correlation Energy        =      -2.1205401657579310 [Eh]
	 Total Energy              =    -500.1575727186988161 [Eh]

	 ================> DF-SCS-MP2 Energies <==================
	-----------------------------------------------------------
	 SCS Same-Spin Scale       =       0.3333333333333333 [-]
	 SCS Opposite-Spin Scale   =       1.2000000000000000 [-]
	 SCS Same-Spin Energy      =      -0.1648947415450322 [Eh]
	 SCS Opposite-Spin Energy  =      -1.9510271293474011 [Eh]
	 SCS Correlation Energy    =      -2.1159218708924334 [Eh]
	 SCS Total Energy          =    -500.1529544238333074 [Eh]
	-----------------------------------------------------------

  Dipole Moment: [D]
     X:     0.1215      Y:    -0.0877      Z:    -0.2338     Total:     0.2777

*** Psi4 exiting successfully. Buy a developer a beer!
