                               Psi4 1.3.2 release

  ==> Input File <==

--------------------------------------------------------------------------
#psi4
#
memory 32 gb

molecule  {
0 1
  O        1.1095742    -0.5293636    -0.2364813
  O       -1.0823250    -0.5564370    -0.2635130
  O        0.0000290     0.8790020     1.1568390
  C        2.3645980    -0.0472600     0.2117580
  C       -2.3645710    -0.0472670     0.2117220
  C        3.3580870    -1.1527530    -0.0787140
  C        2.6794210     1.2541120    -0.5011060
  C       -2.6796530     1.2540600    -0.5011170
  C       -3.3579470    -1.1529030    -0.0785870
  C        0.0000190     0.0134100     0.2963400
  H        2.2751950     0.1248800     1.2880410
  H       -2.2750520     0.1249260     1.2879850
  H        4.3537060    -0.8600380     0.2666930
  H        3.0667940    -2.0744370     0.4299490
  H        3.4032550    -1.3462360    -1.1536500
  H        3.6582030     1.6290460    -0.1867860
  H        1.9279580     2.0093320    -0.2633690
  H        2.6983220     1.0899770    -1.5821290
  H       -3.6584150     1.6289180    -0.1866510
  H       -1.9282070     2.0093390    -0.2634970
  H       -2.6986940     1.0899190    -1.5821360
  H       -4.3535640    -0.8602980     0.2669170
  H       -3.0664820    -2.0745270     0.4300870
  H       -3.4032180    -1.3464490    -1.1535090
units angstrom
no_reorient  #important for SAPT in psi4, default
symmetry c1  #important for SAPT in psi4, default
}

set PROPERTIES_ORIGIN ["COM"]
properties('MP2/aug-cc-pvtz', properties = ['dipole'])
--------------------------------------------------------------------------

    Molecular point group: c1
  Charge       = 0
  Multiplicity = 1
  Basis Set: AUG-CC-PVTZ
    Blend: AUG-CC-PVTZ
  Basis Set: (AUG-CC-PVTZ AUX)
    Blend: AUG-CC-PVTZ-JKFIT

    Orbital Energies [Eh]
    ---------------------

    Doubly Occupied:

       1A    -20.604538     2A    -20.600087     3A    -20.540414
       4A    -11.430050     5A    -11.295833     6A    -11.289501
       7A    -11.222955     8A    -11.220156     9A    -11.219628
      10A    -11.216021    11A     -1.495544    12A     -1.398303
      13A     -1.354337    14A     -1.082951    15A     -1.054182
      16A     -0.947630    17A     -0.945377    18A     -0.882977
      19A     -0.804107    20A     -0.769010    21A     -0.751152
      22A     -0.696856    23A     -0.675467    24A     -0.635131
      25A     -0.626080    26A     -0.618056    27A     -0.581343
      28A     -0.574899    29A     -0.558887    30A     -0.549675
      31A     -0.547065    32A     -0.534055    33A     -0.530087
      34A     -0.518748    35A     -0.506273    36A     -0.490222
      37A     -0.483910    38A     -0.467464    39A     -0.456304
      40A     -0.449472

  @DF-RHF Final Energy:  -498.03961756042207

   => Energetics <=

    Nuclear Repulsion Energy =            577.9714701227501337
    One-Electron Energy =               -1826.7726779741958580
    Two-Electron Energy =                 750.7615902910237082
    Total Energy =                       -498.0396175604220161
  Basis Set: (AUG-CC-PVTZ AUX)
    Blend: AUG-CC-PVTZ-RI
    Molecular point group: c1

    Geometry (in Angstrom), charge = 0, multiplicity = 1:

       Center              X                  Y                   Z               Mass
    ------------   -----------------  -----------------  -----------------  -----------------
         O            1.106592838374    -0.524588387098    -0.255707757476    15.994914619570
         O           -1.085306361626    -0.551661787098    -0.282739457476    15.994914619570
         O           -0.002952361626     0.883777212902     1.137612542524    15.994914619570
         C            2.361616638374    -0.042484787098     0.192531542524    12.000000000000
         C           -2.367552361626    -0.042491787098     0.192495542524    12.000000000000
         C            3.355105638374    -1.147977787098    -0.097940457476    12.000000000000
         C            2.676439638374     1.258887212902    -0.520332457476    12.000000000000
         C           -2.682634361626     1.258835212902    -0.520343457476    12.000000000000
         C           -3.360928361626    -1.148127787098    -0.097813457476    12.000000000000
         C           -0.002962361626     0.018185212902     0.277113542524    12.000000000000
         H            2.272213638374     0.129655212902     1.268814542524     1.007825032230
         H           -2.278033361626     0.129701212902     1.268758542524     1.007825032230
         H            4.350724638374    -0.855262787098     0.247466542524     1.007825032230
         H            3.063812638374    -2.069661787098     0.410722542524     1.007825032230
         H            3.400273638374    -1.341460787098    -1.172876457476     1.007825032230
         H            3.655221638374     1.633821212902    -0.206012457476     1.007825032230
         H            1.924976638374     2.014107212902    -0.282595457476     1.007825032230
         H            2.695340638374     1.094752212902    -1.601355457476     1.007825032230
         H           -3.661396361626     1.633693212902    -0.205877457476     1.007825032230
         H           -1.931188361626     2.014114212902    -0.282723457476     1.007825032230
         H           -2.701675361626     1.094694212902    -1.601362457476     1.007825032230
         H           -4.356545361626    -0.855522787098     0.247690542524     1.007825032230
         H           -3.069463361626    -2.069751787098     0.410860542524     1.007825032230
         H           -3.406199361626    -1.341673787098    -1.172735457476     1.007825032230

  Basis Set: AUG-CC-PVTZ
    Blend: AUG-CC-PVTZ
  Basis Set: (AUG-CC-PVTZ AUX)
    Blend: AUG-CC-PVTZ-JKFIT
	 Reference Energy          =    -498.0396175604220730 [Eh]
	 Singles Energy            =      -0.0000000000000000 [Eh]
	 Same-Spin Energy          =      -0.4940435251984214 [Eh]
	 Opposite-Spin Energy      =      -1.6236736928193194 [Eh]
	 Correlation Energy        =      -2.1177172180177406 [Eh]
	 Total Energy              =    -500.1573347784398038 [Eh]

	 ================> DF-SCS-MP2 Energies <==================
	-----------------------------------------------------------
	 SCS Same-Spin Scale       =       0.3333333333333333 [-]
	 SCS Opposite-Spin Scale   =       1.2000000000000000 [-]
	 SCS Same-Spin Energy      =      -0.1646811750661405 [Eh]
	 SCS Opposite-Spin Energy  =      -1.9484084313831831 [Eh]
	 SCS Correlation Energy    =      -2.1130896064493236 [Eh]
	 SCS Total Energy          =    -500.1527071668713802 [Eh]
	-----------------------------------------------------------

  Dipole Moment: [D]
     X:    -0.1919      Y:    -0.1777      Z:    -0.3362     Total:     0.4259

*** Psi4 exiting successfully. Buy a developer a beer!
