                               Psi4 1.3.2 release

  ==> Input File <==

--------------------------------------------------------------------------
#psi4
#
memory 32 gb

molecule  {
0 1
  O        1.0823540    -0.5566580    -0.2632920
  O       -1.0762285    -0.4336195    -0.3541070
  O        0.0000290     0.8790020     1.1568390
  C        2.3645980    -0.0472600     0.2117580
  C       -2.3645710    -0.0472670     0.2117220
  C        3.3580870    -1.1527530    -0.0787140
  C        2.6794210     1.2541120    -0.5011060
  C       -2.6796530     1.2540600    -0.5011170
  C       -3.3579470    -1.1529030    -0.0785870
  C        0.0000190     0.0134100     0.2963400
  H        2.2751950     0.1248800     1.2880410
  H       -2.2750520     0.1249260     1.2879850
  H        4.3537060    -0.8600380     0.2666930
  H        3.0667940    -2.0744370     0.4299490
  H        3.4032550    -1.3462360    -1.1536500
  H        3.6582030     1.6290460    -0.1867860
  H        1.9279580     2.0093320    -0.2633690
  H        2.6983220     1.0899770    -1.5821290
  H       -3.6584150     1.6289180    -0.1866510
  H       -1.9282070     2.0093390    -0.2634970
  H       -2.6986940     1.0899190    -1.5821360
  H       -4.3535640    -0.8602980     0.2669170
  H       -3.0664820    -2.0745270     0.4300870
  H       -3.4032180    -1.3464490    -1.1535090
units angstrom
no_reorient  #important for SAPT in psi4, default
symmetry c1  #important for SAPT in psi4, default
}

set PROPERTIES_ORIGIN ["COM"]
properties('MP2/aug-cc-pvtz', properties = ['dipole'])
--------------------------------------------------------------------------

    Molecular point group: c1
  Charge       = 0
  Multiplicity = 1
  Basis Set: AUG-CC-PVTZ
    Blend: AUG-CC-PVTZ
  Basis Set: (AUG-CC-PVTZ AUX)
    Blend: AUG-CC-PVTZ-JKFIT

    Orbital Energies [Eh]
    ---------------------

    Doubly Occupied:

       1A    -20.600557     2A    -20.600080     3A    -20.538823
       4A    -11.426673     5A    -11.294796     6A    -11.293458
       7A    -11.224200     8A    -11.221468     9A    -11.218125
      10A    -11.214935    11A     -1.494019    12A     -1.390931
      13A     -1.352677    14A     -1.082372    15A     -1.054530
      16A     -0.946089    17A     -0.945606    18A     -0.876716
      19A     -0.801668    20A     -0.770844    21A     -0.748477
      22A     -0.694937    23A     -0.674033    24A     -0.630487
      25A     -0.624502    26A     -0.615593    27A     -0.580416
      28A     -0.577321    29A     -0.560487    30A     -0.548492
      31A     -0.547799    32A     -0.533430    33A     -0.525855
      34A     -0.516035    35A     -0.505808    36A     -0.490087
      37A     -0.486480    38A     -0.468303    39A     -0.454024
      40A     -0.450339

  @DF-RHF Final Energy:  -498.03631120153602

   => Energetics <=

    Nuclear Repulsion Energy =            577.9222293172794025
    One-Electron Energy =               -1826.7541373883373126
    Two-Electron Energy =                 750.7955968695220008
    Total Energy =                       -498.0363112015360230
  Basis Set: (AUG-CC-PVTZ AUX)
    Blend: AUG-CC-PVTZ-RI
    Molecular point group: c1

    Geometry (in Angstrom), charge = 0, multiplicity = 1:

       Center              X                  Y                   Z               Mass
    ------------   -----------------  -----------------  -----------------  -----------------
         O            1.081685334976    -0.562340990383    -0.269664580045    15.994914619570
         O           -1.076897165024    -0.439302490383    -0.360479580045    15.994914619570
         O           -0.000639665024     0.873319009617     1.150466419955    15.994914619570
         C            2.363929334976    -0.052942990383     0.205385419955    12.000000000000
         C           -2.365239665024    -0.052949990383     0.205349419955    12.000000000000
         C            3.357418334976    -1.158435990383    -0.085086580045    12.000000000000
         C            2.678752334976     1.248429009617    -0.507478580045    12.000000000000
         C           -2.680321665024     1.248377009617    -0.507489580045    12.000000000000
         C           -3.358615665024    -1.158585990383    -0.084959580045    12.000000000000
         C           -0.000649665024     0.007727009617     0.289967419955    12.000000000000
         H            2.274526334976     0.119197009617     1.281668419955     1.007825032230
         H           -2.275720665024     0.119243009617     1.281612419955     1.007825032230
         H            4.353037334976    -0.865720990383     0.260320419955     1.007825032230
         H            3.066125334976    -2.080119990383     0.423576419955     1.007825032230
         H            3.402586334976    -1.351918990383    -1.160022580045     1.007825032230
         H            3.657534334976     1.623363009617    -0.193158580045     1.007825032230
         H            1.927289334976     2.003649009617    -0.269741580045     1.007825032230
         H            2.697653334976     1.084294009617    -1.588501580045     1.007825032230
         H           -3.659083665024     1.623235009617    -0.193023580045     1.007825032230
         H           -1.928875665024     2.003656009617    -0.269869580045     1.007825032230
         H           -2.699362665024     1.084236009617    -1.588508580045     1.007825032230
         H           -4.354232665024    -0.865980990383     0.260544419955     1.007825032230
         H           -3.067150665024    -2.080209990383     0.423714419955     1.007825032230
         H           -3.403886665024    -1.352131990383    -1.159881580045     1.007825032230

  Basis Set: AUG-CC-PVTZ
    Blend: AUG-CC-PVTZ
  Basis Set: (AUG-CC-PVTZ AUX)
    Blend: AUG-CC-PVTZ-JKFIT
	 Reference Energy          =    -498.0363112015360230 [Eh]
	 Singles Energy            =      -0.0000000000000000 [Eh]
	 Same-Spin Energy          =      -0.4942499435341420 [Eh]
	 Opposite-Spin Energy      =      -1.6246286619903889 [Eh]
	 Correlation Energy        =      -2.1188786055245310 [Eh]
	 Total Energy              =    -500.1551898070605375 [Eh]

	 ================> DF-SCS-MP2 Energies <==================
	-----------------------------------------------------------
	 SCS Same-Spin Scale       =       0.3333333333333333 [-]
	 SCS Opposite-Spin Scale   =       1.2000000000000000 [-]
	 SCS Same-Spin Energy      =      -0.1647499811780473 [Eh]
	 SCS Opposite-Spin Energy  =      -1.9495543943884666 [Eh]
	 SCS Correlation Energy    =      -2.1143043755665141 [Eh]
	 SCS Total Energy          =    -500.1506155771025419 [Eh]
	-----------------------------------------------------------

  Dipole Moment: [D]
     X:    -0.0537      Y:    -0.3251      Z:    -0.1992     Total:     0.3851

*** Psi4 exiting successfully. Buy a developer a beer!
