                               Psi4 1.3.2 release

  ==> Input File <==

--------------------------------------------------------------------------
#psi4
#
memory 32 gb

molecule  {
0 1
  O        1.0823540    -0.5566580    -0.2632920
  O       -1.0823250    -0.5564370    -0.2635130
  O        0.0000290     0.8790020     1.1568390
  C        2.3645980    -0.0472600     0.2117580
  C       -2.3645710    -0.0472670     0.2117220
  C        3.3580870    -1.1527530    -0.0787140
  C        2.6794210     1.2541120    -0.5011060
  C       -2.6796530     1.2540600    -0.5011170
  C       -3.3579470    -1.1529030    -0.0785870
  C       -0.0804392    -0.0289507     0.2547222
  H        2.2751950     0.1248800     1.2880410
  H       -2.2750520     0.1249260     1.2879850
  H        4.3537060    -0.8600380     0.2666930
  H        3.0667940    -2.0744370     0.4299490
  H        3.4032550    -1.3462360    -1.1536500
  H        3.6582030     1.6290460    -0.1867860
  H        1.9279580     2.0093320    -0.2633690
  H        2.6983220     1.0899770    -1.5821290
  H       -3.6584150     1.6289180    -0.1866510
  H       -1.9282070     2.0093390    -0.2634970
  H       -2.6986940     1.0899190    -1.5821360
  H       -4.3535640    -0.8602980     0.2669170
  H       -3.0664820    -2.0745270     0.4300870
  H       -3.4032180    -1.3464490    -1.1535090
units angstrom
no_reorient  #important for SAPT in psi4, default
symmetry c1  #important for SAPT in psi4, default
}

set PROPERTIES_ORIGIN ["COM"]
properties('MP2/aug-cc-pvtz', properties = ['dipole'])
--------------------------------------------------------------------------

    Molecular point group: c1
  Charge       = 0
  Multiplicity = 1
  Basis Set: AUG-CC-PVTZ
    Blend: AUG-CC-PVTZ
  Basis Set: (AUG-CC-PVTZ AUX)
    Blend: AUG-CC-PVTZ-JKFIT

    Orbital Energies [Eh]
    ---------------------

    Doubly Occupied:

       1A    -20.626971     2A    -20.587240     3A    -20.523424
       4A    -11.429423     5A    -11.308201     6A    -11.286343
       7A    -11.230840     8A    -11.226653     9A    -11.216287
      10A    -11.211395    11A     -1.519608    12A     -1.394067
      13A     -1.310204    14A     -1.093992    15A     -1.053465
      16A     -0.955922    17A     -0.939397    18A     -0.890828
      19A     -0.804746    20A     -0.782629    21A     -0.740762
      22A     -0.701698    23A     -0.676684    24A     -0.631813
      25A     -0.625953    26A     -0.613866    27A     -0.582460
      28A     -0.569024    29A     -0.562929    30A     -0.555505
      31A     -0.542182    32A     -0.535653    33A     -0.528085
      34A     -0.515250    35A     -0.503808    36A     -0.495629
      37A     -0.480574    38A     -0.460447    39A     -0.446098
      40A     -0.438007

  @DF-RHF Final Energy:  -498.02387735139177

   => Energetics <=

    Nuclear Repulsion Energy =            577.3986354424964702
    One-Electron Energy =               -1825.6488985788237187
    Two-Electron Energy =                 750.2263857849354736
    Total Energy =                       -498.0238773513917749
  Basis Set: (AUG-CC-PVTZ AUX)
    Blend: AUG-CC-PVTZ-RI
    Molecular point group: c1

    Geometry (in Angstrom), charge = 0, multiplicity = 1:

       Center              X                  Y                   Z               Mass
    ------------   -----------------  -----------------  -----------------  -----------------
         O            1.088961535610    -0.545415046505    -0.276164694916    15.994914619570
         O           -1.075717464390    -0.545194046505    -0.276385694916    15.994914619570
         O            0.006636535610     0.890244953495     1.143966305084    15.994914619570
         C            2.371205535610    -0.036017046505     0.198885305084    12.000000000000
         C           -2.357963464390    -0.036024046505     0.198849305084    12.000000000000
         C            3.364694535610    -1.141510046505    -0.091586694916    12.000000000000
         C            2.686028535610     1.265354953495    -0.513978694916    12.000000000000
         C           -2.673045464390     1.265302953495    -0.513989694916    12.000000000000
         C           -3.351339464390    -1.141660046505    -0.091459694916    12.000000000000
         C           -0.073831664390    -0.017707746505     0.241849505084    12.000000000000
         H            2.281802535610     0.136122953495     1.275168305084     1.007825032230
         H           -2.268444464390     0.136168953495     1.275112305084     1.007825032230
         H            4.360313535610    -0.848795046505     0.253820305084     1.007825032230
         H            3.073401535610    -2.063194046505     0.417076305084     1.007825032230
         H            3.409862535610    -1.334993046505    -1.166522694916     1.007825032230
         H            3.664810535610     1.640288953495    -0.199658694916     1.007825032230
         H            1.934565535610     2.020574953495    -0.276241694916     1.007825032230
         H            2.704929535610     1.101219953495    -1.595001694916     1.007825032230
         H           -3.651807464390     1.640160953495    -0.199523694916     1.007825032230
         H           -1.921599464390     2.020581953495    -0.276369694916     1.007825032230
         H           -2.692086464390     1.101161953495    -1.595008694916     1.007825032230
         H           -4.346956464390    -0.849055046505     0.254044305084     1.007825032230
         H           -3.059874464390    -2.063284046505     0.417214305084     1.007825032230
         H           -3.396610464390    -1.335206046505    -1.166381694916     1.007825032230

  Basis Set: AUG-CC-PVTZ
    Blend: AUG-CC-PVTZ
  Basis Set: (AUG-CC-PVTZ AUX)
    Blend: AUG-CC-PVTZ-JKFIT
	 Reference Energy          =    -498.0238773513917749 [Eh]
	 Singles Energy            =      -0.0000000000000000 [Eh]
	 Same-Spin Energy          =      -0.4946372116643505 [Eh]
	 Opposite-Spin Energy      =      -1.6250046368764657 [Eh]
	 Correlation Energy        =      -2.1196418485408159 [Eh]
	 Total Energy              =    -500.1435191999325980 [Eh]

	 ================> DF-SCS-MP2 Energies <==================
	-----------------------------------------------------------
	 SCS Same-Spin Scale       =       0.3333333333333333 [-]
	 SCS Opposite-Spin Scale   =       1.2000000000000000 [-]
	 SCS Same-Spin Energy      =      -0.1648790705547835 [Eh]
	 SCS Opposite-Spin Energy  =      -1.9500055642517586 [Eh]
	 SCS Correlation Energy    =      -2.1148846348065420 [Eh]
	 SCS Total Energy          =    -500.1387619861982898 [Eh]
	-----------------------------------------------------------

  Dipole Moment: [D]
     X:    -1.1241      Y:    -0.4135      Z:    -0.6165     Total:     1.3471

*** Psi4 exiting successfully. Buy a developer a beer!
