                               Psi4 1.3.2 release

  ==> Input File <==

--------------------------------------------------------------------------
#psi4
#
memory 32 gb

molecule  {
0 1
  O        1.0682477    -0.5699219    -0.2765701
  O       -1.0823250    -0.5564370    -0.2635130
  O        0.0000290     0.8790020     1.1568390
  C        2.3645980    -0.0472600     0.2117580
  C       -2.3645710    -0.0472670     0.2117220
  C        3.3580870    -1.1527530    -0.0787140
  C        2.6794210     1.2541120    -0.5011060
  C       -2.6796530     1.2540600    -0.5011170
  C       -3.3579470    -1.1529030    -0.0785870
  C        0.0000190     0.0134100     0.2963400
  H        2.2751950     0.1248800     1.2880410
  H       -2.2750520     0.1249260     1.2879850
  H        4.3537060    -0.8600380     0.2666930
  H        3.0667940    -2.0744370     0.4299490
  H        3.4032550    -1.3462360    -1.1536500
  H        3.6582030     1.6290460    -0.1867860
  H        1.9279580     2.0093320    -0.2633690
  H        2.6983220     1.0899770    -1.5821290
  H       -3.6584150     1.6289180    -0.1866510
  H       -1.9282070     2.0093390    -0.2634970
  H       -2.6986940     1.0899190    -1.5821360
  H       -4.3535640    -0.8602980     0.2669170
  H       -3.0664820    -2.0745270     0.4300870
  H       -3.4032180    -1.3464490    -1.1535090
units angstrom
no_reorient  #important for SAPT in psi4, default
symmetry c1  #important for SAPT in psi4, default
}

set PROPERTIES_ORIGIN ["COM"]
properties('MP2/aug-cc-pvtz', properties = ['dipole'])
--------------------------------------------------------------------------

    Molecular point group: c1
  Charge       = 0
  Multiplicity = 1
  Basis Set: AUG-CC-PVTZ
    Blend: AUG-CC-PVTZ
  Basis Set: (AUG-CC-PVTZ AUX)
    Blend: AUG-CC-PVTZ-JKFIT

    Orbital Energies [Eh]
    ---------------------

    Doubly Occupied:

       1A    -20.601167     2A    -20.599126     3A    -20.541676
       4A    -11.426904     5A    -11.295947     6A    -11.292694
       7A    -11.222375     8A    -11.220953     9A    -11.219740
      10A    -11.217934    11A     -1.490345    12A     -1.384650
      13A     -1.354313    14A     -1.081225    15A     -1.054267
      16A     -0.946893    17A     -0.945707    18A     -0.873671
      19A     -0.799805    20A     -0.769211    21A     -0.742767
      22A     -0.694890    23A     -0.673631    24A     -0.631416
      25A     -0.624497    26A     -0.614251    27A     -0.581818
      28A     -0.574369    29A     -0.558989    30A     -0.548985
      31A     -0.547780    32A     -0.534494    33A     -0.523966
      34A     -0.515545    35A     -0.505853    36A     -0.490547
      37A     -0.486452    38A     -0.469028    39A     -0.457937
      40A     -0.452139

  @DF-RHF Final Energy:  -498.03763708981501

   => Energetics <=

    Nuclear Repulsion Energy =            576.9435442077990501
    One-Electron Energy =               -1824.8264521445721584
    Two-Electron Energy =                 749.8452708469581012
    Total Energy =                       -498.0376370898150071
  Basis Set: (AUG-CC-PVTZ AUX)
    Blend: AUG-CC-PVTZ-RI
    Molecular point group: c1

    Geometry (in Angstrom), charge = 0, multiplicity = 1:

       Center              X                  Y                   Z               Mass
    ------------   -----------------  -----------------  -----------------  -----------------
         O            1.069790908222    -0.560706222474    -0.291407495355    15.994914619570
         O           -1.080781791778    -0.547221322474    -0.278350395355    15.994914619570
         O            0.001572208222     0.888217677526     1.142001604645    15.994914619570
         C            2.366141208222    -0.038044322474     0.196920604645    12.000000000000
         C           -2.363027791778    -0.038051322474     0.196884604645    12.000000000000
         C            3.359630208222    -1.143537322474    -0.093551395355    12.000000000000
         C            2.680964208222     1.263327677526    -0.515943395355    12.000000000000
         C           -2.678109791778     1.263275677526    -0.515954395355    12.000000000000
         C           -3.356403791778    -1.143687322474    -0.093424395355    12.000000000000
         C            0.001562208222     0.022625677526     0.281502604645    12.000000000000
         H            2.276738208222     0.134095677526     1.273203604645     1.007825032230
         H           -2.273508791778     0.134141677526     1.273147604645     1.007825032230
         H            4.355249208222    -0.850822322474     0.251855604645     1.007825032230
         H            3.068337208222    -2.065221322474     0.415111604645     1.007825032230
         H            3.404798208222    -1.337020322474    -1.168487395355     1.007825032230
         H            3.659746208222     1.638261677526    -0.201623395355     1.007825032230
         H            1.929501208222     2.018547677526    -0.278206395355     1.007825032230
         H            2.699865208222     1.099192677526    -1.596966395355     1.007825032230
         H           -3.656871791778     1.638133677526    -0.201488395355     1.007825032230
         H           -1.926663791778     2.018554677526    -0.278334395355     1.007825032230
         H           -2.697150791778     1.099134677526    -1.596973395355     1.007825032230
         H           -4.352020791778    -0.851082322474     0.252079604645     1.007825032230
         H           -3.064938791778    -2.065311322474     0.415249604645     1.007825032230
         H           -3.401674791778    -1.337233322474    -1.168346395355     1.007825032230

  Basis Set: AUG-CC-PVTZ
    Blend: AUG-CC-PVTZ
  Basis Set: (AUG-CC-PVTZ AUX)
    Blend: AUG-CC-PVTZ-JKFIT
	 Reference Energy          =    -498.0376370898150071 [Eh]
	 Singles Energy            =      -0.0000000000000000 [Eh]
	 Same-Spin Energy          =      -0.4945125648464904 [Eh]
	 Opposite-Spin Energy      =      -1.6255384175010805 [Eh]
	 Correlation Energy        =      -2.1200509823475708 [Eh]
	 Total Energy              =    -500.1576880721625571 [Eh]

	 ================> DF-SCS-MP2 Energies <==================
	-----------------------------------------------------------
	 SCS Same-Spin Scale       =       0.3333333333333333 [-]
	 SCS Opposite-Spin Scale   =       1.2000000000000000 [-]
	 SCS Same-Spin Energy      =      -0.1648375216154968 [Eh]
	 SCS Opposite-Spin Energy  =      -1.9506461010012965 [Eh]
	 SCS Correlation Energy    =      -2.1154836226167935 [Eh]
	 SCS Total Energy          =    -500.1531207124318144 [Eh]
	-----------------------------------------------------------

  Dipole Moment: [D]
     X:     0.0947      Y:    -0.0837      Z:    -0.2693     Total:     0.2975

*** Psi4 exiting successfully. Buy a developer a beer!
