                               Psi4 1.3.2 release

  ==> Input File <==

--------------------------------------------------------------------------
#psi4
#
memory 32 gb

molecule  {
0 1
  O        1.0682473    -0.5700468    -0.2764437
  O       -1.0823250    -0.5564370    -0.2635130
  O        0.0000290     0.8790020     1.1568390
  C        2.3645980    -0.0472600     0.2117580
  C       -2.3645710    -0.0472670     0.2117220
  C        3.3580870    -1.1527530    -0.0787140
  C        2.6794210     1.2541120    -0.5011060
  C       -2.6796530     1.2540600    -0.5011170
  C       -3.3579470    -1.1529030    -0.0785870
  C        0.0000190     0.0134100     0.2963400
  H        2.2751950     0.1248800     1.2880410
  H       -2.2750520     0.1249260     1.2879850
  H        4.3537060    -0.8600380     0.2666930
  H        3.0667940    -2.0744370     0.4299490
  H        3.4032550    -1.3462360    -1.1536500
  H        3.6582030     1.6290460    -0.1867860
  H        1.9279580     2.0093320    -0.2633690
  H        2.6983220     1.0899770    -1.5821290
  H       -3.6584150     1.6289180    -0.1866510
  H       -1.9282070     2.0093390    -0.2634970
  H       -2.6986940     1.0899190    -1.5821360
  H       -4.3535640    -0.8602980     0.2669170
  H       -3.0664820    -2.0745270     0.4300870
  H       -3.4032180    -1.3464490    -1.1535090
units angstrom
no_reorient  #important for SAPT in psi4, default
symmetry c1  #important for SAPT in psi4, default
}

set PROPERTIES_ORIGIN ["COM"]
properties('MP2/aug-cc-pvtz', properties = ['dipole'])
--------------------------------------------------------------------------

    Molecular point group: c1
  Charge       = 0
  Multiplicity = 1
  Basis Set: AUG-CC-PVTZ
    Blend: AUG-CC-PVTZ
  Basis Set: (AUG-CC-PVTZ AUX)
    Blend: AUG-CC-PVTZ-JKFIT

    Orbital Energies [Eh]
    ---------------------

    Doubly Occupied:

       1A    -20.601167     2A    -20.599126     3A    -20.541676
       4A    -11.426903     5A    -11.295947     6A    -11.292694
       7A    -11.222373     8A    -11.220953     9A    -11.219744
      10A    -11.217934    11A     -1.490345    12A     -1.384649
      13A     -1.354313    14A     -1.081225    15A     -1.054268
      16A     -0.946895    17A     -0.945707    18A     -0.873671
      19A     -0.799805    20A     -0.769208    21A     -0.742764
      22A     -0.694890    23A     -0.673632    24A     -0.631420
      25A     -0.624497    26A     -0.614251    27A     -0.581819
      28A     -0.574366    29A     -0.558988    30A     -0.548985
      31A     -0.547780    32A     -0.534496    33A     -0.523967
      34A     -0.515545    35A     -0.505852    36A     -0.490547
      37A     -0.486450    38A     -0.469027    39A     -0.457940
      40A     -0.452139

  @DF-RHF Final Energy:  -498.03763702302274

   => Energetics <=

    Nuclear Repulsion Energy =            576.9431140759097616
    One-Electron Energy =               -1824.8255860834656232
    Two-Electron Energy =                 749.8448349845331222
    Total Energy =                       -498.0376370230227394
  Basis Set: (AUG-CC-PVTZ AUX)
    Blend: AUG-CC-PVTZ-RI
    Molecular point group: c1

    Geometry (in Angstrom), charge = 0, multiplicity = 1:

       Center              X                  Y                   Z               Mass
    ------------   -----------------  -----------------  -----------------  -----------------
         O            1.069790552016    -0.560817447985    -0.291294934070    15.994914619570
         O           -1.080781747984    -0.547207647985    -0.278364234070    15.994914619570
         O            0.001572252016     0.888231352015     1.141987765930    15.994914619570
         C            2.366141252016    -0.038030647985     0.196906765930    12.000000000000
         C           -2.363027747984    -0.038037647985     0.196870765930    12.000000000000
         C            3.359630252016    -1.143523647985    -0.093565234070    12.000000000000
         C            2.680964252016     1.263341352015    -0.515957234070    12.000000000000
         C           -2.678109747984     1.263289352015    -0.515968234070    12.000000000000
         C           -3.356403747984    -1.143673647985    -0.093438234070    12.000000000000
         C            0.001562252016     0.022639352015     0.281488765930    12.000000000000
         H            2.276738252016     0.134109352015     1.273189765930     1.007825032230
         H           -2.273508747984     0.134155352015     1.273133765930     1.007825032230
         H            4.355249252016    -0.850808647985     0.251841765930     1.007825032230
         H            3.068337252016    -2.065207647985     0.415097765930     1.007825032230
         H            3.404798252016    -1.337006647985    -1.168501234070     1.007825032230
         H            3.659746252016     1.638275352015    -0.201637234070     1.007825032230
         H            1.929501252016     2.018561352015    -0.278220234070     1.007825032230
         H            2.699865252016     1.099206352015    -1.596980234070     1.007825032230
         H           -3.656871747984     1.638147352015    -0.201502234070     1.007825032230
         H           -1.926663747984     2.018568352015    -0.278348234070     1.007825032230
         H           -2.697150747984     1.099148352015    -1.596987234070     1.007825032230
         H           -4.352020747984    -0.851068647985     0.252065765930     1.007825032230
         H           -3.064938747984    -2.065297647985     0.415235765930     1.007825032230
         H           -3.401674747984    -1.337219647985    -1.168360234070     1.007825032230

  Basis Set: AUG-CC-PVTZ
    Blend: AUG-CC-PVTZ
  Basis Set: (AUG-CC-PVTZ AUX)
    Blend: AUG-CC-PVTZ-JKFIT
	 Reference Energy          =    -498.0376370230227394 [Eh]
	 Singles Energy            =      -0.0000000000000000 [Eh]
	 Same-Spin Energy          =      -0.4945125569767198 [Eh]
	 Opposite-Spin Energy      =      -1.6255383383908693 [Eh]
	 Correlation Energy        =      -2.1200508953675890 [Eh]
	 Total Energy              =    -500.1576879183903088 [Eh]

	 ================> DF-SCS-MP2 Energies <==================
	-----------------------------------------------------------
	 SCS Same-Spin Scale       =       0.3333333333333333 [-]
	 SCS Opposite-Spin Scale   =       1.2000000000000000 [-]
	 SCS Same-Spin Energy      =      -0.1648375189922399 [Eh]
	 SCS Opposite-Spin Energy  =      -1.9506460060690429 [Eh]
	 SCS Correlation Energy    =      -2.1154835250612827 [Eh]
	 SCS Total Energy          =    -500.1531205480840185 [Eh]
	-----------------------------------------------------------

  Dipole Moment: [D]
     X:     0.0947      Y:    -0.0835      Z:    -0.2694     Total:     0.2975

*** Psi4 exiting successfully. Buy a developer a beer!
