                               Psi4 1.3.2 release

  ==> Input File <==

--------------------------------------------------------------------------
#psi4
#
memory 32 gb

molecule  {
0 1
  O        1.1599277    -0.4728251    -0.1809459
  O       -1.0823250    -0.5564370    -0.2635130
  O        0.0000290     0.8790020     1.1568390
  C        2.3645980    -0.0472600     0.2117580
  C       -2.3645710    -0.0472670     0.2117220
  C        3.3580870    -1.1527530    -0.0787140
  C        2.6794210     1.2541120    -0.5011060
  C       -2.6796530     1.2540600    -0.5011170
  C       -3.3579470    -1.1529030    -0.0785870
  C        0.0000190     0.0134100     0.2963400
  H        2.2751950     0.1248800     1.2880410
  H       -2.2750520     0.1249260     1.2879850
  H        4.3537060    -0.8600380     0.2666930
  H        3.0667940    -2.0744370     0.4299490
  H        3.4032550    -1.3462360    -1.1536500
  H        3.6582030     1.6290460    -0.1867860
  H        1.9279580     2.0093320    -0.2633690
  H        2.6983220     1.0899770    -1.5821290
  H       -3.6584150     1.6289180    -0.1866510
  H       -1.9282070     2.0093390    -0.2634970
  H       -2.6986940     1.0899190    -1.5821360
  H       -4.3535640    -0.8602980     0.2669170
  H       -3.0664820    -2.0745270     0.4300870
  H       -3.4032180    -1.3464490    -1.1535090
units angstrom
no_reorient  #important for SAPT in psi4, default
symmetry c1  #important for SAPT in psi4, default
}

set PROPERTIES_ORIGIN ["COM"]
properties('MP2/aug-cc-pvtz', properties = ['dipole'])
--------------------------------------------------------------------------

    Molecular point group: c1
  Charge       = 0
  Multiplicity = 1
  Basis Set: AUG-CC-PVTZ
    Blend: AUG-CC-PVTZ
  Basis Set: (AUG-CC-PVTZ AUX)
    Blend: AUG-CC-PVTZ-JKFIT

    Orbital Energies [Eh]
    ---------------------

    Doubly Occupied:

       1A    -20.611636     2A    -20.596941     3A    -20.538758
       4A    -11.435153     5A    -11.299865     6A    -11.281678
       7A    -11.225586     8A    -11.221844     9A    -11.217220
      10A    -11.211033    11A     -1.505068    12A     -1.416527
      13A     -1.355052    14A     -1.085916    15A     -1.054255
      16A     -0.950133    17A     -0.943735    18A     -0.897134
      19A     -0.812343    20A     -0.768404    21A     -0.760545
      22A     -0.700682    23A     -0.677303    24A     -0.641392
      25A     -0.629299    26A     -0.623458    27A     -0.583551
      28A     -0.574185    29A     -0.558084    30A     -0.552107
      31A     -0.543784    32A     -0.538715    33A     -0.533177
      34A     -0.519735    35A     -0.507537    36A     -0.491678
      37A     -0.481217    38A     -0.460160    39A     -0.457744
      40A     -0.439685

  @DF-RHF Final Energy:  -498.02953940885698

   => Energetics <=

    Nuclear Repulsion Energy =            579.4479397883131924
    One-Electron Energy =               -1829.5503219740337499
    Two-Electron Energy =                 752.0728427768636948
    Total Energy =                       -498.0295394088569765
  Basis Set: (AUG-CC-PVTZ AUX)
    Blend: AUG-CC-PVTZ-RI
    Molecular point group: c1

    Geometry (in Angstrom), charge = 0, multiplicity = 1:

       Center              X                  Y                   Z               Mass
    ------------   -----------------  -----------------  -----------------  -----------------
         O            1.151433460975    -0.474239919942    -0.206252567422    15.994914619570
         O           -1.090819239025    -0.557851819942    -0.288819667422    15.994914619570
         O           -0.008465239025     0.877587180058     1.131532332578    15.994914619570
         C            2.356103760975    -0.048674819942     0.186451332578    12.000000000000
         C           -2.373065239025    -0.048681819942     0.186415332578    12.000000000000
         C            3.349592760975    -1.154167819942    -0.104020667422    12.000000000000
         C            2.670926760975     1.252697180058    -0.526412667422    12.000000000000
         C           -2.688147239025     1.252645180058    -0.526423667422    12.000000000000
         C           -3.366441239025    -1.154317819942    -0.103893667422    12.000000000000
         C           -0.008475239025     0.011995180058     0.271033332578    12.000000000000
         H            2.266700760975     0.123465180058     1.262734332578     1.007825032230
         H           -2.283546239025     0.123511180058     1.262678332578     1.007825032230
         H            4.345211760975    -0.861452819942     0.241386332578     1.007825032230
         H            3.058299760975    -2.075851819942     0.404642332578     1.007825032230
         H            3.394760760975    -1.347650819942    -1.178956667422     1.007825032230
         H            3.649708760975     1.627631180058    -0.212092667422     1.007825032230
         H            1.919463760975     2.007917180058    -0.288675667422     1.007825032230
         H            2.689827760975     1.088562180058    -1.607435667422     1.007825032230
         H           -3.666909239025     1.627503180058    -0.211957667422     1.007825032230
         H           -1.936701239025     2.007924180058    -0.288803667422     1.007825032230
         H           -2.707188239025     1.088504180058    -1.607442667422     1.007825032230
         H           -4.362058239025    -0.861712819942     0.241610332578     1.007825032230
         H           -3.074976239025    -2.075941819942     0.404780332578     1.007825032230
         H           -3.411712239025    -1.347863819942    -1.178815667422     1.007825032230

  Basis Set: AUG-CC-PVTZ
    Blend: AUG-CC-PVTZ
  Basis Set: (AUG-CC-PVTZ AUX)
    Blend: AUG-CC-PVTZ-JKFIT
	 Reference Energy          =    -498.0295394088569765 [Eh]
	 Singles Energy            =      -0.0000000000000000 [Eh]
	 Same-Spin Energy          =      -0.4938836220532815 [Eh]
	 Opposite-Spin Energy      =      -1.6220508679444454 [Eh]
	 Correlation Energy        =      -2.1159344899977270 [Eh]
	 Total Energy              =    -500.1454738988546751 [Eh]

	 ================> DF-SCS-MP2 Energies <==================
	-----------------------------------------------------------
	 SCS Same-Spin Scale       =       0.3333333333333333 [-]
	 SCS Opposite-Spin Scale   =       1.2000000000000000 [-]
	 SCS Same-Spin Energy      =      -0.1646278740177605 [Eh]
	 SCS Opposite-Spin Energy  =      -1.9464610415333343 [Eh]
	 SCS Correlation Energy    =      -2.1110889155510950 [Eh]
	 SCS Total Energy          =    -500.1406283244080555 [Eh]
	-----------------------------------------------------------

  Dipole Moment: [D]
     X:    -0.5877      Y:    -0.3132      Z:    -0.4387     Total:     0.7975

*** Psi4 exiting successfully. Buy a developer a beer!
