                               Psi4 1.3.2 release

  ==> Input File <==

--------------------------------------------------------------------------
#psi4
#
memory 32 gb

molecule  {
0 1
  O        1.0239940    -0.6086314    -0.3153414
  O       -1.0823250    -0.5564370    -0.2635130
  O        0.0000290     0.8790020     1.1568390
  C        2.3645980    -0.0472600     0.2117580
  C       -2.3645710    -0.0472670     0.2117220
  C        3.3580870    -1.1527530    -0.0787140
  C        2.6794210     1.2541120    -0.5011060
  C       -2.6796530     1.2540600    -0.5011170
  C       -3.3579470    -1.1529030    -0.0785870
  C        0.0000190     0.0134100     0.2963400
  H        2.2751950     0.1248800     1.2880410
  H       -2.2750520     0.1249260     1.2879850
  H        4.3537060    -0.8600380     0.2666930
  H        3.0667940    -2.0744370     0.4299490
  H        3.4032550    -1.3462360    -1.1536500
  H        3.6582030     1.6290460    -0.1867860
  H        1.9279580     2.0093320    -0.2633690
  H        2.6983220     1.0899770    -1.5821290
  H       -3.6584150     1.6289180    -0.1866510
  H       -1.9282070     2.0093390    -0.2634970
  H       -2.6986940     1.0899190    -1.5821360
  H       -4.3535640    -0.8602980     0.2669170
  H       -3.0664820    -2.0745270     0.4300870
  H       -3.4032180    -1.3464490    -1.1535090
units angstrom
no_reorient  #important for SAPT in psi4, default
symmetry c1  #important for SAPT in psi4, default
}

set PROPERTIES_ORIGIN ["COM"]
properties('MP2/aug-cc-pvtz', properties = ['dipole'])
--------------------------------------------------------------------------

    Molecular point group: c1
  Charge       = 0
  Multiplicity = 1
  Basis Set: AUG-CC-PVTZ
    Blend: AUG-CC-PVTZ
  Basis Set: (AUG-CC-PVTZ AUX)
    Blend: AUG-CC-PVTZ-JKFIT

    Orbital Energies [Eh]
    ---------------------

    Doubly Occupied:

       1A    -20.601017     2A    -20.593612     3A    -20.542908
       4A    -11.424204     5A    -11.302699     6A    -11.289419
       7A    -11.224711     8A    -11.223440     9A    -11.218906
      10A    -11.216189    11A     -1.486344    12A     -1.371421
      13A     -1.354523    14A     -1.080145    15A     -1.054184
      16A     -0.948632    17A     -0.943752    18A     -0.865512
      19A     -0.797694    20A     -0.768566    21A     -0.733552
      22A     -0.693472    23A     -0.671525    24A     -0.629100
      25A     -0.622863    26A     -0.611047    27A     -0.583601
      28A     -0.573357    29A     -0.558965    30A     -0.550257
      31A     -0.545894    32A     -0.535215    33A     -0.519351
      34A     -0.508165    35A     -0.506062    36A     -0.493554
      37A     -0.486631    38A     -0.468649    39A     -0.461947
      40A     -0.450681

  @DF-RHF Final Energy:  -498.02899018430611

   => Energetics <=

    Nuclear Repulsion Energy =            575.9962255026854336
    One-Electron Energy =               -1823.0268937183382150
    Two-Electron Energy =                 749.0016780313468416
    Total Energy =                       -498.0289901843060534
  Basis Set: (AUG-CC-PVTZ AUX)
    Blend: AUG-CC-PVTZ-RI
    Molecular point group: c1

    Geometry (in Angstrom), charge = 0, multiplicity = 1:

       Center              X                  Y                   Z               Mass
    ------------   -----------------  -----------------  -----------------  -----------------
         O            1.030382258171    -0.595177670944    -0.325933977745    15.994914619570
         O           -1.075936741829    -0.542983270944    -0.274105577745    15.994914619570
         O            0.006417258171     0.892455729056     1.146246422255    15.994914619570
         C            2.370986258171    -0.033806270944     0.201165422255    12.000000000000
         C           -2.358182741829    -0.033813270944     0.201129422255    12.000000000000
         C            3.364475258171    -1.139299270944    -0.089306577745    12.000000000000
         C            2.685809258171     1.267565729056    -0.511698577745    12.000000000000
         C           -2.673264741829     1.267513729056    -0.511709577745    12.000000000000
         C           -3.351558741829    -1.139449270944    -0.089179577745    12.000000000000
         C            0.006407258171     0.026863729056     0.285747422255    12.000000000000
         H            2.281583258171     0.138333729056     1.277448422255     1.007825032230
         H           -2.268663741829     0.138379729056     1.277392422255     1.007825032230
         H            4.360094258171    -0.846584270944     0.256100422255     1.007825032230
         H            3.073182258171    -2.060983270944     0.419356422255     1.007825032230
         H            3.409643258171    -1.332782270944    -1.164242577745     1.007825032230
         H            3.664591258171     1.642499729056    -0.197378577745     1.007825032230
         H            1.934346258171     2.022785729056    -0.273961577745     1.007825032230
         H            2.704710258171     1.103430729056    -1.592721577745     1.007825032230
         H           -3.652026741829     1.642371729056    -0.197243577745     1.007825032230
         H           -1.921818741829     2.022792729056    -0.274089577745     1.007825032230
         H           -2.692305741829     1.103372729056    -1.592728577745     1.007825032230
         H           -4.347175741829    -0.846844270944     0.256324422255     1.007825032230
         H           -3.060093741829    -2.061073270944     0.419494422255     1.007825032230
         H           -3.396829741829    -1.332995270944    -1.164101577745     1.007825032230

  Basis Set: AUG-CC-PVTZ
    Blend: AUG-CC-PVTZ
  Basis Set: (AUG-CC-PVTZ AUX)
    Blend: AUG-CC-PVTZ-JKFIT
	 Reference Energy          =    -498.0289901843061102 [Eh]
	 Singles Energy            =      -0.0000000000000000 [Eh]
	 Same-Spin Energy          =      -0.4952530182017182 [Eh]
	 Opposite-Spin Energy      =      -1.6278831141763095 [Eh]
	 Correlation Energy        =      -2.1231361323780278 [Eh]
	 Total Energy              =    -500.1521263166841322 [Eh]

	 ================> DF-SCS-MP2 Energies <==================
	-----------------------------------------------------------
	 SCS Same-Spin Scale       =       0.3333333333333333 [-]
	 SCS Opposite-Spin Scale   =       1.2000000000000000 [-]
	 SCS Same-Spin Energy      =      -0.1650843394005727 [Eh]
	 SCS Opposite-Spin Energy  =      -1.9534597370115714 [Eh]
	 SCS Correlation Energy    =      -2.1185440764121442 [Eh]
	 SCS Total Energy          =    -500.1475342607182597 [Eh]
	-----------------------------------------------------------

  Dipole Moment: [D]
     X:     0.3731      Y:     0.0022      Z:    -0.2099     Total:     0.4281

*** Psi4 exiting successfully. Buy a developer a beer!
