                               Psi4 1.3.2 release

  ==> Input File <==

--------------------------------------------------------------------------
#psi4
#
memory 32 gb

molecule  {
0 1
  O        1.0823540    -0.5566580    -0.2632920
  O       -1.1024701    -0.6736760    -0.1677122
  O        0.0000290     0.8790020     1.1568390
  C        2.3645980    -0.0472600     0.2117580
  C       -2.3645710    -0.0472670     0.2117220
  C        3.3580870    -1.1527530    -0.0787140
  C        2.6794210     1.2541120    -0.5011060
  C       -2.6796530     1.2540600    -0.5011170
  C       -3.3579470    -1.1529030    -0.0785870
  C        0.0000190     0.0134100     0.2963400
  H        2.2751950     0.1248800     1.2880410
  H       -2.2750520     0.1249260     1.2879850
  H        4.3537060    -0.8600380     0.2666930
  H        3.0667940    -2.0744370     0.4299490
  H        3.4032550    -1.3462360    -1.1536500
  H        3.6582030     1.6290460    -0.1867860
  H        1.9279580     2.0093320    -0.2633690
  H        2.6983220     1.0899770    -1.5821290
  H       -3.6584150     1.6289180    -0.1866510
  H       -1.9282070     2.0093390    -0.2634970
  H       -2.6986940     1.0899190    -1.5821360
  H       -4.3535640    -0.8602980     0.2669170
  H       -3.0664820    -2.0745270     0.4300870
  H       -3.4032180    -1.3464490    -1.1535090
units angstrom
no_reorient  #important for SAPT in psi4, default
symmetry c1  #important for SAPT in psi4, default
}

set PROPERTIES_ORIGIN ["COM"]
properties('MP2/aug-cc-pvtz', properties = ['dipole'])
--------------------------------------------------------------------------

    Molecular point group: c1
  Charge       = 0
  Multiplicity = 1
  Basis Set: AUG-CC-PVTZ
    Blend: AUG-CC-PVTZ
  Basis Set: (AUG-CC-PVTZ AUX)
    Blend: AUG-CC-PVTZ-JKFIT

    Orbital Energies [Eh]
    ---------------------

    Doubly Occupied:

       1A    -20.604155     2A    -20.600089     3A    -20.546825
       4A    -11.431782     5A    -11.295507     6A    -11.290659
       7A    -11.222743     8A    -11.221186     9A    -11.219915
      10A    -11.217712    11A     -1.486526    12A     -1.385351
      13A     -1.356239    14A     -1.079972    15A     -1.053171
      16A     -0.947700    17A     -0.946470    18A     -0.873398
      19A     -0.800342    20A     -0.768804    21A     -0.740431
      22A     -0.694911    23A     -0.673476    24A     -0.635385
      25A     -0.624316    26A     -0.615497    27A     -0.582939
      28A     -0.572808    29A     -0.556907    30A     -0.549727
      31A     -0.546538    32A     -0.536535    33A     -0.523874
      34A     -0.518218    35A     -0.505173    36A     -0.491700
      37A     -0.485100    38A     -0.468357    39A     -0.459056
      40A     -0.452854

  @DF-RHF Final Energy:  -498.03189653619251

   => Energetics <=

    Nuclear Repulsion Energy =            576.0972424238506164
    One-Electron Energy =               -1823.0935855230877678
    Two-Electron Energy =                 748.9644465630444756
    Total Energy =                       -498.0318965361925621
  Basis Set: (AUG-CC-PVTZ AUX)
    Blend: AUG-CC-PVTZ-RI
    Molecular point group: c1

    Geometry (in Angstrom), charge = 0, multiplicity = 1:

       Center              X                  Y                   Z               Mass
    ------------   -----------------  -----------------  -----------------  -----------------
         O            1.084558357180    -0.536058764650    -0.290071735065    15.994914619570
         O           -1.100265742820    -0.653076764650    -0.194491935065    15.994914619570
         O            0.002233357180     0.899601235350     1.130059264935    15.994914619570
         C            2.366802357180    -0.026660764650     0.184978264935    12.000000000000
         C           -2.362366642820    -0.026667764650     0.184942264935    12.000000000000
         C            3.360291357180    -1.132153764650    -0.105493735065    12.000000000000
         C            2.681625357180     1.274711235350    -0.527885735065    12.000000000000
         C           -2.677448642820     1.274659235350    -0.527896735065    12.000000000000
         C           -3.355742642820    -1.132303764650    -0.105366735065    12.000000000000
         C            0.002223357180     0.034009235350     0.269560264935    12.000000000000
         H            2.277399357180     0.145479235350     1.261261264935     1.007825032230
         H           -2.272847642820     0.145525235350     1.261205264935     1.007825032230
         H            4.355910357180    -0.839438764650     0.239913264935     1.007825032230
         H            3.068998357180    -2.053837764650     0.403169264935     1.007825032230
         H            3.405459357180    -1.325636764650    -1.180429735065     1.007825032230
         H            3.660407357180     1.649645235350    -0.213565735065     1.007825032230
         H            1.930162357180     2.029931235350    -0.290148735065     1.007825032230
         H            2.700526357180     1.110576235350    -1.608908735065     1.007825032230
         H           -3.656210642820     1.649517235350    -0.213430735065     1.007825032230
         H           -1.926002642820     2.029938235350    -0.290276735065     1.007825032230
         H           -2.696489642820     1.110518235350    -1.608915735065     1.007825032230
         H           -4.351359642820    -0.839698764650     0.240137264935     1.007825032230
         H           -3.064277642820    -2.053927764650     0.403307264935     1.007825032230
         H           -3.401013642820    -1.325849764650    -1.180288735065     1.007825032230

  Basis Set: AUG-CC-PVTZ
    Blend: AUG-CC-PVTZ
  Basis Set: (AUG-CC-PVTZ AUX)
    Blend: AUG-CC-PVTZ-JKFIT
	 Reference Energy          =    -498.0318965361925052 [Eh]
	 Singles Energy            =      -0.0000000000000000 [Eh]
	 Same-Spin Energy          =      -0.4950442434161568 [Eh]
	 Opposite-Spin Energy      =      -1.6267469021959384 [Eh]
	 Correlation Energy        =      -2.1217911456120953 [Eh]
	 Total Energy              =    -500.1536876818046267 [Eh]

	 ================> DF-SCS-MP2 Energies <==================
	-----------------------------------------------------------
	 SCS Same-Spin Scale       =       0.3333333333333333 [-]
	 SCS Opposite-Spin Scale   =       1.2000000000000000 [-]
	 SCS Same-Spin Energy      =      -0.1650147478053856 [Eh]
	 SCS Opposite-Spin Energy  =      -1.9520962826351260 [Eh]
	 SCS Correlation Energy    =      -2.1171110304405114 [Eh]
	 SCS Total Energy          =    -500.1490075666330313 [Eh]
	-----------------------------------------------------------

  Dipole Moment: [D]
     X:     0.2542      Y:     0.1233      Z:    -0.3642     Total:     0.4609

*** Psi4 exiting successfully. Buy a developer a beer!
