                               Psi4 1.3.2 release

  ==> Input File <==

--------------------------------------------------------------------------
#psi4
#
memory 32 gb

molecule  {
0 1
  O        1.0823540    -0.5566580    -0.2632920
  O       -1.1017362    -0.5588815    -0.3105385
  O        0.0000290     0.8790020     1.1568390
  C        2.3645980    -0.0472600     0.2117580
  C       -2.3645710    -0.0472670     0.2117220
  C        3.3580870    -1.1527530    -0.0787140
  C        2.6794210     1.2541120    -0.5011060
  C       -2.6796530     1.2540600    -0.5011170
  C       -3.3579470    -1.1529030    -0.0785870
  C        0.0000190     0.0134100     0.2963400
  H        2.2751950     0.1248800     1.2880410
  H       -2.2750520     0.1249260     1.2879850
  H        4.3537060    -0.8600380     0.2666930
  H        3.0667940    -2.0744370     0.4299490
  H        3.4032550    -1.3462360    -1.1536500
  H        3.6582030     1.6290460    -0.1867860
  H        1.9279580     2.0093320    -0.2633690
  H        2.6983220     1.0899770    -1.5821290
  H       -3.6584150     1.6289180    -0.1866510
  H       -1.9282070     2.0093390    -0.2634970
  H       -2.6986940     1.0899190    -1.5821360
  H       -4.3535640    -0.8602980     0.2669170
  H       -3.0664820    -2.0745270     0.4300870
  H       -3.4032180    -1.3464490    -1.1535090
units angstrom
no_reorient  #important for SAPT in psi4, default
symmetry c1  #important for SAPT in psi4, default
}

set PROPERTIES_ORIGIN ["COM"]
properties('MP2/aug-cc-pvtz', properties = ['dipole'])
--------------------------------------------------------------------------

    Molecular point group: c1
  Charge       = 0
  Multiplicity = 1
  Basis Set: AUG-CC-PVTZ
    Blend: AUG-CC-PVTZ
  Basis Set: (AUG-CC-PVTZ AUX)
    Blend: AUG-CC-PVTZ-JKFIT

    Orbital Energies [Eh]
    ---------------------

    Doubly Occupied:

       1A    -20.603652     2A    -20.600775     3A    -20.547816
       4A    -11.432858     5A    -11.295290     6A    -11.290946
       7A    -11.222648     8A    -11.219735     9A    -11.219454
      10A    -11.216461    11A     -1.486409    12A     -1.384784
      13A     -1.357437    14A     -1.079951    15A     -1.052452
      16A     -0.947528    17A     -0.944572    18A     -0.872896
      19A     -0.799315    20A     -0.770917    21A     -0.742551
      22A     -0.695563    23A     -0.672641    24A     -0.631748
      25A     -0.624789    26A     -0.614363    27A     -0.582046
      28A     -0.574438    29A     -0.558405    30A     -0.549204
      31A     -0.547111    32A     -0.534145    33A     -0.524278
      34A     -0.516630    35A     -0.507207    36A     -0.490560
      37A     -0.486237    38A     -0.470771    39A     -0.458609
      40A     -0.451768

  @DF-RHF Final Energy:  -498.03427769625966

   => Energetics <=

    Nuclear Repulsion Energy =            576.4112926628034757
    One-Electron Energy =               -1823.7332235084536478
    Two-Electron Energy =                 749.2876531493903940
    Total Energy =                       -498.0342776962596645
  Basis Set: (AUG-CC-PVTZ AUX)
    Blend: AUG-CC-PVTZ-RI
    Molecular point group: c1

    Geometry (in Angstrom), charge = 0, multiplicity = 1:

       Center              X                  Y                   Z               Mass
    ------------   -----------------  -----------------  -----------------  -----------------
         O            1.084478007240    -0.548626868250    -0.274434611899    15.994914619570
         O           -1.099612192760    -0.550850368250    -0.321681111899    15.994914619570
         O            0.002153007240     0.887033131750     1.145696388101    15.994914619570
         C            2.366722007240    -0.039228868250     0.200615388101    12.000000000000
         C           -2.362446992760    -0.039235868250     0.200579388101    12.000000000000
         C            3.360211007240    -1.144721868250    -0.089856611899    12.000000000000
         C            2.681545007240     1.262143131750    -0.512248611899    12.000000000000
         C           -2.677528992760     1.262091131750    -0.512259611899    12.000000000000
         C           -3.355822992760    -1.144871868250    -0.089729611899    12.000000000000
         C            0.002143007240     0.021441131750     0.285197388101    12.000000000000
         H            2.277319007240     0.132911131750     1.276898388101     1.007825032230
         H           -2.272927992760     0.132957131750     1.276842388101     1.007825032230
         H            4.355830007240    -0.852006868250     0.255550388101     1.007825032230
         H            3.068918007240    -2.066405868250     0.418806388101     1.007825032230
         H            3.405379007240    -1.338204868250    -1.164792611899     1.007825032230
         H            3.660327007240     1.637077131750    -0.197928611899     1.007825032230
         H            1.930082007240     2.017363131750    -0.274511611899     1.007825032230
         H            2.700446007240     1.098008131750    -1.593271611899     1.007825032230
         H           -3.656290992760     1.636949131750    -0.197793611899     1.007825032230
         H           -1.926082992760     2.017370131750    -0.274639611899     1.007825032230
         H           -2.696569992760     1.097950131750    -1.593278611899     1.007825032230
         H           -4.351439992760    -0.852266868250     0.255774388101     1.007825032230
         H           -3.064357992760    -2.066495868250     0.418944388101     1.007825032230
         H           -3.401093992760    -1.338417868250    -1.164651611899     1.007825032230

  Basis Set: AUG-CC-PVTZ
    Blend: AUG-CC-PVTZ
  Basis Set: (AUG-CC-PVTZ AUX)
    Blend: AUG-CC-PVTZ-JKFIT
	 Reference Energy          =    -498.0342776962596645 [Eh]
	 Singles Energy            =      -0.0000000000000000 [Eh]
	 Same-Spin Energy          =      -0.4950625223135784 [Eh]
	 Opposite-Spin Energy      =      -1.6268975943908788 [Eh]
	 Correlation Energy        =      -2.1219601167044573 [Eh]
	 Total Energy              =    -500.1562378129641502 [Eh]

	 ================> DF-SCS-MP2 Energies <==================
	-----------------------------------------------------------
	 SCS Same-Spin Scale       =       0.3333333333333333 [-]
	 SCS Opposite-Spin Scale   =       1.2000000000000000 [-]
	 SCS Same-Spin Energy      =      -0.1650208407711928 [Eh]
	 SCS Opposite-Spin Energy  =      -1.9522771132690544 [Eh]
	 SCS Correlation Energy    =      -2.1172979540402470 [Eh]
	 SCS Total Energy          =    -500.1515756502998897 [Eh]
	-----------------------------------------------------------

  Dipole Moment: [D]
     X:     0.2440      Y:    -0.0621      Z:    -0.1770     Total:     0.3077

*** Psi4 exiting successfully. Buy a developer a beer!
