                               Psi4 1.3.2 release

  ==> Input File <==

--------------------------------------------------------------------------
#psi4
#
memory 32 gb

molecule  {
0 1
  O        1.1354426    -0.5014080    -0.2090214
  O       -1.0823250    -0.5564370    -0.2635130
  O        0.0000290     0.8790020     1.1568390
  C        2.3645980    -0.0472600     0.2117580
  C       -2.3645710    -0.0472670     0.2117220
  C        3.3580870    -1.1527530    -0.0787140
  C        2.6794210     1.2541120    -0.5011060
  C       -2.6796530     1.2540600    -0.5011170
  C       -3.3579470    -1.1529030    -0.0785870
  C        0.0000190     0.0134100     0.2963400
  H        2.2751950     0.1248800     1.2880410
  H       -2.2750520     0.1249260     1.2879850
  H        4.3537060    -0.8600380     0.2666930
  H        3.0667940    -2.0744370     0.4299490
  H        3.4032550    -1.3462360    -1.1536500
  H        3.6582030     1.6290460    -0.1867860
  H        1.9279580     2.0093320    -0.2633690
  H        2.6983220     1.0899770    -1.5821290
  H       -3.6584150     1.6289180    -0.1866510
  H       -1.9282070     2.0093390    -0.2634970
  H       -2.6986940     1.0899190    -1.5821360
  H       -4.3535640    -0.8602980     0.2669170
  H       -3.0664820    -2.0745270     0.4300870
  H       -3.4032180    -1.3464490    -1.1535090
units angstrom
no_reorient  #important for SAPT in psi4, default
symmetry c1  #important for SAPT in psi4, default
}

set PROPERTIES_ORIGIN ["COM"]
properties('MP2/aug-cc-pvtz', properties = ['dipole'])
--------------------------------------------------------------------------

    Molecular point group: c1
  Charge       = 0
  Multiplicity = 1
  Basis Set: AUG-CC-PVTZ
    Blend: AUG-CC-PVTZ
  Basis Set: (AUG-CC-PVTZ AUX)
    Blend: AUG-CC-PVTZ-JKFIT

    Orbital Energies [Eh]
    ---------------------

    Doubly Occupied:

       1A    -20.608100     2A    -20.598733     3A    -20.539576
       4A    -11.432456     5A    -11.297867     6A    -11.285456
       7A    -11.224274     8A    -11.220739     9A    -11.218699
      10A    -11.213531    11A     -1.499873    12A     -1.407466
      13A     -1.354582    14A     -1.084360    15A     -1.054164
      16A     -0.948884    17A     -0.944506    18A     -0.889828
      19A     -0.807963    20A     -0.768660    21A     -0.756118
      22A     -0.698578    23A     -0.676481    24A     -0.638111
      25A     -0.627437    26A     -0.620804    27A     -0.582148
      28A     -0.574642    29A     -0.558604    30A     -0.550897
      31A     -0.545509    32A     -0.535518    33A     -0.532549
      34A     -0.519583    35A     -0.506823    36A     -0.490838
      37A     -0.482232    38A     -0.464590    39A     -0.456998
      40A     -0.445014

  @DF-RHF Final Energy:  -498.03656759659532

   => Energetics <=

    Nuclear Repulsion Energy =            578.6962393044641431
    One-Electron Energy =               -1828.1392348316971947
    Two-Electron Energy =                 751.4064279306377330
    Total Energy =                       -498.0365675965953187
  Basis Set: (AUG-CC-PVTZ AUX)
    Blend: AUG-CC-PVTZ-RI
    Molecular point group: c1

    Geometry (in Angstrom), charge = 0, multiplicity = 1:

       Center              X                  Y                   Z               Mass
    ------------   -----------------  -----------------  -----------------  -----------------
         O            1.129629075412    -0.499693464020    -0.231254263428    15.994914619570
         O           -1.088138524588    -0.554722464020    -0.285745863428    15.994914619570
         O           -0.005784524588     0.880716535980     1.134606136572    15.994914619570
         C            2.358784475412    -0.045545464020     0.189525136572    12.000000000000
         C           -2.370384524588    -0.045552464020     0.189489136572    12.000000000000
         C            3.352273475412    -1.151038464020    -0.100946863428    12.000000000000
         C            2.673607475412     1.255826535980    -0.523338863428    12.000000000000
         C           -2.685466524588     1.255774535980    -0.523349863428    12.000000000000
         C           -3.363760524588    -1.151188464020    -0.100819863428    12.000000000000
         C           -0.005794524588     0.015124535980     0.274107136572    12.000000000000
         H            2.269381475412     0.126594535980     1.265808136572     1.007825032230
         H           -2.280865524588     0.126640535980     1.265752136572     1.007825032230
         H            4.347892475412    -0.858323464020     0.244460136572     1.007825032230
         H            3.060980475412    -2.072722464020     0.407716136572     1.007825032230
         H            3.397441475412    -1.344521464020    -1.175882863428     1.007825032230
         H            3.652389475412     1.630760535980    -0.209018863428     1.007825032230
         H            1.922144475412     2.011046535980    -0.285601863428     1.007825032230
         H            2.692508475412     1.091691535980    -1.604361863428     1.007825032230
         H           -3.664228524588     1.630632535980    -0.208883863428     1.007825032230
         H           -1.934020524588     2.011053535980    -0.285729863428     1.007825032230
         H           -2.704507524588     1.091633535980    -1.604368863428     1.007825032230
         H           -4.359377524588    -0.858583464020     0.244684136572     1.007825032230
         H           -3.072295524588    -2.072812464020     0.407854136572     1.007825032230
         H           -3.409031524588    -1.344734464020    -1.175741863428     1.007825032230

  Basis Set: AUG-CC-PVTZ
    Blend: AUG-CC-PVTZ
  Basis Set: (AUG-CC-PVTZ AUX)
    Blend: AUG-CC-PVTZ-JKFIT
	 Reference Energy          =    -498.0365675965953187 [Eh]
	 Singles Energy            =      -0.0000000000000000 [Eh]
	 Same-Spin Energy          =      -0.4938944810053943 [Eh]
	 Opposite-Spin Energy      =      -1.6227312754030125 [Eh]
	 Correlation Energy        =      -2.1166257564084070 [Eh]
	 Total Energy              =    -500.1531933530037008 [Eh]

	 ================> DF-SCS-MP2 Energies <==================
	-----------------------------------------------------------
	 SCS Same-Spin Scale       =       0.3333333333333333 [-]
	 SCS Opposite-Spin Scale   =       1.2000000000000000 [-]
	 SCS Same-Spin Energy      =      -0.1646314936684648 [Eh]
	 SCS Opposite-Spin Energy  =      -1.9472775304836150 [Eh]
	 SCS Correlation Energy    =      -2.1119090241520797 [Eh]
	 SCS Total Energy          =    -500.1484766207473740 [Eh]
	-----------------------------------------------------------

  Dipole Moment: [D]
     X:    -0.3876      Y:    -0.2442      Z:    -0.3854     Total:     0.5987

*** Psi4 exiting successfully. Buy a developer a beer!
