                               Psi4 1.3.2 release

  ==> Input File <==

--------------------------------------------------------------------------
#psi4
#
memory 32 gb

molecule  {
0 1
  O        1.0823540    -0.5566580    -0.2632920
  O       -1.0823250    -0.5564370    -0.2635130
  O        0.0000290     0.8790020     1.1568390
  C        2.3645980    -0.0472600     0.2117580
  C       -2.3645710    -0.0472670     0.2117220
  C        3.3580870    -1.1527530    -0.0787140
  C        2.6794210     1.2541120    -0.5011060
  C       -2.6796530     1.2540600    -0.5011170
  C       -3.3579470    -1.1529030    -0.0785870
  C        0.0000182    -0.0575090     0.2258383
  H        2.2751950     0.1248800     1.2880410
  H       -2.2750520     0.1249260     1.2879850
  H        4.3537060    -0.8600380     0.2666930
  H        3.0667940    -2.0744370     0.4299490
  H        3.4032550    -1.3462360    -1.1536500
  H        3.6582030     1.6290460    -0.1867860
  H        1.9279580     2.0093320    -0.2633690
  H        2.6983220     1.0899770    -1.5821290
  H       -3.6584150     1.6289180    -0.1866510
  H       -1.9282070     2.0093390    -0.2634970
  H       -2.6986940     1.0899190    -1.5821360
  H       -4.3535640    -0.8602980     0.2669170
  H       -3.0664820    -2.0745270     0.4300870
  H       -3.4032180    -1.3464490    -1.1535090
units angstrom
no_reorient  #important for SAPT in psi4, default
symmetry c1  #important for SAPT in psi4, default
}

set PROPERTIES_ORIGIN ["COM"]
properties('MP2/aug-cc-pvtz', properties = ['dipole'])
--------------------------------------------------------------------------

    Molecular point group: c1
  Charge       = 0
  Multiplicity = 1
  Basis Set: AUG-CC-PVTZ
    Blend: AUG-CC-PVTZ
  Basis Set: (AUG-CC-PVTZ AUX)
    Blend: AUG-CC-PVTZ-JKFIT

    Orbital Energies [Eh]
    ---------------------

    Doubly Occupied:

       1A    -20.611191     2A    -20.611166     3A    -20.511818
       4A    -11.428973     5A    -11.299366     6A    -11.299363
       7A    -11.224690     8A    -11.224690     9A    -11.219232
      10A    -11.219231    11A     -1.510372    12A     -1.417437
      13A     -1.284851    14A     -1.091682    15A     -1.062640
      16A     -0.948316    17A     -0.948166    18A     -0.892663
      19A     -0.813714    20A     -0.770973    21A     -0.756378
      22A     -0.697807    23A     -0.671869    24A     -0.637240
      25A     -0.621784    26A     -0.621513    27A     -0.577812
      28A     -0.568330    29A     -0.562142    30A     -0.550530
      31A     -0.548663    32A     -0.536128    33A     -0.528430
      34A     -0.521871    35A     -0.498551    36A     -0.490699
      37A     -0.485686    38A     -0.465359    39A     -0.436860
      40A     -0.429739

  @DF-RHF Final Energy:  -498.02382716575232

   => Energetics <=

    Nuclear Repulsion Energy =            577.4011626863833726
    One-Electron Energy =               -1825.6541228078506265
    Two-Electron Energy =                 750.2291329557150448
    Total Energy =                       -498.0238271657523228
  Basis Set: (AUG-CC-PVTZ AUX)
    Blend: AUG-CC-PVTZ-RI
    Molecular point group: c1

    Geometry (in Angstrom), charge = 0, multiplicity = 1:

       Center              X                  Y                   Z               Mass
    ------------   -----------------  -----------------  -----------------  -----------------
         O            1.082352866842    -0.543069303972    -0.273792208012    15.994914619570
         O           -1.082326133158    -0.542848303972    -0.274013208012    15.994914619570
         O            0.000027866842     0.892590696028     1.146338791988    15.994914619570
         C            2.364596866842    -0.033671303972     0.201257791988    12.000000000000
         C           -2.364572133158    -0.033678303972     0.201221791988    12.000000000000
         C            3.358085866842    -1.139164303972    -0.089214208012    12.000000000000
         C            2.679419866842     1.267700696028    -0.511606208012    12.000000000000
         C           -2.679654133158     1.267648696028    -0.511617208012    12.000000000000
         C           -3.357948133158    -1.139314303972    -0.089087208012    12.000000000000
         C            0.000017066842    -0.043920303972     0.215338091988    12.000000000000
         H            2.275193866842     0.138468696028     1.277540791988     1.007825032230
         H           -2.275053133158     0.138514696028     1.277484791988     1.007825032230
         H            4.353704866842    -0.846449303972     0.256192791988     1.007825032230
         H            3.066792866842    -2.060848303972     0.419448791988     1.007825032230
         H            3.403253866842    -1.332647303972    -1.164150208012     1.007825032230
         H            3.658201866842     1.642634696028    -0.197286208012     1.007825032230
         H            1.927956866842     2.022920696028    -0.273869208012     1.007825032230
         H            2.698320866842     1.103565696028    -1.592629208012     1.007825032230
         H           -3.658416133158     1.642506696028    -0.197151208012     1.007825032230
         H           -1.928208133158     2.022927696028    -0.273997208012     1.007825032230
         H           -2.698695133158     1.103507696028    -1.592636208012     1.007825032230
         H           -4.353565133158    -0.846709303972     0.256416791988     1.007825032230
         H           -3.066483133158    -2.060938303972     0.419586791988     1.007825032230
         H           -3.403219133158    -1.332860303972    -1.164009208012     1.007825032230

  Basis Set: AUG-CC-PVTZ
    Blend: AUG-CC-PVTZ
  Basis Set: (AUG-CC-PVTZ AUX)
    Blend: AUG-CC-PVTZ-JKFIT
	 Reference Energy          =    -498.0238271657523228 [Eh]
	 Singles Energy            =      -0.0000000000000000 [Eh]
	 Same-Spin Energy          =      -0.4943783696919869 [Eh]
	 Opposite-Spin Energy      =      -1.6242166717382782 [Eh]
	 Correlation Energy        =      -2.1185950414302650 [Eh]
	 Total Energy              =    -500.1424222071825625 [Eh]

	 ================> DF-SCS-MP2 Energies <==================
	-----------------------------------------------------------
	 SCS Same-Spin Scale       =       0.3333333333333333 [-]
	 SCS Opposite-Spin Scale   =       1.2000000000000000 [-]
	 SCS Same-Spin Energy      =      -0.1647927898973290 [Eh]
	 SCS Opposite-Spin Energy  =      -1.9490600060859338 [Eh]
	 SCS Correlation Energy    =      -2.1138527959832629 [Eh]
	 SCS Total Energy          =    -500.1376799617355573 [Eh]
	-----------------------------------------------------------

  Dipole Moment: [D]
     X:     0.0000      Y:    -0.6120      Z:    -0.8308     Total:     1.0319

*** Psi4 exiting successfully. Buy a developer a beer!
