                               Psi4 1.3.2 release

  ==> Input File <==

--------------------------------------------------------------------------
#psi4
#
memory 32 gb

molecule  {
0 1
  O        1.0823540    -0.5566580    -0.2632920
  O       -1.0823250    -0.5564370    -0.2635130
  O        0.0000290     0.8790020     1.1568390
  C        2.3645980    -0.0472600     0.2117580
  C       -2.3645710    -0.0472670     0.2117220
  C        3.3580870    -1.1527530    -0.0787140
  C        2.6794210     1.2541120    -0.5011060
  C       -2.6796530     1.2540600    -0.5011170
  C       -3.3579470    -1.1529030    -0.0785870
  C        0.0000190     0.0134100     0.2963400
  H        2.2751950     0.1248800     1.2880410
  H       -2.2750520     0.1249260     1.2879850
  H        4.3537060    -0.8600380     0.2666930
  H        3.0667940    -2.0744370     0.4299490
  H        3.4032550    -1.3462360    -1.1536500
  H        3.6582030     1.6290460    -0.1867860
  H        1.9279580     2.0093320    -0.2633690
  H        2.6983220     1.0899770    -1.5821290
  H       -3.6584150     1.6289180    -0.1866510
  H       -1.9282070     2.0093390    -0.2634970
  H       -2.6986940     1.0899190    -1.5821360
  H       -4.3535640    -0.8602980     0.2669170
  H       -3.0664820    -2.0745270     0.4300870
  H       -3.4032180    -1.3464490    -1.1535090
units angstrom
no_reorient  #important for SAPT in psi4, default
symmetry c1  #important for SAPT in psi4, default
}

set PROPERTIES_ORIGIN ["COM"]
properties('MP2/aug-cc-pvtz', properties = ['dipole'])
--------------------------------------------------------------------------

    Molecular point group: c1
  Charge       = 0
  Multiplicity = 1
  Basis Set: AUG-CC-PVTZ
    Blend: AUG-CC-PVTZ
  Basis Set: (AUG-CC-PVTZ AUX)
    Blend: AUG-CC-PVTZ-JKFIT

    Orbital Energies [Eh]
    ---------------------

    Doubly Occupied:

       1A    -20.600953     2A    -20.600928     3A    -20.541257
       4A    -11.427897     5A    -11.293757     6A    -11.293754
       7A    -11.221625     8A    -11.221625     9A    -11.218505
      10A    -11.218503    11A     -1.491928    12A     -1.389171
      13A     -1.354282    14A     -1.081739    15A     -1.054243
      16A     -0.946454    17A     -0.946262    18A     -0.876641
      19A     -0.801009    20A     -0.769218    21A     -0.745674
      22A     -0.695473    23A     -0.674280    24A     -0.632533
      25A     -0.624996    26A     -0.615458    27A     -0.581446
      28A     -0.574660    29A     -0.558981    30A     -0.548570
      31A     -0.548259    32A     -0.534256    33A     -0.525994
      34A     -0.516972    35A     -0.505930    36A     -0.490139
      37A     -0.485803    38A     -0.468795    39A     -0.456832
      40A     -0.451999

  @DF-RHF Final Energy:  -498.03910269923142

   => Energetics <=

    Nuclear Repulsion Energy =            577.2775026504924654
    One-Electron Energy =               -1825.4596111089970236
    Two-Electron Energy =                 750.1430057592730236
    Total Energy =                       -498.0391026992314210
  Basis Set: (AUG-CC-PVTZ AUX)
    Blend: AUG-CC-PVTZ-RI
    Molecular point group: c1

    Geometry (in Angstrom), charge = 0, multiplicity = 1:

       Center              X                  Y                   Z               Mass
    ------------   -----------------  -----------------  -----------------  -----------------
         O            1.082352801131    -0.548894500665    -0.279583128212    15.994914619570
         O           -1.082326198869    -0.548673500665    -0.279804128212    15.994914619570
         O            0.000027801131     0.886765499335     1.140547871788    15.994914619570
         C            2.364596801131    -0.039496500665     0.195466871788    12.000000000000
         C           -2.364572198869    -0.039503500665     0.195430871788    12.000000000000
         C            3.358085801131    -1.144989500665    -0.095005128212    12.000000000000
         C            2.679419801131     1.261875499335    -0.517397128212    12.000000000000
         C           -2.679654198869     1.261823499335    -0.517408128212    12.000000000000
         C           -3.357948198869    -1.145139500665    -0.094878128212    12.000000000000
         C            0.000017801131     0.021173499335     0.280048871788    12.000000000000
         H            2.275193801131     0.132643499335     1.271749871788     1.007825032230
         H           -2.275053198869     0.132689499335     1.271693871788     1.007825032230
         H            4.353704801131    -0.852274500665     0.250401871788     1.007825032230
         H            3.066792801131    -2.066673500665     0.413657871788     1.007825032230
         H            3.403253801131    -1.338472500665    -1.169941128212     1.007825032230
         H            3.658201801131     1.636809499335    -0.203077128212     1.007825032230
         H            1.927956801131     2.017095499335    -0.279660128212     1.007825032230
         H            2.698320801131     1.097740499335    -1.598420128212     1.007825032230
         H           -3.658416198869     1.636681499335    -0.202942128212     1.007825032230
         H           -1.928208198869     2.017102499335    -0.279788128212     1.007825032230
         H           -2.698695198869     1.097682499335    -1.598427128212     1.007825032230
         H           -4.353565198869    -0.852534500665     0.250625871788     1.007825032230
         H           -3.066483198869    -2.066763500665     0.413795871788     1.007825032230
         H           -3.403219198869    -1.338685500665    -1.169800128212     1.007825032230

  Basis Set: AUG-CC-PVTZ
    Blend: AUG-CC-PVTZ
  Basis Set: (AUG-CC-PVTZ AUX)
    Blend: AUG-CC-PVTZ-JKFIT
	 Reference Energy          =    -498.0391026992314210 [Eh]
	 Singles Energy            =      -0.0000000000000000 [Eh]
	 Same-Spin Energy          =      -0.4943247068853067 [Eh]
	 Opposite-Spin Energy      =      -1.6248600062322409 [Eh]
	 Correlation Energy        =      -2.1191847131175479 [Eh]
	 Total Energy              =    -500.1582874123489546 [Eh]

	 ================> DF-SCS-MP2 Energies <==================
	-----------------------------------------------------------
	 SCS Same-Spin Scale       =       0.3333333333333333 [-]
	 SCS Opposite-Spin Scale   =       1.2000000000000000 [-]
	 SCS Same-Spin Energy      =      -0.1647749022951022 [Eh]
	 SCS Opposite-Spin Energy  =      -1.9498320074786890 [Eh]
	 SCS Correlation Energy    =      -2.1146069097737912 [Eh]
	 SCS Total Energy          =    -500.1537096090052046 [Eh]
	-----------------------------------------------------------

  Dipole Moment: [D]
     X:     0.0000      Y:    -0.1141      Z:    -0.2908     Total:     0.3123

*** Psi4 exiting successfully. Buy a developer a beer!
