                               Psi4 1.4a3.dev225

  ==> Input File <==

--------------------------------------------------------------------------
#psi4
#
memory 32 gb

molecule  {
0 1
  O        1.0823660    -0.5568910    -0.2629560
  O       -1.0823640    -0.5568750    -0.2629780
  O       -0.0000050     0.8796030     1.1562750
  C        2.3645860    -0.0472710     0.2118040
  C       -2.3645830    -0.0472720     0.2117990
  C        3.3581450    -1.1527440    -0.0787380
  C        2.6794270     1.2540320    -0.5011890
  C       -2.6794360     1.2540300    -0.5011890
  C       -3.3581360    -1.1527540    -0.0787300
  C       -0.0000008    -0.0220597     0.2611465
  H        2.2753340     0.1249760     1.2880770
  H       -2.2753170     0.1249770     1.2880710
  H        4.3539520    -0.8597410     0.2658680
  H        3.0673460    -2.0742840     0.4304720
  H        3.4026140    -1.3466350    -1.1536290
  H        3.6579950     1.6291330    -0.1863970
  H        1.9277540     2.0091980    -0.2639900
  H        2.6989690     1.0896910    -1.5821710
  H       -3.6580010     1.6291290    -0.1863860
  H       -1.9277600     2.0091950    -0.2639970
  H       -2.6989890     1.0896910    -1.5821710
  H       -4.3539420    -0.8597570     0.2658840
  H       -3.0673260    -2.0742900     0.4304790
  H       -3.4026140    -1.3466480    -1.1536200
units angstrom
no_reorient  #important for SAPT in psi4, default
symmetry c1  #important for SAPT in psi4, default
}

set PROPERTIES_ORIGIN ["COM"]
properties('MP2/aug-cc-pvtz', properties = ['dipole'])
--------------------------------------------------------------------------

    Molecular point group: c1
  Charge       = 0
  Multiplicity = 1
  Basis Set: AUG-CC-PVTZ
    Blend: AUG-CC-PVTZ
  Basis Set: (AUG-CC-PVTZ AUX)
    Blend: AUG-CC-PVTZ-JKFIT

    Orbital Energies [Eh]
    ---------------------

    Doubly Occupied:

       1A    -20.606283     2A    -20.606259     3A    -20.526535
       4A    -11.428997     5A    -11.296580     6A    -11.296579
       7A    -11.223185     8A    -11.223185     9A    -11.218864
      10A    -11.218864    11A     -1.499360    12A     -1.403128
      13A     -1.320064    14A     -1.086743    15A     -1.058347
      16A     -0.947396    17A     -0.947222    18A     -0.884930
      19A     -0.806625    20A     -0.770020    21A     -0.750811
      22A     -0.694418    23A     -0.672318    24A     -0.634810
      25A     -0.623332    26A     -0.618636    27A     -0.575946
      28A     -0.574573    29A     -0.560534    30A     -0.549375
      31A     -0.549151    32A     -0.532432    33A     -0.531060
      34A     -0.519574    35A     -0.501200    36A     -0.489746
      37A     -0.485982    38A     -0.464640    39A     -0.448643
      40A     -0.444934

  @DF-RHF Final Energy:  -498.03485572273883

   => Energetics <=

    Nuclear Repulsion Energy =            577.3159540614791467
    One-Electron Energy =               -1825.5190556139959881
    Two-Electron Energy =                 750.1682458297779021
    Total Energy =                       -498.0348557227388255
  Basis Set: (AUG-CC-PVTZ AUX)
    Blend: AUG-CC-PVTZ-RI
    Molecular point group: c1

    Geometry (in Angstrom), charge = 0, multiplicity = 1:

       Center              X                  Y                   Z               Mass
    ------------   -----------------  -----------------  -----------------  -----------------
         O            1.082366044268    -0.546210981361    -0.276363607342    15.994914619570
         O           -1.082363955732    -0.546194981361    -0.276385607342    15.994914619570
         O           -0.000004955732     0.890283018639     1.142867392658    15.994914619570
         C            2.364586044268    -0.036590981361     0.198396392658    12.000000000000
         C           -2.364582955732    -0.036591981361     0.198391392658    12.000000000000
         C            3.358145044268    -1.142063981361    -0.092145607342    12.000000000000
         C            2.679427044268     1.264712018639    -0.514596607342    12.000000000000
         C           -2.679435955732     1.264710018639    -0.514596607342    12.000000000000
         C           -3.358135955732    -1.142073981361    -0.092137607342    12.000000000000
         C           -0.000000755732    -0.011379681361     0.247738892658    12.000000000000
         H            2.275334044268     0.135656018639     1.274669392658     1.007825032230
         H           -2.275316955732     0.135657018639     1.274663392658     1.007825032230
         H            4.353952044268    -0.849060981361     0.252460392658     1.007825032230
         H            3.067346044268    -2.063603981361     0.417064392658     1.007825032230
         H            3.402614044268    -1.335954981361    -1.167036607342     1.007825032230
         H            3.657995044268     1.639813018639    -0.199804607342     1.007825032230
         H            1.927754044268     2.019878018639    -0.277397607342     1.007825032230
         H            2.698969044268     1.100371018639    -1.595578607342     1.007825032230
         H           -3.658000955732     1.639809018639    -0.199793607342     1.007825032230
         H           -1.927759955732     2.019875018639    -0.277404607342     1.007825032230
         H           -2.698988955732     1.100371018639    -1.595578607342     1.007825032230
         H           -4.353941955732    -0.849076981361     0.252476392658     1.007825032230
         H           -3.067325955732    -2.063609981361     0.417071392658     1.007825032230
         H           -3.402613955732    -1.335967981361    -1.167027607342     1.007825032230

  Basis Set: AUG-CC-PVTZ
    Blend: AUG-CC-PVTZ
  Basis Set: (AUG-CC-PVTZ AUX)
    Blend: AUG-CC-PVTZ-JKFIT
	 Reference Energy          =    -498.0348557227388255 [Eh]
	 Singles Energy            =      -0.0000000000000000 [Eh]
	 Same-Spin Energy          =      -0.4943861387869891 [Eh]
	 Opposite-Spin Energy      =      -1.6245417809007696 [Eh]
	 Correlation Energy        =      -2.1189279196877586 [Eh]
	 Total Energy              =    -500.1537836424265606 [Eh]

	 ================> DF-SCS-MP2 Energies <==================
	-----------------------------------------------------------
	 SCS Same-Spin Scale       =       0.3333333333333333 [-]
	 SCS Opposite-Spin Scale   =       1.2000000000000000 [-]
	 SCS Same-Spin Energy      =      -0.1647953795956630 [Eh]
	 SCS Opposite-Spin Energy  =      -1.9494501370809234 [Eh]
	 SCS Correlation Energy    =      -2.1142455166765863 [Eh]
	 SCS Total Energy          =    -500.1491012394154154 [Eh]
	-----------------------------------------------------------

  Dipole Moment: [D]
     X:     0.0000      Y:    -0.3642      Z:    -0.5606     Total:     0.6686

*** Psi4 exiting successfully. Buy a developer a beer!
