                               Psi4 1.3.2 release

  ==> Input File <==

--------------------------------------------------------------------------
#psi4
#
memory 32 gb

molecule  {
0 1
  O        1.0823540    -0.5566580    -0.2632920
  O       -1.0823250    -0.5564370    -0.2635130
  O        0.0000290     0.8790020     1.1568390
  C        2.3645980    -0.0472600     0.2117580
  C       -2.3128695     0.0157060     0.2728357
  C        3.3580870    -1.1527530    -0.0787140
  C        2.6794210     1.2541120    -0.5011060
  C       -2.6796530     1.2540600    -0.5011170
  C       -3.3579470    -1.1529030    -0.0785870
  C        0.0000190     0.0134100     0.2963400
  H        2.2751950     0.1248800     1.2880410
  H       -2.2750520     0.1249260     1.2879850
  H        4.3537060    -0.8600380     0.2666930
  H        3.0667940    -2.0744370     0.4299490
  H        3.4032550    -1.3462360    -1.1536500
  H        3.6582030     1.6290460    -0.1867860
  H        1.9279580     2.0093320    -0.2633690
  H        2.6983220     1.0899770    -1.5821290
  H       -3.6584150     1.6289180    -0.1866510
  H       -1.9282070     2.0093390    -0.2634970
  H       -2.6986940     1.0899190    -1.5821360
  H       -4.3535640    -0.8602980     0.2669170
  H       -3.0664820    -2.0745270     0.4300870
  H       -3.4032180    -1.3464490    -1.1535090
units angstrom
no_reorient  #important for SAPT in psi4, default
symmetry c1  #important for SAPT in psi4, default
}

set PROPERTIES_ORIGIN ["COM"]
properties('MP2/aug-cc-pvtz', properties = ['dipole'])
--------------------------------------------------------------------------

    Molecular point group: c1
  Charge       = 0
  Multiplicity = 1
  Basis Set: AUG-CC-PVTZ
    Blend: AUG-CC-PVTZ
  Basis Set: (AUG-CC-PVTZ AUX)
    Blend: AUG-CC-PVTZ-JKFIT

    Orbital Energies [Eh]
    ---------------------

    Doubly Occupied:

       1A    -20.605285     2A    -20.601554     3A    -20.543070
       4A    -11.428234     5A    -11.294232     6A    -11.291667
       7A    -11.222011     8A    -11.221551     9A    -11.219009
      10A    -11.218596    11A     -1.494766    12A     -1.391532
      13A     -1.356189    14A     -1.078537    15A     -1.049311
      16A     -0.946839    17A     -0.938389    18A     -0.875556
      19A     -0.809533    20A     -0.775862    21A     -0.746772
      22A     -0.699250    23A     -0.676174    24A     -0.634372
      25A     -0.621838    26A     -0.610442    27A     -0.582130
      28A     -0.575408    29A     -0.555944    30A     -0.549108
      31A     -0.547046    32A     -0.535513    33A     -0.525391
      34A     -0.520588    35A     -0.508656    36A     -0.492110
      37A     -0.482319    38A     -0.471577    39A     -0.455994
      40A     -0.447000

  @DF-RHF Final Energy:  -498.02751010520188

   => Energetics <=

    Nuclear Repulsion Energy =            577.4194472147497663
    One-Electron Energy =               -1825.6952115885533203
    Two-Electron Energy =                 750.2482542686018405
    Total Energy =                       -498.0275101052018272
  Basis Set: (AUG-CC-PVTZ AUX)
    Blend: AUG-CC-PVTZ-RI
    Molecular point group: c1

    Geometry (in Angstrom), charge = 0, multiplicity = 1:

       Center              X                  Y                   Z               Mass
    ------------   -----------------  -----------------  -----------------  -----------------
         O            1.078106105510    -0.554067022997    -0.284602930001    15.994914619570
         O           -1.086572894490    -0.553846022997    -0.284823930001    15.994914619570
         O           -0.004218894490     0.881592977003     1.135528069999    15.994914619570
         C            2.360350105510    -0.044669022997     0.190447069999    12.000000000000
         C           -2.317117394490     0.018296977003     0.251524769999    12.000000000000
         C            3.353839105510    -1.150162022997    -0.100024930001    12.000000000000
         C            2.675173105510     1.256702977003    -0.522416930001    12.000000000000
         C           -2.683900894490     1.256650977003    -0.522427930001    12.000000000000
         C           -3.362194894490    -1.150312022997    -0.099897930001    12.000000000000
         C           -0.004228894490     0.016000977003     0.275029069999    12.000000000000
         H            2.270947105510     0.127470977003     1.266730069999     1.007825032230
         H           -2.279299894490     0.127516977003     1.266674069999     1.007825032230
         H            4.349458105510    -0.857447022997     0.245382069999     1.007825032230
         H            3.062546105510    -2.071846022997     0.408638069999     1.007825032230
         H            3.399007105510    -1.343645022997    -1.174960930001     1.007825032230
         H            3.653955105510     1.631636977003    -0.208096930001     1.007825032230
         H            1.923710105510     2.011922977003    -0.284679930001     1.007825032230
         H            2.694074105510     1.092567977003    -1.603439930001     1.007825032230
         H           -3.662662894490     1.631508977003    -0.207961930001     1.007825032230
         H           -1.932454894490     2.011929977003    -0.284807930001     1.007825032230
         H           -2.702941894490     1.092509977003    -1.603446930001     1.007825032230
         H           -4.357811894490    -0.857707022997     0.245606069999     1.007825032230
         H           -3.070729894490    -2.071936022997     0.408776069999     1.007825032230
         H           -3.407465894490    -1.343858022997    -1.174819930001     1.007825032230

  Basis Set: AUG-CC-PVTZ
    Blend: AUG-CC-PVTZ
  Basis Set: (AUG-CC-PVTZ AUX)
    Blend: AUG-CC-PVTZ-JKFIT
	 Reference Energy          =    -498.0275101052018840 [Eh]
	 Singles Energy            =      -0.0000000000000000 [Eh]
	 Same-Spin Energy          =      -0.4943569264453201 [Eh]
	 Opposite-Spin Energy      =      -1.6256758848655504 [Eh]
	 Correlation Energy        =      -2.1200328113108706 [Eh]
	 Total Energy              =    -500.1475429165127480 [Eh]

	 ================> DF-SCS-MP2 Energies <==================
	-----------------------------------------------------------
	 SCS Same-Spin Scale       =       0.3333333333333333 [-]
	 SCS Opposite-Spin Scale   =       1.2000000000000000 [-]
	 SCS Same-Spin Energy      =      -0.1647856421484400 [Eh]
	 SCS Opposite-Spin Energy  =      -1.9508110618386603 [Eh]
	 SCS Correlation Energy    =      -2.1155967039871002 [Eh]
	 SCS Total Energy          =    -500.1431068091889642 [Eh]
	-----------------------------------------------------------

  Dipole Moment: [D]
     X:     0.1576      Y:    -0.0087      Z:    -0.2461     Total:     0.2924

*** Psi4 exiting successfully. Buy a developer a beer!
