                               Psi4 1.3.2 release

  ==> Input File <==

--------------------------------------------------------------------------
#psi4
#
memory 32 gb

molecule  {
0 1
  O        1.0823540    -0.5566580    -0.2632920
  O       -1.0335498    -0.5453971    -0.1191950
  O        0.0000290     0.8790020     1.1568390
  C        2.3645980    -0.0472600     0.2117580
  C       -2.3645710    -0.0472670     0.2117220
  C        3.3580870    -1.1527530    -0.0787140
  C        2.6794210     1.2541120    -0.5011060
  C       -2.6796530     1.2540600    -0.5011170
  C       -3.3579470    -1.1529030    -0.0785870
  C        0.0000190     0.0134100     0.2963400
  H        2.2751950     0.1248800     1.2880410
  H       -2.2750520     0.1249260     1.2879850
  H        4.3537060    -0.8600380     0.2666930
  H        3.0667940    -2.0744370     0.4299490
  H        3.4032550    -1.3462360    -1.1536500
  H        3.6582030     1.6290460    -0.1867860
  H        1.9279580     2.0093320    -0.2633690
  H        2.6983220     1.0899770    -1.5821290
  H       -3.6584150     1.6289180    -0.1866510
  H       -1.9282070     2.0093390    -0.2634970
  H       -2.6986940     1.0899190    -1.5821360
  H       -4.3535640    -0.8602980     0.2669170
  H       -3.0664820    -2.0745270     0.4300870
  H       -3.4032180    -1.3464490    -1.1535090
units angstrom
no_reorient  #important for SAPT in psi4, default
symmetry c1  #important for SAPT in psi4, default
}

set PROPERTIES_ORIGIN ["COM"]
properties('MP2/aug-cc-pvtz', properties = ['dipole'])
--------------------------------------------------------------------------

    Molecular point group: c1
  Charge       = 0
  Multiplicity = 1
  Basis Set: AUG-CC-PVTZ
    Blend: AUG-CC-PVTZ
  Basis Set: (AUG-CC-PVTZ AUX)
    Blend: AUG-CC-PVTZ-JKFIT

    Orbital Energies [Eh]
    ---------------------

    Doubly Occupied:

       1A    -20.599852     2A    -20.593519     3A    -20.520398
       4A    -11.412320     5A    -11.302769     6A    -11.289344
       7A    -11.228210     8A    -11.224729     9A    -11.218701
      10A    -11.214877    11A     -1.517373    12A     -1.398143
      13A     -1.341970    14A     -1.090463    15A     -1.056313
      16A     -0.951822    17A     -0.942965    18A     -0.891531
      19A     -0.806176    20A     -0.765108    21A     -0.751289
      22A     -0.701231    23A     -0.677674    24A     -0.634356
      25A     -0.628973    26A     -0.614648    27A     -0.580205
      28A     -0.574059    29A     -0.563446    30A     -0.552434
      31A     -0.545763    32A     -0.535600    33A     -0.529534
      34A     -0.516846    35A     -0.503582    36A     -0.489714
      37A     -0.481209    38A     -0.460935    39A     -0.450350
      40A     -0.447489

  @DF-RHF Final Energy:  -498.03549828059687

   => Energetics <=

    Nuclear Repulsion Energy =            579.7921141589474701
    One-Electron Energy =               -1830.4433907027321311
    Two-Electron Energy =                 752.6157782631878490
    Total Energy =                       -498.0354982805968120
  Basis Set: (AUG-CC-PVTZ AUX)
    Blend: AUG-CC-PVTZ-RI
    Molecular point group: c1

    Geometry (in Angstrom), charge = 0, multiplicity = 1:

       Center              X                  Y                   Z               Mass
    ------------   -----------------  -----------------  -----------------  -----------------
         O            1.077012721539    -0.550103187553    -0.295383567914    15.994914619570
         O           -1.038891078461    -0.538842287553    -0.151286567914    15.994914619570
         O           -0.005312278461     0.885556812447     1.124747432086    15.994914619570
         C            2.359256721539    -0.040705187553     0.179666432086    12.000000000000
         C           -2.369912278461    -0.040712187553     0.179630432086    12.000000000000
         C            3.352745721539    -1.146198187553    -0.110805567914    12.000000000000
         C            2.674079721539     1.260666812447    -0.533197567914    12.000000000000
         C           -2.684994278461     1.260614812447    -0.533208567914    12.000000000000
         C           -3.363288278461    -1.146348187553    -0.110678567914    12.000000000000
         C           -0.005322278461     0.019964812447     0.264248432086    12.000000000000
         H            2.269853721539     0.131434812447     1.255949432086     1.007825032230
         H           -2.280393278461     0.131480812447     1.255893432086     1.007825032230
         H            4.348364721539    -0.853483187553     0.234601432086     1.007825032230
         H            3.061452721539    -2.067882187553     0.397857432086     1.007825032230
         H            3.397913721539    -1.339681187553    -1.185741567914     1.007825032230
         H            3.652861721539     1.635600812447    -0.218877567914     1.007825032230
         H            1.922616721539     2.015886812447    -0.295460567914     1.007825032230
         H            2.692980721539     1.096531812447    -1.614220567914     1.007825032230
         H           -3.663756278461     1.635472812447    -0.218742567914     1.007825032230
         H           -1.933548278461     2.015893812447    -0.295588567914     1.007825032230
         H           -2.704035278461     1.096473812447    -1.614227567914     1.007825032230
         H           -4.358905278461    -0.853743187553     0.234825432086     1.007825032230
         H           -3.071823278461    -2.067972187553     0.397995432086     1.007825032230
         H           -3.408559278461    -1.339894187553    -1.185600567914     1.007825032230

  Basis Set: AUG-CC-PVTZ
    Blend: AUG-CC-PVTZ
  Basis Set: (AUG-CC-PVTZ AUX)
    Blend: AUG-CC-PVTZ-JKFIT
	 Reference Energy          =    -498.0354982805968689 [Eh]
	 Singles Energy            =      -0.0000000000000000 [Eh]
	 Same-Spin Energy          =      -0.4925932006957766 [Eh]
	 Opposite-Spin Energy      =      -1.6199422015230773 [Eh]
	 Correlation Energy        =      -2.1125354022188541 [Eh]
	 Total Energy              =    -500.1480336828157078 [Eh]

	 ================> DF-SCS-MP2 Energies <==================
	-----------------------------------------------------------
	 SCS Same-Spin Scale       =       0.3333333333333333 [-]
	 SCS Opposite-Spin Scale   =       1.2000000000000000 [-]
	 SCS Same-Spin Energy      =      -0.1641977335652589 [Eh]
	 SCS Opposite-Spin Energy  =      -1.9439306418276927 [Eh]
	 SCS Correlation Energy    =      -2.1081283753929516 [Eh]
	 SCS Total Energy          =    -500.1436266559898058 [Eh]
	-----------------------------------------------------------

  Dipole Moment: [D]
     X:    -0.6919      Y:    -0.2853      Z:    -0.6305     Total:     0.9786

*** Psi4 exiting successfully. Buy a developer a beer!
