                               Psi4 1.3.2 release

  ==> Input File <==

--------------------------------------------------------------------------
#psi4
#
memory 32 gb

molecule  {
0 1
  O        1.0823540    -0.5566580    -0.2632920
  O       -1.0823250    -0.5564370    -0.2635130
  O        0.0000290     0.8790020     1.1568390
  C        2.3645980    -0.0472600     0.2117580
  C       -2.3645710    -0.0472670     0.2117220
  C        3.3580870    -1.1527530    -0.0787140
  C        2.6794210     1.2541120    -0.5011060
  C       -2.6796530     1.2540600    -0.5011170
  C       -3.3579470    -1.1529030    -0.0785870
  C       -0.1608975    -0.0713115     0.2131044
  H        2.2751950     0.1248800     1.2880410
  H       -2.2750520     0.1249260     1.2879850
  H        4.3537060    -0.8600380     0.2666930
  H        3.0667940    -2.0744370     0.4299490
  H        3.4032550    -1.3462360    -1.1536500
  H        3.6582030     1.6290460    -0.1867860
  H        1.9279580     2.0093320    -0.2633690
  H        2.6983220     1.0899770    -1.5821290
  H       -3.6584150     1.6289180    -0.1866510
  H       -1.9282070     2.0093390    -0.2634970
  H       -2.6986940     1.0899190    -1.5821360
  H       -4.3535640    -0.8602980     0.2669170
  H       -3.0664820    -2.0745270     0.4300870
  H       -3.4032180    -1.3464490    -1.1535090
units angstrom
no_reorient  #important for SAPT in psi4, default
symmetry c1  #important for SAPT in psi4, default
}

set PROPERTIES_ORIGIN ["COM"]
properties('MP2/aug-cc-pvtz', properties = ['dipole'])
--------------------------------------------------------------------------

    Molecular point group: c1
  Charge       = 0
  Multiplicity = 1
  Basis Set: AUG-CC-PVTZ
    Blend: AUG-CC-PVTZ
  Basis Set: (AUG-CC-PVTZ AUX)
    Blend: AUG-CC-PVTZ-JKFIT

    Orbital Energies [Eh]
    ---------------------

    Doubly Occupied:

       1A    -20.653269     2A    -20.571498     3A    -20.504596
       4A    -11.428368     5A    -11.324004     6A    -11.278154
       7A    -11.240967     8A    -11.235663     9A    -11.210291
      10A    -11.203785    11A     -1.584467    12A     -1.376244
      13A     -1.264281    14A     -1.114302    15A     -1.046252
      16A     -0.966609    17A     -0.931990    18A     -0.912688
      19A     -0.808580    20A     -0.802630    21A     -0.736686
      22A     -0.722699    23A     -0.689186    24A     -0.633908
      25A     -0.622349    26A     -0.606967    27A     -0.581498
      28A     -0.574384    29A     -0.569347    30A     -0.560549
      31A     -0.535842    32A     -0.529619    33A     -0.522016
      34A     -0.512178    35A     -0.510279    36A     -0.500339
      37A     -0.468272    38A     -0.450282    39A     -0.423474
      40A     -0.417639

  @DF-RHF Final Energy:  -497.97263793692048

   => Energetics <=

    Nuclear Repulsion Energy =            577.8005857388071718
    One-Electron Energy =               -1826.2941484276898336
    Two-Electron Energy =                 750.5209247519622977
    Total Energy =                       -497.9726379369204778
  Basis Set: (AUG-CC-PVTZ AUX)
    Blend: AUG-CC-PVTZ-RI
    Molecular point group: c1

    Geometry (in Angstrom), charge = 0, multiplicity = 1:

       Center              X                  Y                   Z               Mass
    ------------   -----------------  -----------------  -----------------  -----------------
         O            1.095570278303    -0.541935584132    -0.272746261620    15.994914619570
         O           -1.069108721697    -0.541714584132    -0.272967261620    15.994914619570
         O            0.013245278303     0.893724415868     1.147384738380    15.994914619570
         C            2.377814278303    -0.032537584132     0.202303738380    12.000000000000
         C           -2.351354721697    -0.032544584132     0.202267738380    12.000000000000
         C            3.371303278303    -1.138030584132    -0.088168261620    12.000000000000
         C            2.692637278303     1.268834415868    -0.510560261620    12.000000000000
         C           -2.666436721697     1.268782415868    -0.510571261620    12.000000000000
         C           -3.344730721697    -1.138180584132    -0.088041261620    12.000000000000
         C           -0.147681221697    -0.056589084132     0.203650138380    12.000000000000
         H            2.288411278303     0.139602415868     1.278586738380     1.007825032230
         H           -2.261835721697     0.139648415868     1.278530738380     1.007825032230
         H            4.366922278303    -0.845315584132     0.257238738380     1.007825032230
         H            3.080010278303    -2.059714584132     0.420494738380     1.007825032230
         H            3.416471278303    -1.331513584132    -1.163104261620     1.007825032230
         H            3.671419278303     1.643768415868    -0.196240261620     1.007825032230
         H            1.941174278303     2.024054415868    -0.272823261620     1.007825032230
         H            2.711538278303     1.104699415868    -1.591583261620     1.007825032230
         H           -3.645198721697     1.643640415868    -0.196105261620     1.007825032230
         H           -1.914990721697     2.024061415868    -0.272951261620     1.007825032230
         H           -2.685477721697     1.104641415868    -1.591590261620     1.007825032230
         H           -4.340347721697    -0.845575584132     0.257462738380     1.007825032230
         H           -3.053265721697    -2.059804584132     0.420632738380     1.007825032230
         H           -3.390001721697    -1.331726584132    -1.162963261620     1.007825032230

  Basis Set: AUG-CC-PVTZ
    Blend: AUG-CC-PVTZ
  Basis Set: (AUG-CC-PVTZ AUX)
    Blend: AUG-CC-PVTZ-JKFIT
	 Reference Energy          =    -497.9726379369204778 [Eh]
	 Singles Energy            =      -0.0000000000000000 [Eh]
	 Same-Spin Energy          =      -0.4950319993708959 [Eh]
	 Opposite-Spin Energy      =      -1.6256632444560493 [Eh]
	 Correlation Energy        =      -2.1206952438269453 [Eh]
	 Total Energy              =    -500.0933331807474360 [Eh]

	 ================> DF-SCS-MP2 Energies <==================
	-----------------------------------------------------------
	 SCS Same-Spin Scale       =       0.3333333333333333 [-]
	 SCS Opposite-Spin Scale   =       1.2000000000000000 [-]
	 SCS Same-Spin Energy      =      -0.1650106664569653 [Eh]
	 SCS Opposite-Spin Energy  =      -1.9507958933472591 [Eh]
	 SCS Correlation Energy    =      -2.1158065598042244 [Eh]
	 SCS Total Energy          =    -500.0884444967247191 [Eh]
	-----------------------------------------------------------

  Dipole Moment: [D]
     X:    -2.3147      Y:    -0.7250      Z:    -0.9631     Total:     2.6098

*** Psi4 exiting successfully. Buy a developer a beer!
