                               Psi4 1.4a3.dev225

  ==> Input File <==

--------------------------------------------------------------------------
#psi4
#
memory 32 gb

molecule  {
0 1
  O        1.0823660    -0.5568910    -0.2629560
  O       -1.0823640    -0.5568750    -0.2629780
  O       -0.0000050     0.8796030     1.1562750
  C        2.3645860    -0.0472710     0.2118040
  C       -2.3645830    -0.0472720     0.2117990
  C        3.3581450    -1.1527440    -0.0787380
  C        2.6794270     1.2540320    -0.5011890
  C       -2.6794360     1.2540300    -0.5011890
  C       -3.3581360    -1.1527540    -0.0787300
  C       -0.0000011     0.0276175     0.3104636
  H        2.2753340     0.1249760     1.2880770
  H       -2.2753170     0.1249770     1.2880710
  H        4.3539520    -0.8597410     0.2658680
  H        3.0673460    -2.0742840     0.4304720
  H        3.4026140    -1.3466350    -1.1536290
  H        3.6579950     1.6291330    -0.1863970
  H        1.9277540     2.0091980    -0.2639900
  H        2.6989690     1.0896910    -1.5821710
  H       -3.6580010     1.6291290    -0.1863860
  H       -1.9277600     2.0091950    -0.2639970
  H       -2.6989890     1.0896910    -1.5821710
  H       -4.3539420    -0.8597570     0.2658840
  H       -3.0673260    -2.0742900     0.4304790
  H       -3.4026140    -1.3466480    -1.1536200
units angstrom
no_reorient  #important for SAPT in psi4, default
symmetry c1  #important for SAPT in psi4, default
}

set PROPERTIES_ORIGIN ["COM"]
properties('MP2/aug-cc-pvtz', properties = ['dipole'])
--------------------------------------------------------------------------

    Molecular point group: c1
  Charge       = 0
  Multiplicity = 1
  Basis Set: AUG-CC-PVTZ
    Blend: AUG-CC-PVTZ
  Basis Set: (AUG-CC-PVTZ AUX)
    Blend: AUG-CC-PVTZ-JKFIT

    Orbital Energies [Eh]
    ---------------------

    Doubly Occupied:

       1A    -20.598723     2A    -20.598698     3A    -20.547110
       4A    -11.427153     5A    -11.292634     6A    -11.292632
       7A    -11.220989     8A    -11.220989     9A    -11.218359
      10A    -11.218359    11A     -1.491072    12A     -1.383735
      13A     -1.366607    14A     -1.079729    15A     -1.052655
      16A     -0.946055    17A     -0.945858    18A     -0.873221
      19A     -0.799148    20A     -0.768976    21A     -0.744023
      22A     -0.697743    23A     -0.675089    24A     -0.631754
      25A     -0.625432    26A     -0.614182    27A     -0.584031
      28A     -0.574371    29A     -0.558498    30A     -0.548107
      31A     -0.547802    32A     -0.534866    33A     -0.524116
      34A     -0.515842    35A     -0.508406    36A     -0.491232
      37A     -0.485746    38A     -0.470476    39A     -0.460134
      40A     -0.451404

  @DF-RHF Final Energy:  -498.03858983105164

   => Energetics <=

    Nuclear Repulsion Energy =            577.2777541398590984
    One-Electron Energy =               -1825.4607790105262666
    Two-Electron Energy =                 750.1444350396154732
    Total Energy =                       -498.0385898310516950
  Basis Set: (AUG-CC-PVTZ AUX)
    Blend: AUG-CC-PVTZ-RI
    Molecular point group: c1

    Geometry (in Angstrom), charge = 0, multiplicity = 1:

       Center              X                  Y                   Z               Mass
    ------------   -----------------  -----------------  -----------------  -----------------
         O            1.082366068910    -0.550291403549    -0.280414451372    15.994914619570
         O           -1.082363931090    -0.550275403549    -0.280436451372    15.994914619570
         O           -0.000004931090     0.886202596451     1.138816548628    15.994914619570
         C            2.364586068910    -0.040671403549     0.194345548628    12.000000000000
         C           -2.364582931090    -0.040672403549     0.194340548628    12.000000000000
         C            3.358145068910    -1.146144403549    -0.096196451372    12.000000000000
         C            2.679427068910     1.260631596451    -0.518647451372    12.000000000000
         C           -2.679435931090     1.260629596451    -0.518647451372    12.000000000000
         C           -3.358135931090    -1.146154403549    -0.096188451372    12.000000000000
         C           -0.000001031090     0.034217096451     0.293005148628    12.000000000000
         H            2.275334068910     0.131575596451     1.270618548628     1.007825032230
         H           -2.275316931090     0.131576596451     1.270612548628     1.007825032230
         H            4.353952068910    -0.853141403549     0.248409548628     1.007825032230
         H            3.067346068910    -2.067684403549     0.413013548628     1.007825032230
         H            3.402614068910    -1.340035403549    -1.171087451372     1.007825032230
         H            3.657995068910     1.635732596451    -0.203855451372     1.007825032230
         H            1.927754068910     2.015797596451    -0.281448451372     1.007825032230
         H            2.698969068910     1.096290596451    -1.599629451372     1.007825032230
         H           -3.658000931090     1.635728596451    -0.203844451372     1.007825032230
         H           -1.927759931090     2.015794596451    -0.281455451372     1.007825032230
         H           -2.698988931090     1.096290596451    -1.599629451372     1.007825032230
         H           -4.353941931090    -0.853157403549     0.248425548628     1.007825032230
         H           -3.067325931090    -2.067690403549     0.413020548628     1.007825032230
         H           -3.402613931090    -1.340048403549    -1.171078451372     1.007825032230

  Basis Set: AUG-CC-PVTZ
    Blend: AUG-CC-PVTZ
  Basis Set: (AUG-CC-PVTZ AUX)
    Blend: AUG-CC-PVTZ-JKFIT
	 Reference Energy          =    -498.0385898310516382 [Eh]
	 Singles Energy            =      -0.0000000000000000 [Eh]
	 Same-Spin Energy          =      -0.4942834571470788 [Eh]
	 Opposite-Spin Energy      =      -1.6249810073795619 [Eh]
	 Correlation Energy        =      -2.1192644645266405 [Eh]
	 Total Energy              =    -500.1578542955782609 [Eh]

	 ================> DF-SCS-MP2 Energies <==================
	-----------------------------------------------------------
	 SCS Same-Spin Scale       =       0.3333333333333333 [-]
	 SCS Opposite-Spin Scale   =       1.2000000000000000 [-]
	 SCS Same-Spin Energy      =      -0.1647611523823596 [Eh]
	 SCS Opposite-Spin Energy  =      -1.9499772088554741 [Eh]
	 SCS Correlation Energy    =      -2.1147383612378339 [Eh]
	 SCS Total Energy          =    -500.1533281922894503 [Eh]
	-----------------------------------------------------------

  Dipole Moment: [D]
     X:     0.0000      Y:    -0.0127      Z:    -0.1822     Total:     0.1826

*** Psi4 exiting successfully. Buy a developer a beer!
