                               Psi4 1.3.2 release

  ==> Input File <==

--------------------------------------------------------------------------
#psi4
#
memory 32 gb

molecule  {
0 1
  O        1.0823540    -0.5566580    -0.2632920
  O       -1.0942046    -0.6352969    -0.2001606
  O        0.0000290     0.8790020     1.1568390
  C        2.3645980    -0.0472600     0.2117580
  C       -2.3645710    -0.0472670     0.2117220
  C        3.3580870    -1.1527530    -0.0787140
  C        2.6794210     1.2541120    -0.5011060
  C       -2.6796530     1.2540600    -0.5011170
  C       -3.3579470    -1.1529030    -0.0785870
  C        0.0000190     0.0134100     0.2963400
  H        2.2751950     0.1248800     1.2880410
  H       -2.2750520     0.1249260     1.2879850
  H        4.3537060    -0.8600380     0.2666930
  H        3.0667940    -2.0744370     0.4299490
  H        3.4032550    -1.3462360    -1.1536500
  H        3.6582030     1.6290460    -0.1867860
  H        1.9279580     2.0093320    -0.2633690
  H        2.6983220     1.0899770    -1.5821290
  H       -3.6584150     1.6289180    -0.1866510
  H       -1.9282070     2.0093390    -0.2634970
  H       -2.6986940     1.0899190    -1.5821360
  H       -4.3535640    -0.8602980     0.2669170
  H       -3.0664820    -2.0745270     0.4300870
  H       -3.4032180    -1.3464490    -1.1535090
units angstrom
no_reorient  #important for SAPT in psi4, default
symmetry c1  #important for SAPT in psi4, default
}

set PROPERTIES_ORIGIN ["COM"]
properties('MP2/aug-cc-pvtz', properties = ['dipole'])
--------------------------------------------------------------------------

    Molecular point group: c1
  Charge       = 0
  Multiplicity = 1
  Basis Set: AUG-CC-PVTZ
    Blend: AUG-CC-PVTZ
  Basis Set: (AUG-CC-PVTZ AUX)
    Blend: AUG-CC-PVTZ-JKFIT

    Orbital Energies [Eh]
    ---------------------

    Doubly Occupied:

       1A    -20.602812     2A    -20.600532     3A    -20.544682
       4A    -11.430247     5A    -11.294783     6A    -11.291879
       7A    -11.222277     8A    -11.220375     9A    -11.219347
      10A    -11.219139    11A     -1.488513    12A     -1.386844
      13A     -1.355646    14A     -1.080601    15A     -1.053664
      16A     -0.947179    17A     -0.946493    18A     -0.874720
      19A     -0.800588    20A     -0.768728    21A     -0.742499
      22A     -0.695162    23A     -0.673855    24A     -0.634413
      25A     -0.624620    26A     -0.615466    27A     -0.582396
      28A     -0.573333    29A     -0.557547    30A     -0.549275
      31A     -0.547301    32A     -0.535733    33A     -0.524848
      34A     -0.517701    35A     -0.505531    36A     -0.491088
      37A     -0.485116    38A     -0.468744    39A     -0.458495
      40A     -0.452671

  @DF-RHF Final Energy:  -498.03549630894781

   => Energetics <=

    Nuclear Repulsion Energy =            576.5451536693359458
    One-Electron Energy =               -1823.9916104966619059
    Two-Electron Energy =                 749.4109605183782605
    Total Energy =                       -498.0354963089478133
  Basis Set: (AUG-CC-PVTZ AUX)
    Blend: AUG-CC-PVTZ-RI
    Molecular point group: c1

    Geometry (in Angstrom), charge = 0, multiplicity = 1:

       Center              X                  Y                   Z               Mass
    ------------   -----------------  -----------------  -----------------  -----------------
         O            1.083653421314    -0.540260642831    -0.286519170675    15.994914619570
         O           -1.092905178686    -0.618899542831    -0.223387770675    15.994914619570
         O            0.001328421314     0.895399357169     1.133611829325    15.994914619570
         C            2.365897421314    -0.030862642831     0.188530829325    12.000000000000
         C           -2.363271578686    -0.030869642831     0.188494829325    12.000000000000
         C            3.359386421314    -1.136355642831    -0.101941170675    12.000000000000
         C            2.680720421314     1.270509357169    -0.524333170675    12.000000000000
         C           -2.678353578686     1.270457357169    -0.524344170675    12.000000000000
         C           -3.356647578686    -1.136505642831    -0.101814170675    12.000000000000
         C            0.001318421314     0.029807357169     0.273112829325    12.000000000000
         H            2.276494421314     0.141277357169     1.264813829325     1.007825032230
         H           -2.273752578686     0.141323357169     1.264757829325     1.007825032230
         H            4.355005421314    -0.843640642831     0.243465829325     1.007825032230
         H            3.068093421314    -2.058039642831     0.406721829325     1.007825032230
         H            3.404554421314    -1.329838642831    -1.176877170675     1.007825032230
         H            3.659502421314     1.645443357169    -0.210013170675     1.007825032230
         H            1.929257421314     2.025729357169    -0.286596170675     1.007825032230
         H            2.699621421314     1.106374357169    -1.605356170675     1.007825032230
         H           -3.657115578686     1.645315357169    -0.209878170675     1.007825032230
         H           -1.926907578686     2.025736357169    -0.286724170675     1.007825032230
         H           -2.697394578686     1.106316357169    -1.605363170675     1.007825032230
         H           -4.352264578686    -0.843900642831     0.243689829325     1.007825032230
         H           -3.065182578686    -2.058129642831     0.406859829325     1.007825032230
         H           -3.401918578686    -1.330051642831    -1.176736170675     1.007825032230

  Basis Set: AUG-CC-PVTZ
    Blend: AUG-CC-PVTZ
  Basis Set: (AUG-CC-PVTZ AUX)
    Blend: AUG-CC-PVTZ-JKFIT
	 Reference Energy          =    -498.0354963089478133 [Eh]
	 Singles Energy            =      -0.0000000000000000 [Eh]
	 Same-Spin Energy          =      -0.4947348542582970 [Eh]
	 Opposite-Spin Energy      =      -1.6259334645206018 [Eh]
	 Correlation Energy        =      -2.1206683187788986 [Eh]
	 Total Energy              =    -500.1561646277266959 [Eh]

	 ================> DF-SCS-MP2 Energies <==================
	-----------------------------------------------------------
	 SCS Same-Spin Scale       =       0.3333333333333333 [-]
	 SCS Opposite-Spin Scale   =       1.2000000000000000 [-]
	 SCS Same-Spin Energy      =      -0.1649116180860990 [Eh]
	 SCS Opposite-Spin Energy  =      -1.9511201574247221 [Eh]
	 SCS Correlation Energy    =      -2.1160317755108213 [Eh]
	 SCS Total Energy          =    -500.1515280844586187 [Eh]
	-----------------------------------------------------------

  Dipole Moment: [D]
     X:     0.1500      Y:     0.0416      Z:    -0.3408     Total:     0.3747

*** Psi4 exiting successfully. Buy a developer a beer!
