                               Psi4 1.3.2 release

  ==> Input File <==

--------------------------------------------------------------------------
#psi4
#
memory 32 gb

molecule  {
0 1
  O        1.0823540    -0.5566580    -0.2632920
  O       -1.1451488    -0.5618983    -0.4026242
  O        0.0000290     0.8790020     1.1568390
  C        2.3645980    -0.0472600     0.2117580
  C       -2.3645710    -0.0472670     0.2117220
  C        3.3580870    -1.1527530    -0.0787140
  C        2.6794210     1.2541120    -0.5011060
  C       -2.6796530     1.2540600    -0.5011170
  C       -3.3579470    -1.1529030    -0.0785870
  C        0.0000190     0.0134100     0.2963400
  H        2.2751950     0.1248800     1.2880410
  H       -2.2750520     0.1249260     1.2879850
  H        4.3537060    -0.8600380     0.2666930
  H        3.0667940    -2.0744370     0.4299490
  H        3.4032550    -1.3462360    -1.1536500
  H        3.6582030     1.6290460    -0.1867860
  H        1.9279580     2.0093320    -0.2633690
  H        2.6983220     1.0899770    -1.5821290
  H       -3.6584150     1.6289180    -0.1866510
  H       -1.9282070     2.0093390    -0.2634970
  H       -2.6986940     1.0899190    -1.5821360
  H       -4.3535640    -0.8602980     0.2669170
  H       -3.0664820    -2.0745270     0.4300870
  H       -3.4032180    -1.3464490    -1.1535090
units angstrom
no_reorient  #important for SAPT in psi4, default
symmetry c1  #important for SAPT in psi4, default
}

set PROPERTIES_ORIGIN ["COM"]
properties('MP2/aug-cc-pvtz', properties = ['dipole'])
--------------------------------------------------------------------------

    Molecular point group: c1
  Charge       = 0
  Multiplicity = 1
  Basis Set: AUG-CC-PVTZ
    Blend: AUG-CC-PVTZ
  Basis Set: (AUG-CC-PVTZ AUX)
    Blend: AUG-CC-PVTZ-JKFIT

    Orbital Energies [Eh]
    ---------------------

    Doubly Occupied:

       1A    -20.609194     2A    -20.599873     3A    -20.560047
       4A    -11.442006     5A    -11.298336     6A    -11.285854
       7A    -11.224693     8A    -11.222142     9A    -11.215302
      10A    -11.212539    11A     -1.479840    12A     -1.377706
      13A     -1.359337    14A     -1.078326    15A     -1.047179
      16A     -0.949832    17A     -0.941206    18A     -0.867668
      19A     -0.796076    20A     -0.774549    21A     -0.734987
      22A     -0.697267    23A     -0.670183    24A     -0.629725
      25A     -0.625751    26A     -0.610773    27A     -0.583604
      28A     -0.573051    29A     -0.558645    30A     -0.550674
      31A     -0.544684    32A     -0.534482    33A     -0.520580
      34A     -0.516344    35A     -0.509028    36A     -0.492295
      37A     -0.486148    38A     -0.471484    39A     -0.461832
      40A     -0.449321

  @DF-RHF Final Energy:  -498.01714719635152

   => Energetics <=

    Nuclear Repulsion Energy =            574.6769429275368566
    One-Electron Energy =               -1820.2630561040762132
    Two-Electron Energy =                 747.5689659801878406
    Total Energy =                       -498.0171471963515160
  Basis Set: (AUG-CC-PVTZ AUX)
    Blend: AUG-CC-PVTZ-RI
    Molecular point group: c1

    Geometry (in Angstrom), charge = 0, multiplicity = 1:

       Center              X                  Y                   Z               Mass
    ------------   -----------------  -----------------  -----------------  -----------------
         O            1.089230970617    -0.548296578428    -0.264352747196    15.994914619570
         O           -1.138271829383    -0.553536878428    -0.403684947196    15.994914619570
         O            0.006905970617     0.887363421572     1.155778252804    15.994914619570
         C            2.371474970617    -0.038898578428     0.210697252804    12.000000000000
         C           -2.357694029383    -0.038905578428     0.210661252804    12.000000000000
         C            3.364963970617    -1.144391578428    -0.079774747196    12.000000000000
         C            2.686297970617     1.262473421572    -0.502166747196    12.000000000000
         C           -2.672776029383     1.262421421572    -0.502177747196    12.000000000000
         C           -3.351070029383    -1.144541578428    -0.079647747196    12.000000000000
         C            0.006895970617     0.021771421572     0.295279252804    12.000000000000
         H            2.282071970617     0.133241421572     1.286980252804     1.007825032230
         H           -2.268175029383     0.133287421572     1.286924252804     1.007825032230
         H            4.360582970617    -0.851676578428     0.265632252804     1.007825032230
         H            3.073670970617    -2.066075578428     0.428888252804     1.007825032230
         H            3.410131970617    -1.337874578428    -1.154710747196     1.007825032230
         H            3.665079970617     1.637407421572    -0.187846747196     1.007825032230
         H            1.934834970617     2.017693421572    -0.264429747196     1.007825032230
         H            2.705198970617     1.098338421572    -1.583189747196     1.007825032230
         H           -3.651538029383     1.637279421572    -0.187711747196     1.007825032230
         H           -1.921330029383     2.017700421572    -0.264557747196     1.007825032230
         H           -2.691817029383     1.098280421572    -1.583196747196     1.007825032230
         H           -4.346687029383    -0.851936578428     0.265856252804     1.007825032230
         H           -3.059605029383    -2.066165578428     0.429026252804     1.007825032230
         H           -3.396341029383    -1.338087578428    -1.154569747196     1.007825032230

  Basis Set: AUG-CC-PVTZ
    Blend: AUG-CC-PVTZ
  Basis Set: (AUG-CC-PVTZ AUX)
    Blend: AUG-CC-PVTZ-JKFIT
	 Reference Energy          =    -498.0171471963515160 [Eh]
	 Singles Energy            =      -0.0000000000000000 [Eh]
	 Same-Spin Energy          =      -0.4967539809870421 [Eh]
	 Opposite-Spin Energy      =      -1.6314964888266767 [Eh]
	 Correlation Energy        =      -2.1282504698137190 [Eh]
	 Total Energy              =    -500.1453976661652518 [Eh]

	 ================> DF-SCS-MP2 Energies <==================
	-----------------------------------------------------------
	 SCS Same-Spin Scale       =       0.3333333333333333 [-]
	 SCS Opposite-Spin Scale   =       1.2000000000000000 [-]
	 SCS Same-Spin Energy      =      -0.1655846603290140 [Eh]
	 SCS Opposite-Spin Energy  =      -1.9577957865920119 [Eh]
	 SCS Correlation Energy    =      -2.1233804469210260 [Eh]
	 SCS Total Energy          =    -500.1405276432725486 [Eh]
	-----------------------------------------------------------

  Dipole Moment: [D]
     X:     0.7399      Y:     0.0329      Z:     0.0477     Total:     0.7422

*** Psi4 exiting successfully. Buy a developer a beer!
