                               Psi4 1.3.2 release

  ==> Input File <==

--------------------------------------------------------------------------
#psi4
#
memory 32 gb

molecule  {
0 1
  O        1.0823540    -0.5566580    -0.2632920
  O       -1.0823250    -0.5564370    -0.2635130
  O        0.0000290     0.8790020     1.1568390
  C        2.3645980    -0.0472600     0.2117580
  C       -2.3394861    -0.0154509     0.2425871
  C        3.3580870    -1.1527530    -0.0787140
  C        2.6794210     1.2541120    -0.5011060
  C       -2.6796530     1.2540600    -0.5011170
  C       -3.3579470    -1.1529030    -0.0785870
  C        0.0000190     0.0134100     0.2963400
  H        2.2751950     0.1248800     1.2880410
  H       -2.2750520     0.1249260     1.2879850
  H        4.3537060    -0.8600380     0.2666930
  H        3.0667940    -2.0744370     0.4299490
  H        3.4032550    -1.3462360    -1.1536500
  H        3.6582030     1.6290460    -0.1867860
  H        1.9279580     2.0093320    -0.2633690
  H        2.6983220     1.0899770    -1.5821290
  H       -3.6584150     1.6289180    -0.1866510
  H       -1.9282070     2.0093390    -0.2634970
  H       -2.6986940     1.0899190    -1.5821360
  H       -4.3535640    -0.8602980     0.2669170
  H       -3.0664820    -2.0745270     0.4300870
  H       -3.4032180    -1.3464490    -1.1535090
units angstrom
no_reorient  #important for SAPT in psi4, default
symmetry c1  #important for SAPT in psi4, default
}

set PROPERTIES_ORIGIN ["COM"]
properties('MP2/aug-cc-pvtz', properties = ['dipole'])
--------------------------------------------------------------------------

    Molecular point group: c1
  Charge       = 0
  Multiplicity = 1
  Basis Set: AUG-CC-PVTZ
    Blend: AUG-CC-PVTZ
  Basis Set: (AUG-CC-PVTZ AUX)
    Blend: AUG-CC-PVTZ-JKFIT

    Orbital Energies [Eh]
    ---------------------

    Doubly Occupied:

       1A    -20.602986     2A    -20.601200     3A    -20.542077
       4A    -11.427959     5A    -11.293964     6A    -11.292396
       7A    -11.221795     8A    -11.221711     9A    -11.218731
      10A    -11.218355    11A     -1.493244    12A     -1.390277
      13A     -1.355147    14A     -1.079762    15A     -1.051630
      16A     -0.946578    17A     -0.942466    18A     -0.876020
      19A     -0.804523    20A     -0.772838    21A     -0.746366
      22A     -0.697208    23A     -0.675116    24A     -0.633129
      25A     -0.622916    26A     -0.613404    27A     -0.581592
      28A     -0.574734    29A     -0.556973    30A     -0.548885
      31A     -0.547680    32A     -0.534940    33A     -0.525736
      34A     -0.517956    35A     -0.505838    36A     -0.489849
      37A     -0.486441    38A     -0.470488    39A     -0.456005
      40A     -0.452435

  @DF-RHF Final Energy:  -498.03623563278819

   => Energetics <=

    Nuclear Repulsion Energy =            577.3403643009413599
    One-Electron Energy =               -1825.5704964651417868
    Two-Electron Energy =                 750.1938965314120651
    Total Energy =                       -498.0362356327882480
  Basis Set: (AUG-CC-PVTZ AUX)
    Blend: AUG-CC-PVTZ-RI
    Molecular point group: c1

    Geometry (in Angstrom), charge = 0, multiplicity = 1:

       Center              X                  Y                   Z               Mass
    ------------   -----------------  -----------------  -----------------  -----------------
         O            1.080292359268    -0.551507834757    -0.282118348371    15.994914619570
         O           -1.084386640732    -0.551286834757    -0.282339348371    15.994914619570
         O           -0.002032640732     0.884152165243     1.138012651629    15.994914619570
         C            2.362536359268    -0.042109834757     0.192931651629    12.000000000000
         C           -2.341547740732    -0.010300734757     0.223760751629    12.000000000000
         C            3.356025359268    -1.147602834757    -0.097540348371    12.000000000000
         C            2.677359359268     1.259262165243    -0.519932348371    12.000000000000
         C           -2.681714640732     1.259210165243    -0.519943348371    12.000000000000
         C           -3.360008640732    -1.147752834757    -0.097413348371    12.000000000000
         C           -0.002042640732     0.018560165243     0.277513651629    12.000000000000
         H            2.273133359268     0.130030165243     1.269214651629     1.007825032230
         H           -2.277113640732     0.130076165243     1.269158651629     1.007825032230
         H            4.351644359268    -0.854887834757     0.247866651629     1.007825032230
         H            3.064732359268    -2.069286834757     0.411122651629     1.007825032230
         H            3.401193359268    -1.341085834757    -1.172476348371     1.007825032230
         H            3.656141359268     1.634196165243    -0.205612348371     1.007825032230
         H            1.925896359268     2.014482165243    -0.282195348371     1.007825032230
         H            2.696260359268     1.095127165243    -1.600955348371     1.007825032230
         H           -3.660476640732     1.634068165243    -0.205477348371     1.007825032230
         H           -1.930268640732     2.014489165243    -0.282323348371     1.007825032230
         H           -2.700755640732     1.095069165243    -1.600962348371     1.007825032230
         H           -4.355625640732    -0.855147834757     0.248090651629     1.007825032230
         H           -3.068543640732    -2.069376834757     0.411260651629     1.007825032230
         H           -3.405279640732    -1.341298834757    -1.172335348371     1.007825032230

  Basis Set: AUG-CC-PVTZ
    Blend: AUG-CC-PVTZ
  Basis Set: (AUG-CC-PVTZ AUX)
    Blend: AUG-CC-PVTZ-JKFIT
	 Reference Energy          =    -498.0362356327881912 [Eh]
	 Singles Energy            =      -0.0000000000000000 [Eh]
	 Same-Spin Energy          =      -0.4942428418918929 [Eh]
	 Opposite-Spin Energy      =      -1.6250585577388339 [Eh]
	 Correlation Energy        =      -2.1193013996307268 [Eh]
	 Total Energy              =    -500.1555370324189198 [Eh]

	 ================> DF-SCS-MP2 Energies <==================
	-----------------------------------------------------------
	 SCS Same-Spin Scale       =       0.3333333333333333 [-]
	 SCS Opposite-Spin Scale   =       1.2000000000000000 [-]
	 SCS Same-Spin Energy      =      -0.1647476139639643 [Eh]
	 SCS Opposite-Spin Energy  =      -1.9500702692866005 [Eh]
	 SCS Correlation Energy    =      -2.1148178832505646 [Eh]
	 SCS Total Energy          =    -500.1510535160387576 [Eh]
	-----------------------------------------------------------

  Dipole Moment: [D]
     X:     0.0746      Y:    -0.0603      Z:    -0.2668     Total:     0.2835

*** Psi4 exiting successfully. Buy a developer a beer!
