                               Psi4 1.3.2 release

  ==> Input File <==

--------------------------------------------------------------------------
#psi4
#
memory 32 gb

molecule  {
0 1
  O        1.0823540    -0.5566580    -0.2632920
  O       -1.0823250    -0.5564370    -0.2635130
  O        0.0000290     0.8790020     1.1568390
  C        2.3645980    -0.0472600     0.2117580
  C       -2.4524444    -0.0123732     0.2442902
  C        3.3580870    -1.1527530    -0.0787140
  C        2.6794210     1.2541120    -0.5011060
  C       -2.6796530     1.2540600    -0.5011170
  C       -3.3579470    -1.1529030    -0.0785870
  C        0.0000190     0.0134100     0.2963400
  H        2.2751950     0.1248800     1.2880410
  H       -2.2750520     0.1249260     1.2879850
  H        4.3537060    -0.8600380     0.2666930
  H        3.0667940    -2.0744370     0.4299490
  H        3.4032550    -1.3462360    -1.1536500
  H        3.6582030     1.6290460    -0.1867860
  H        1.9279580     2.0093320    -0.2633690
  H        2.6983220     1.0899770    -1.5821290
  H       -3.6584150     1.6289180    -0.1866510
  H       -1.9282070     2.0093390    -0.2634970
  H       -2.6986940     1.0899190    -1.5821360
  H       -4.3535640    -0.8602980     0.2669170
  H       -3.0664820    -2.0745270     0.4300870
  H       -3.4032180    -1.3464490    -1.1535090
units angstrom
no_reorient  #important for SAPT in psi4, default
symmetry c1  #important for SAPT in psi4, default
}

set PROPERTIES_ORIGIN ["COM"]
properties('MP2/aug-cc-pvtz', properties = ['dipole'])
--------------------------------------------------------------------------

    Molecular point group: c1
  Charge       = 0
  Multiplicity = 1
  Basis Set: AUG-CC-PVTZ
    Blend: AUG-CC-PVTZ
  Basis Set: (AUG-CC-PVTZ AUX)
    Blend: AUG-CC-PVTZ-JKFIT

    Orbital Energies [Eh]
    ---------------------

    Doubly Occupied:

       1A    -20.594989     2A    -20.585623     3A    -20.534351
       4A    -11.419202     5A    -11.299858     6A    -11.289937
       7A    -11.225957     8A    -11.222870     9A    -11.218898
      10A    -11.215765    11A     -1.478817    12A     -1.370090
      13A     -1.343065    14A     -1.086629    15A     -1.057405
      16A     -0.955441    17A     -0.943499    18A     -0.863573
      19A     -0.802118    20A     -0.766062    21A     -0.732893
      22A     -0.687550    23A     -0.666431    24A     -0.634878
      25A     -0.623036    26A     -0.614218    27A     -0.578321
      28A     -0.573959    29A     -0.560283    30A     -0.552054
      31A     -0.545199    32A     -0.530894    33A     -0.521837
      34A     -0.511633    35A     -0.502447    36A     -0.499281
      37A     -0.485573    38A     -0.463260    39A     -0.455178
      40A     -0.449826

  @DF-RHF Final Energy:  -498.03030751198565

   => Energetics <=

    Nuclear Repulsion Energy =            575.8805172609276042
    One-Electron Energy =               -1822.8958503382000345
    Two-Electron Energy =                 748.9850255652866053
    Total Energy =                       -498.0303075119857112
  Basis Set: (AUG-CC-PVTZ AUX)
    Blend: AUG-CC-PVTZ-RI
    Molecular point group: c1

    Geometry (in Angstrom), charge = 0, multiplicity = 1:

       Center              X                  Y                   Z               Mass
    ------------   -----------------  -----------------  -----------------  -----------------
         O            1.089570610732    -0.551760633131    -0.282258238844    15.994914619570
         O           -1.075108389268    -0.551539633131    -0.282479238844    15.994914619570
         O            0.007245610732     0.883899366869     1.137872761156    15.994914619570
         C            2.371814610732    -0.042362633131     0.192791761156    12.000000000000
         C           -2.445227789268    -0.007475833131     0.225323961156    12.000000000000
         C            3.365303610732    -1.147855633131    -0.097680238844    12.000000000000
         C            2.686637610732     1.259009366869    -0.520072238844    12.000000000000
         C           -2.672436389268     1.258957366869    -0.520083238844    12.000000000000
         C           -3.350730389268    -1.148005633131    -0.097553238844    12.000000000000
         C            0.007235610732     0.018307366869     0.277373761156    12.000000000000
         H            2.282411610732     0.129777366869     1.269074761156     1.007825032230
         H           -2.267835389268     0.129823366869     1.269018761156     1.007825032230
         H            4.360922610732    -0.855140633131     0.247726761156     1.007825032230
         H            3.074010610732    -2.069539633131     0.410982761156     1.007825032230
         H            3.410471610732    -1.341338633131    -1.172616238844     1.007825032230
         H            3.665419610732     1.633943366869    -0.205752238844     1.007825032230
         H            1.935174610732     2.014229366869    -0.282335238844     1.007825032230
         H            2.705538610732     1.094874366869    -1.601095238844     1.007825032230
         H           -3.651198389268     1.633815366869    -0.205617238844     1.007825032230
         H           -1.920990389268     2.014236366869    -0.282463238844     1.007825032230
         H           -2.691477389268     1.094816366869    -1.601102238844     1.007825032230
         H           -4.346347389268    -0.855400633131     0.247950761156     1.007825032230
         H           -3.059265389268    -2.069629633131     0.411120761156     1.007825032230
         H           -3.396001389268    -1.341551633131    -1.172475238844     1.007825032230

  Basis Set: AUG-CC-PVTZ
    Blend: AUG-CC-PVTZ
  Basis Set: (AUG-CC-PVTZ AUX)
    Blend: AUG-CC-PVTZ-JKFIT
	 Reference Energy          =    -498.0303075119856544 [Eh]
	 Singles Energy            =      -0.0000000000000000 [Eh]
	 Same-Spin Energy          =      -0.4949141633565635 [Eh]
	 Opposite-Spin Energy      =      -1.6262643957209773 [Eh]
	 Correlation Energy        =      -2.1211785590775407 [Eh]
	 Total Energy              =    -500.1514860710631751 [Eh]

	 ================> DF-SCS-MP2 Energies <==================
	-----------------------------------------------------------
	 SCS Same-Spin Scale       =       0.3333333333333333 [-]
	 SCS Opposite-Spin Scale   =       1.2000000000000000 [-]
	 SCS Same-Spin Energy      =      -0.1649713877855211 [Eh]
	 SCS Opposite-Spin Energy  =      -1.9515172748651726 [Eh]
	 SCS Correlation Energy    =      -2.1164886626506938 [Eh]
	 SCS Total Energy          =    -500.1467961746363358 [Eh]
	-----------------------------------------------------------

  Dipole Moment: [D]
     X:    -0.5105      Y:    -0.0580      Z:    -0.2931     Total:     0.5915

*** Psi4 exiting successfully. Buy a developer a beer!
