                               Psi4 1.3.2 release

  ==> Input File <==

--------------------------------------------------------------------------
#psi4
#
memory 32 gb

molecule  {
0 1
  O        0.9929220    -0.6342451    -0.3395067
  O       -1.0823250    -0.5564370    -0.2635130
  O        0.0000290     0.8790020     1.1568390
  C        2.3645980    -0.0472600     0.2117580
  C       -2.3645710    -0.0472670     0.2117220
  C        3.3580870    -1.1527530    -0.0787140
  C        2.6794210     1.2541120    -0.5011060
  C       -2.6796530     1.2540600    -0.5011170
  C       -3.3579470    -1.1529030    -0.0785870
  C        0.0000190     0.0134100     0.2963400
  H        2.2751950     0.1248800     1.2880410
  H       -2.2750520     0.1249260     1.2879850
  H        4.3537060    -0.8600380     0.2666930
  H        3.0667940    -2.0744370     0.4299490
  H        3.4032550    -1.3462360    -1.1536500
  H        3.6582030     1.6290460    -0.1867860
  H        1.9279580     2.0093320    -0.2633690
  H        2.6983220     1.0899770    -1.5821290
  H       -3.6584150     1.6289180    -0.1866510
  H       -1.9282070     2.0093390    -0.2634970
  H       -2.6986940     1.0899190    -1.5821360
  H       -4.3535640    -0.8602980     0.2669170
  H       -3.0664820    -2.0745270     0.4300870
  H       -3.4032180    -1.3464490    -1.1535090
units angstrom
no_reorient  #important for SAPT in psi4, default
symmetry c1  #important for SAPT in psi4, default
}

set PROPERTIES_ORIGIN ["COM"]
properties('MP2/aug-cc-pvtz', properties = ['dipole'])
--------------------------------------------------------------------------

    Molecular point group: c1
  Charge       = 0
  Multiplicity = 1
  Basis Set: AUG-CC-PVTZ
    Blend: AUG-CC-PVTZ
  Basis Set: (AUG-CC-PVTZ AUX)
    Blend: AUG-CC-PVTZ-JKFIT

    Orbital Energies [Eh]
    ---------------------

    Doubly Occupied:

       1A    -20.600230     2A    -20.589877     3A    -20.543704
       4A    -11.422595     5A    -11.307294     6A    -11.287146
       7A    -11.226347     8A    -11.225932     9A    -11.217509
      10A    -11.214992    11A     -1.484202    12A     -1.363236
      13A     -1.354407    14A     -1.079890    15A     -1.053897
      16A     -0.949940    17A     -0.942412    18A     -0.860643
      19A     -0.797463    20A     -0.767607    21A     -0.727198
      22A     -0.692715    23A     -0.670043    24A     -0.628605
      25A     -0.621499    26A     -0.609266    27A     -0.584925
      28A     -0.572948    29A     -0.558884    30A     -0.550876
      31A     -0.544609    32A     -0.535484    33A     -0.517318
      34A     -0.506661    35A     -0.501066    36A     -0.495793
      37A     -0.486149    38A     -0.467890    39A     -0.464094
      40A     -0.449186

  @DF-RHF Final Energy:  -498.02011895758363

   => Energetics <=

    Nuclear Repulsion Energy =            575.4108698538174167
    One-Electron Energy =               -1821.9129172172513336
    Two-Electron Energy =                 748.4819284058503399
    Total Energy =                       -498.0201189575836906
  Basis Set: (AUG-CC-PVTZ AUX)
    Blend: AUG-CC-PVTZ-RI
    Molecular point group: c1

    Geometry (in Angstrom), charge = 0, multiplicity = 1:

       Center              X                  Y                   Z               Mass
    ------------   -----------------  -----------------  -----------------  -----------------
         O            1.002712129472    -0.617987093429    -0.347453576131    15.994914619570
         O           -1.072534870528    -0.540178993429    -0.271459876131    15.994914619570
         O            0.009819129472     0.895260006571     1.148892123869    15.994914619570
         C            2.374388129472    -0.031001993429     0.203811123869    12.000000000000
         C           -2.354780870528    -0.031008993429     0.203775123869    12.000000000000
         C            3.367877129472    -1.136494993429    -0.086660876131    12.000000000000
         C            2.689211129472     1.270370006571    -0.509052876131    12.000000000000
         C           -2.669862870528     1.270318006571    -0.509063876131    12.000000000000
         C           -3.348156870528    -1.136644993429    -0.086533876131    12.000000000000
         C            0.009809129472     0.029668006571     0.288393123869    12.000000000000
         H            2.284985129472     0.141138006571     1.280094123869     1.007825032230
         H           -2.265261870528     0.141184006571     1.280038123869     1.007825032230
         H            4.363496129472    -0.843779993429     0.258746123869     1.007825032230
         H            3.076584129472    -2.058178993429     0.422002123869     1.007825032230
         H            3.413045129472    -1.329977993429    -1.161596876131     1.007825032230
         H            3.667993129472     1.645304006571    -0.194732876131     1.007825032230
         H            1.937748129472     2.025590006571    -0.271315876131     1.007825032230
         H            2.708112129472     1.106235006571    -1.590075876131     1.007825032230
         H           -3.648624870528     1.645176006571    -0.194597876131     1.007825032230
         H           -1.918416870528     2.025597006571    -0.271443876131     1.007825032230
         H           -2.688903870528     1.106177006571    -1.590082876131     1.007825032230
         H           -4.343773870528    -0.844039993429     0.258970123869     1.007825032230
         H           -3.056691870528    -2.058268993429     0.422140123869     1.007825032230
         H           -3.393427870528    -1.330190993429    -1.161455876131     1.007825032230

  Basis Set: AUG-CC-PVTZ
    Blend: AUG-CC-PVTZ
  Basis Set: (AUG-CC-PVTZ AUX)
    Blend: AUG-CC-PVTZ-JKFIT
	 Reference Energy          =    -498.0201189575836338 [Eh]
	 Singles Energy            =      -0.0000000000000000 [Eh]
	 Same-Spin Energy          =      -0.4958841057759347 [Eh]
	 Opposite-Spin Energy      =      -1.6296787061708975 [Eh]
	 Correlation Energy        =      -2.1255628119468319 [Eh]
	 Total Energy              =    -500.1456817695304835 [Eh]

	 ================> DF-SCS-MP2 Energies <==================
	-----------------------------------------------------------
	 SCS Same-Spin Scale       =       0.3333333333333333 [-]
	 SCS Opposite-Spin Scale   =       1.2000000000000000 [-]
	 SCS Same-Spin Energy      =      -0.1652947019253115 [Eh]
	 SCS Opposite-Spin Energy  =      -1.9556144474050769 [Eh]
	 SCS Correlation Energy    =      -2.1209091493303887 [Eh]
	 SCS Total Energy          =    -500.1410281069140069 [Eh]
	-----------------------------------------------------------

  Dipole Moment: [D]
     X:     0.5530      Y:     0.0559      Z:    -0.1754     Total:     0.5828

*** Psi4 exiting successfully. Buy a developer a beer!
