                               Psi4 1.3.2 release

  ==> Input File <==

--------------------------------------------------------------------------
#psi4
#
memory 32 gb

molecule  {
0 1
  O        1.0823540    -0.5566580    -0.2632920
  O       -1.0823250    -0.5564370    -0.2635130
  O        0.0000290     0.8790020     1.1568390
  C        2.3645980    -0.0472600     0.2117580
  C       -2.3645710    -0.0472670     0.2117220
  C        3.3580870    -1.1527530    -0.0787140
  C        2.6794210     1.2541120    -0.5011060
  C       -2.6796530     1.2540600    -0.5011170
  C       -3.3579470    -1.1529030    -0.0785870
  C        0.1609355     0.0981315     0.3795756
  H        2.2751950     0.1248800     1.2880410
  H       -2.2750520     0.1249260     1.2879850
  H        4.3537060    -0.8600380     0.2666930
  H        3.0667940    -2.0744370     0.4299490
  H        3.4032550    -1.3462360    -1.1536500
  H        3.6582030     1.6290460    -0.1867860
  H        1.9279580     2.0093320    -0.2633690
  H        2.6983220     1.0899770    -1.5821290
  H       -3.6584150     1.6289180    -0.1866510
  H       -1.9282070     2.0093390    -0.2634970
  H       -2.6986940     1.0899190    -1.5821360
  H       -4.3535640    -0.8602980     0.2669170
  H       -3.0664820    -2.0745270     0.4300870
  H       -3.4032180    -1.3464490    -1.1535090
units angstrom
no_reorient  #important for SAPT in psi4, default
symmetry c1  #important for SAPT in psi4, default
}

set PROPERTIES_ORIGIN ["COM"]
properties('MP2/aug-cc-pvtz', properties = ['dipole'])
--------------------------------------------------------------------------

    Molecular point group: c1
  Charge       = 0
  Multiplicity = 1
  Basis Set: AUG-CC-PVTZ
    Blend: AUG-CC-PVTZ
  Basis Set: (AUG-CC-PVTZ AUX)
    Blend: AUG-CC-PVTZ-JKFIT

    Orbital Energies [Eh]
    ---------------------

    Doubly Occupied:

       1A    -20.627253     2A    -20.578034     3A    -20.544324
       4A    -11.428490     5A    -11.308919     6A    -11.266369
       7A    -11.232750     8A    -11.232069     9A    -11.203712
      10A    -11.203327    11A     -1.528067    12A     -1.443824
      13A     -1.313792    14A     -1.086070    15A     -1.030811
      16A     -0.960522    17A     -0.928433    18A     -0.867468
      19A     -0.801909    20A     -0.773569    21A     -0.736430
      22A     -0.719527    23A     -0.696165    24A     -0.632019
      25A     -0.628992    26A     -0.598105    27A     -0.596671
      28A     -0.579962    29A     -0.561646    30A     -0.556505
      31A     -0.548625    32A     -0.533416    33A     -0.531147
      34A     -0.506123    35A     -0.499810    36A     -0.496537
      37A     -0.487136    38A     -0.480229    39A     -0.439025
      40A     -0.423568

  @DF-RHF Final Energy:  -497.99256131143630

   => Energetics <=

    Nuclear Repulsion Energy =            577.5070881169577888
    One-Electron Energy =               -1825.7765996552782326
    Two-Electron Energy =                 750.2769502268839688
    Total Energy =                       -497.9925613114363614
  Basis Set: (AUG-CC-PVTZ AUX)
    Blend: AUG-CC-PVTZ-RI
    Molecular point group: c1

    Geometry (in Angstrom), charge = 0, multiplicity = 1:

       Center              X                  Y                   Z               Mass
    ------------   -----------------  -----------------  -----------------  -----------------
         O            1.069135323959    -0.555853417197    -0.286419994804    15.994914619570
         O           -1.095543676041    -0.555632417197    -0.286640994804    15.994914619570
         O           -0.013189676041     0.879806582803     1.133711005196    15.994914619570
         C            2.351379323959    -0.046455417197     0.188630005196    12.000000000000
         C           -2.377789676041    -0.046462417197     0.188594005196    12.000000000000
         C            3.344868323959    -1.151948417197    -0.101841994804    12.000000000000
         C            2.666202323959     1.254916582803    -0.524233994804    12.000000000000
         C           -2.692871676041     1.254864582803    -0.524244994804    12.000000000000
         C           -3.371165676041    -1.152098417197    -0.101714994804    12.000000000000
         C            0.147716823959     0.098936082803     0.356447605196    12.000000000000
         H            2.261976323959     0.125684582803     1.264913005196     1.007825032230
         H           -2.288270676041     0.125730582803     1.264857005196     1.007825032230
         H            4.340487323959    -0.859233417197     0.243565005196     1.007825032230
         H            3.053575323959    -2.073632417197     0.406821005196     1.007825032230
         H            3.390036323959    -1.345431417197    -1.176777994804     1.007825032230
         H            3.644984323959     1.629850582803    -0.209913994804     1.007825032230
         H            1.914739323959     2.010136582803    -0.286496994804     1.007825032230
         H            2.685103323959     1.090781582803    -1.605256994804     1.007825032230
         H           -3.671633676041     1.629722582803    -0.209778994804     1.007825032230
         H           -1.941425676041     2.010143582803    -0.286624994804     1.007825032230
         H           -2.711912676041     1.090723582803    -1.605263994804     1.007825032230
         H           -4.366782676041    -0.859493417197     0.243789005196     1.007825032230
         H           -3.079700676041    -2.073722417197     0.406959005196     1.007825032230
         H           -3.416436676041    -1.345644417197    -1.176636994804     1.007825032230

  Basis Set: AUG-CC-PVTZ
    Blend: AUG-CC-PVTZ
  Basis Set: (AUG-CC-PVTZ AUX)
    Blend: AUG-CC-PVTZ-JKFIT
	 Reference Energy          =    -497.9925613114363045 [Eh]
	 Singles Energy            =      -0.0000000000000000 [Eh]
	 Same-Spin Energy          =      -0.4954787614720736 [Eh]
	 Opposite-Spin Energy      =      -1.6281806111242922 [Eh]
	 Correlation Energy        =      -2.1236593725963657 [Eh]
	 Total Energy              =    -500.1162206840326689 [Eh]

	 ================> DF-SCS-MP2 Energies <==================
	-----------------------------------------------------------
	 SCS Same-Spin Scale       =       0.3333333333333333 [-]
	 SCS Opposite-Spin Scale   =       1.2000000000000000 [-]
	 SCS Same-Spin Energy      =      -0.1651595871573578 [Eh]
	 SCS Opposite-Spin Energy  =      -1.9538167333491505 [Eh]
	 SCS Correlation Energy    =      -2.1189763205065084 [Eh]
	 SCS Total Energy          =    -500.1115376319428378 [Eh]
	-----------------------------------------------------------

  Dipole Moment: [D]
     X:     2.2100      Y:     0.5155      Z:     0.3647     Total:     2.2984

*** Psi4 exiting successfully. Buy a developer a beer!
