                               Psi4 1.3.2 release

  ==> Input File <==

--------------------------------------------------------------------------
#psi4
#
memory 32 gb

molecule  {
0 1
  O        1.0961306    -0.5432205    -0.2498434
  O       -1.0823250    -0.5564370    -0.2635130
  O        0.0000290     0.8790020     1.1568390
  C        2.3645980    -0.0472600     0.2117580
  C       -2.3645710    -0.0472670     0.2117220
  C        3.3580870    -1.1527530    -0.0787140
  C        2.6794210     1.2541120    -0.5011060
  C       -2.6796530     1.2540600    -0.5011170
  C       -3.3579470    -1.1529030    -0.0785870
  C        0.0000190     0.0134100     0.2963400
  H        2.2751950     0.1248800     1.2880410
  H       -2.2750520     0.1249260     1.2879850
  H        4.3537060    -0.8600380     0.2666930
  H        3.0667940    -2.0744370     0.4299490
  H        3.4032550    -1.3462360    -1.1536500
  H        3.6582030     1.6290460    -0.1867860
  H        1.9279580     2.0093320    -0.2633690
  H        2.6983220     1.0899770    -1.5821290
  H       -3.6584150     1.6289180    -0.1866510
  H       -1.9282070     2.0093390    -0.2634970
  H       -2.6986940     1.0899190    -1.5821360
  H       -4.3535640    -0.8602980     0.2669170
  H       -3.0664820    -2.0745270     0.4300870
  H       -3.4032180    -1.3464490    -1.1535090
units angstrom
no_reorient  #important for SAPT in psi4, default
symmetry c1  #important for SAPT in psi4, default
}

set PROPERTIES_ORIGIN ["COM"]
properties('MP2/aug-cc-pvtz', properties = ['dipole'])
--------------------------------------------------------------------------

    Molecular point group: c1
  Charge       = 0
  Multiplicity = 1
  Basis Set: AUG-CC-PVTZ
    Blend: AUG-CC-PVTZ
  Basis Set: (AUG-CC-PVTZ AUX)
    Blend: AUG-CC-PVTZ-JKFIT

    Orbital Energies [Eh]
    ---------------------

    Doubly Occupied:

       1A    -20.602744     2A    -20.600580     3A    -20.540836
       4A    -11.428944     5A    -11.294800     6A    -11.291606
       7A    -11.222292     8A    -11.220885     9A    -11.219068
      10A    -11.217269    11A     -1.493655    12A     -1.393725
      13A     -1.354288    14A     -1.082317    15A     -1.054212
      16A     -0.947002    17A     -0.945851    18A     -0.879743
      19A     -0.802450    20A     -0.769142    21A     -0.748471
      22A     -0.696125    23A     -0.674894    24A     -0.633780
      25A     -0.625516    26A     -0.616730    27A     -0.581276
      28A     -0.574846    29A     -0.558950    30A     -0.549067
      31A     -0.547753    32A     -0.534082    33A     -0.528091
      34A     -0.518008    35A     -0.506072    36A     -0.490075
      37A     -0.484891    38A     -0.468294    39A     -0.456294
      40A     -0.451104

  @DF-RHF Final Energy:  -498.03977993143690

   => Energetics <=

    Nuclear Repulsion Energy =            577.6199703729616886
    One-Electron Energy =               -1826.1080475691812808
    Two-Electron Energy =                 750.4482972647826955
    Total Energy =                       -498.0397799314368967
  Basis Set: (AUG-CC-PVTZ AUX)
    Blend: AUG-CC-PVTZ-RI
    Molecular point group: c1

    Geometry (in Angstrom), charge = 0, multiplicity = 1:

       Center              X                  Y                   Z               Mass
    ------------   -----------------  -----------------  -----------------  -----------------
         O            1.094621090750    -0.536928185191    -0.267606928005    15.994914619570
         O           -1.083834509250    -0.550144685191    -0.281276528005    15.994914619570
         O           -0.001480509250     0.885294314809     1.139075471995    15.994914619570
         C            2.363088490750    -0.040967685191     0.193994471995    12.000000000000
         C           -2.366080509250    -0.040974685191     0.193958471995    12.000000000000
         C            3.356577490750    -1.146460685191    -0.096477528005    12.000000000000
         C            2.677911490750     1.260404314809    -0.518869528005    12.000000000000
         C           -2.681162509250     1.260352314809    -0.518880528005    12.000000000000
         C           -3.359456509250    -1.146610685191    -0.096350528005    12.000000000000
         C           -0.001490509250     0.019702314809     0.278576471995    12.000000000000
         H            2.273685490750     0.131172314809     1.270277471995     1.007825032230
         H           -2.276561509250     0.131218314809     1.270221471995     1.007825032230
         H            4.352196490750    -0.853745685191     0.248929471995     1.007825032230
         H            3.065284490750    -2.068144685191     0.412185471995     1.007825032230
         H            3.401745490750    -1.339943685191    -1.171413528005     1.007825032230
         H            3.656693490750     1.635338314809    -0.204549528005     1.007825032230
         H            1.926448490750     2.015624314809    -0.281132528005     1.007825032230
         H            2.696812490750     1.096269314809    -1.599892528005     1.007825032230
         H           -3.659924509250     1.635210314809    -0.204414528005     1.007825032230
         H           -1.929716509250     2.015631314809    -0.281260528005     1.007825032230
         H           -2.700203509250     1.096211314809    -1.599899528005     1.007825032230
         H           -4.355073509250    -0.854005685191     0.249153471995     1.007825032230
         H           -3.067991509250    -2.068234685191     0.412323471995     1.007825032230
         H           -3.404727509250    -1.340156685191    -1.171272528005     1.007825032230

  Basis Set: AUG-CC-PVTZ
    Blend: AUG-CC-PVTZ
  Basis Set: (AUG-CC-PVTZ AUX)
    Blend: AUG-CC-PVTZ-JKFIT
	 Reference Energy          =    -498.0397799314368967 [Eh]
	 Singles Energy            =      -0.0000000000000000 [Eh]
	 Same-Spin Energy          =      -0.4941680109805791 [Eh]
	 Opposite-Spin Energy      =      -1.6242374971386448 [Eh]
	 Correlation Energy        =      -2.1184055081192241 [Eh]
	 Total Energy              =    -500.1581854395561209 [Eh]

	 ================> DF-SCS-MP2 Energies <==================
	-----------------------------------------------------------
	 SCS Same-Spin Scale       =       0.3333333333333333 [-]
	 SCS Opposite-Spin Scale   =       1.2000000000000000 [-]
	 SCS Same-Spin Energy      =      -0.1647226703268597 [Eh]
	 SCS Opposite-Spin Energy  =      -1.9490849965663737 [Eh]
	 SCS Correlation Energy    =      -2.1138076668932335 [Eh]
	 SCS Total Energy          =    -500.1535875983301480 [Eh]
	-----------------------------------------------------------

  Dipole Moment: [D]
     X:    -0.0955      Y:    -0.1453      Z:    -0.3132     Total:     0.3582

*** Psi4 exiting successfully. Buy a developer a beer!
