                               Psi4 1.4a3.dev225

  ==> Input File <==

--------------------------------------------------------------------------
#psi4
#
memory 32 gb

molecule  {
0 1
  O        1.0823660    -0.5568910    -0.2629560
  O       -1.0823640    -0.5568750    -0.2629780
  O       -0.0000050     0.8796030     1.1562750
  C        2.3645860    -0.0472710     0.2118040
  C       -2.4085194    -0.0298100     0.2280677
  C        3.3581450    -1.1527440    -0.0787380
  C        2.6794270     1.2540320    -0.5011890
  C       -2.6794360     1.2540300    -0.5011890
  C       -3.3581360    -1.1527540    -0.0787300
  C       -0.0000010     0.0134240     0.2963730
  H        2.2753340     0.1249760     1.2880770
  H       -2.2753170     0.1249770     1.2880710
  H        4.3539520    -0.8597410     0.2658680
  H        3.0673460    -2.0742840     0.4304720
  H        3.4026140    -1.3466350    -1.1536290
  H        3.6579950     1.6291330    -0.1863970
  H        1.9277540     2.0091980    -0.2639900
  H        2.6989690     1.0896910    -1.5821710
  H       -3.6580010     1.6291290    -0.1863860
  H       -1.9277600     2.0091950    -0.2639970
  H       -2.6989890     1.0896910    -1.5821710
  H       -4.3539420    -0.8597570     0.2658840
  H       -3.0673260    -2.0742900     0.4304790
  H       -3.4026140    -1.3466480    -1.1536200
units angstrom
no_reorient  #important for SAPT in psi4, default
symmetry c1  #important for SAPT in psi4, default
}

set PROPERTIES_ORIGIN ["COM"]
properties('MP2/aug-cc-pvtz', properties = ['dipole'])
--------------------------------------------------------------------------

    Molecular point group: c1
  Charge       = 0
  Multiplicity = 1
  Basis Set: AUG-CC-PVTZ
    Blend: AUG-CC-PVTZ
  Basis Set: (AUG-CC-PVTZ AUX)
    Blend: AUG-CC-PVTZ-JKFIT

    Orbital Energies [Eh]
    ---------------------

    Doubly Occupied:

       1A    -20.598043     2A    -20.593635     3A    -20.537830
       4A    -11.423635     5A    -11.296382     6A    -11.291902
       7A    -11.223635     8A    -11.220568     9A    -11.220295
      10A    -11.217164    11A     -1.484999    12A     -1.378984
      13A     -1.349164    14A     -1.083463    15A     -1.056487
      16A     -0.950791    17A     -0.944951    18A     -0.869712
      19A     -0.801083    20A     -0.767882    21A     -0.739410
      22A     -0.691431    23A     -0.670329    24A     -0.631952
      25A     -0.625041    26A     -0.614883    27A     -0.579633
      28A     -0.574010    29A     -0.559090    30A     -0.550825
      31A     -0.546805    32A     -0.532340    33A     -0.522242
      34A     -0.512325    35A     -0.507123    36A     -0.495392
      37A     -0.486685    38A     -0.466270    39A     -0.456614
      40A     -0.451757

  @DF-RHF Final Energy:  -498.03638148783648

   => Energetics <=

    Nuclear Repulsion Energy =            576.5712705795635884
    One-Electron Energy =               -1824.1657803444395540
    Two-Electron Energy =                 749.5581282770394864
    Total Energy =                       -498.0363814878364792
  Basis Set: (AUG-CC-PVTZ AUX)
    Blend: AUG-CC-PVTZ-RI
    Molecular point group: c1

    Geometry (in Angstrom), charge = 0, multiplicity = 1:

       Center              X                  Y                   Z               Mass
    ------------   -----------------  -----------------  -----------------  -----------------
         O            1.085974940855    -0.550559873992    -0.280593357743    15.994914619570
         O           -1.078755059145    -0.550543873992    -0.280615357743    15.994914619570
         O            0.003603940855     0.885934126008     1.138637642257    15.994914619570
         C            2.368194940855    -0.040939873992     0.194166642257    12.000000000000
         C           -2.404910459145    -0.023478873992     0.210430342257    12.000000000000
         C            3.361753940855    -1.146412873992    -0.096375357743    12.000000000000
         C            2.683035940855     1.260363126008    -0.518826357743    12.000000000000
         C           -2.675827059145     1.260361126008    -0.518826357743    12.000000000000
         C           -3.354527059145    -1.146422873992    -0.096367357743    12.000000000000
         C            0.003607940855     0.019755126008     0.278735642257    12.000000000000
         H            2.278942940855     0.131307126008     1.270439642257     1.007825032230
         H           -2.271708059145     0.131308126008     1.270433642257     1.007825032230
         H            4.357560940855    -0.853409873992     0.248230642257     1.007825032230
         H            3.070954940855    -2.067952873992     0.412834642257     1.007825032230
         H            3.406222940855    -1.340303873992    -1.171266357743     1.007825032230
         H            3.661603940855     1.635464126008    -0.204034357743     1.007825032230
         H            1.931362940855     2.015529126008    -0.281627357743     1.007825032230
         H            2.702577940855     1.096022126008    -1.599808357743     1.007825032230
         H           -3.654392059145     1.635460126008    -0.204023357743     1.007825032230
         H           -1.924151059145     2.015526126008    -0.281634357743     1.007825032230
         H           -2.695380059145     1.096022126008    -1.599808357743     1.007825032230
         H           -4.350333059145    -0.853425873992     0.248246642257     1.007825032230
         H           -3.063717059145    -2.067958873992     0.412841642257     1.007825032230
         H           -3.399005059145    -1.340316873992    -1.171257357743     1.007825032230

  Basis Set: AUG-CC-PVTZ
    Blend: AUG-CC-PVTZ
  Basis Set: (AUG-CC-PVTZ AUX)
    Blend: AUG-CC-PVTZ-JKFIT
	 Reference Energy          =    -498.0363814878364792 [Eh]
	 Singles Energy            =      -0.0000000000000000 [Eh]
	 Same-Spin Energy          =      -0.4945560522586653 [Eh]
	 Opposite-Spin Energy      =      -1.6254833003021827 [Eh]
	 Correlation Energy        =      -2.1200393525608479 [Eh]
	 Total Energy              =    -500.1564208403973453 [Eh]

	 ================> DF-SCS-MP2 Energies <==================
	-----------------------------------------------------------
	 SCS Same-Spin Scale       =       0.3333333333333333 [-]
	 SCS Opposite-Spin Scale   =       1.2000000000000000 [-]
	 SCS Same-Spin Energy      =      -0.1648520174195551 [Eh]
	 SCS Opposite-Spin Energy  =      -1.9505799603626190 [Eh]
	 SCS Correlation Energy    =      -2.1154319777821740 [Eh]
	 SCS Total Energy          =    -500.1518134656186589 [Eh]
	-----------------------------------------------------------

  Dipole Moment: [D]
     X:    -0.2542      Y:    -0.0859      Z:    -0.2913     Total:     0.3961

*** Psi4 exiting successfully. Buy a developer a beer!
