                               Psi4 1.3.2 release

  ==> Input File <==

--------------------------------------------------------------------------
#psi4
#
memory 32 gb

molecule  {
0 1
  O        1.0823540    -0.5566580    -0.2632920
  O       -1.0823250    -0.5564370    -0.2635130
  O        0.0000290     0.8790020     1.1568390
  C        2.3645980    -0.0472600     0.2117580
  C       -2.3522219    -0.0312790     0.2272293
  C        3.3580870    -1.1527530    -0.0787140
  C        2.6794210     1.2541120    -0.5011060
  C       -2.6796530     1.2540600    -0.5011170
  C       -3.3579470    -1.1529030    -0.0785870
  C        0.0000190     0.0134100     0.2963400
  H        2.2751950     0.1248800     1.2880410
  H       -2.2750520     0.1249260     1.2879850
  H        4.3537060    -0.8600380     0.2666930
  H        3.0667940    -2.0744370     0.4299490
  H        3.4032550    -1.3462360    -1.1536500
  H        3.6582030     1.6290460    -0.1867860
  H        1.9279580     2.0093320    -0.2633690
  H        2.6983220     1.0899770    -1.5821290
  H       -3.6584150     1.6289180    -0.1866510
  H       -1.9282070     2.0093390    -0.2634970
  H       -2.6986940     1.0899190    -1.5821360
  H       -4.3535640    -0.8602980     0.2669170
  H       -3.0664820    -2.0745270     0.4300870
  H       -3.4032180    -1.3464490    -1.1535090
units angstrom
no_reorient  #important for SAPT in psi4, default
symmetry c1  #important for SAPT in psi4, default
}

set PROPERTIES_ORIGIN ["COM"]
properties('MP2/aug-cc-pvtz', properties = ['dipole'])
--------------------------------------------------------------------------

    Molecular point group: c1
  Charge       = 0
  Multiplicity = 1
  Basis Set: AUG-CC-PVTZ
    Blend: AUG-CC-PVTZ
  Basis Set: (AUG-CC-PVTZ AUX)
    Blend: AUG-CC-PVTZ-JKFIT

    Orbital Energies [Eh]
    ---------------------

    Doubly Occupied:

       1A    -20.601932     2A    -20.601059     3A    -20.541647
       4A    -11.427903     5A    -11.293853     6A    -11.293000
       7A    -11.221705     8A    -11.221696     9A    -11.218612
      10A    -11.218381    11A     -1.492562    12A     -1.389706
      13A     -1.354694    14A     -1.080636    15A     -1.052906
      16A     -0.946468    17A     -0.944441    18A     -0.876311
      19A     -0.802585    20A     -0.771078    21A     -0.746066
      22A     -0.696304    23A     -0.674668    24A     -0.632735
      25A     -0.623835    26A     -0.614560    27A     -0.581467
      28A     -0.574597    29A     -0.557872    30A     -0.548730
      31A     -0.547984    32A     -0.534599    33A     -0.525893
      34A     -0.517222    35A     -0.505367    36A     -0.488655
      37A     -0.487963    38A     -0.469718    39A     -0.456545
      40A     -0.452701

  @DF-RHF Final Energy:  -498.03841885889256

   => Energetics <=

    Nuclear Repulsion Energy =            577.3068525223110328
    One-Electron Energy =               -1825.5132356838266787
    Two-Electron Energy =                 750.1679643026229769
    Total Energy =                       -498.0384188588925554
  Basis Set: (AUG-CC-PVTZ AUX)
    Blend: AUG-CC-PVTZ-RI
    Molecular point group: c1

    Geometry (in Angstrom), charge = 0, multiplicity = 1:

       Center              X                  Y                   Z               Mass
    ------------   -----------------  -----------------  -----------------  -----------------
         O            1.081338461723    -0.550207734702    -0.280856878161    15.994914619570
         O           -1.083340538277    -0.549986734702    -0.281077878161    15.994914619570
         O           -0.000986538277     0.885452265298     1.139274121839    15.994914619570
         C            2.363582461723    -0.040809734702     0.194193121839    12.000000000000
         C           -2.353237438277    -0.024828734702     0.209664421839    12.000000000000
         C            3.357071461723    -1.146302734702    -0.096278878161    12.000000000000
         C            2.678405461723     1.260562265298    -0.518670878161    12.000000000000
         C           -2.680668538277     1.260510265298    -0.518681878161    12.000000000000
         C           -3.358962538277    -1.146452734702    -0.096151878161    12.000000000000
         C           -0.000996538277     0.019860265298     0.278775121839    12.000000000000
         H            2.274179461723     0.131330265298     1.270476121839     1.007825032230
         H           -2.276067538277     0.131376265298     1.270420121839     1.007825032230
         H            4.352690461723    -0.853587734702     0.249128121839     1.007825032230
         H            3.065778461723    -2.067986734702     0.412384121839     1.007825032230
         H            3.402239461723    -1.339785734702    -1.171214878161     1.007825032230
         H            3.657187461723     1.635496265298    -0.204350878161     1.007825032230
         H            1.926942461723     2.015782265298    -0.280933878161     1.007825032230
         H            2.697306461723     1.096427265298    -1.599693878161     1.007825032230
         H           -3.659430538277     1.635368265298    -0.204215878161     1.007825032230
         H           -1.929222538277     2.015789265298    -0.281061878161     1.007825032230
         H           -2.699709538277     1.096369265298    -1.599700878161     1.007825032230
         H           -4.354579538277    -0.853847734702     0.249352121839     1.007825032230
         H           -3.067497538277    -2.068076734702     0.412522121839     1.007825032230
         H           -3.404233538277    -1.339998734702    -1.171073878161     1.007825032230

  Basis Set: AUG-CC-PVTZ
    Blend: AUG-CC-PVTZ
  Basis Set: (AUG-CC-PVTZ AUX)
    Blend: AUG-CC-PVTZ-JKFIT
	 Reference Energy          =    -498.0384188588925554 [Eh]
	 Singles Energy            =      -0.0000000000000000 [Eh]
	 Same-Spin Energy          =      -0.4942592405826836 [Eh]
	 Opposite-Spin Energy      =      -1.6249072143741947 [Eh]
	 Correlation Energy        =      -2.1191664549568783 [Eh]
	 Total Energy              =    -500.1575853138494381 [Eh]

	 ================> DF-SCS-MP2 Energies <==================
	-----------------------------------------------------------
	 SCS Same-Spin Scale       =       0.3333333333333333 [-]
	 SCS Opposite-Spin Scale   =       1.2000000000000000 [-]
	 SCS Same-Spin Energy      =      -0.1647530801942279 [Eh]
	 SCS Opposite-Spin Energy  =      -1.9498886572490335 [Eh]
	 SCS Correlation Energy    =      -2.1146417374432613 [Eh]
	 SCS Total Energy          =    -500.1530605963358198 [Eh]
	-----------------------------------------------------------

  Dipole Moment: [D]
     X:     0.0364      Y:    -0.0869      Z:    -0.2783     Total:     0.2939

*** Psi4 exiting successfully. Buy a developer a beer!
