                               Psi4 1.3.2 release

  ==> Input File <==

--------------------------------------------------------------------------
#psi4
#
memory 32 gb

molecule  {
0 1
  O        1.0823540    -0.5566580    -0.2632920
  O       -1.1226860    -0.5607027    -0.3569278
  O        0.0000290     0.8790020     1.1568390
  C        2.3645980    -0.0472600     0.2117580
  C       -2.3645710    -0.0472670     0.2117220
  C        3.3580870    -1.1527530    -0.0787140
  C        2.6794210     1.2541120    -0.5011060
  C       -2.6796530     1.2540600    -0.5011170
  C       -3.3579470    -1.1529030    -0.0785870
  C        0.0000190     0.0134100     0.2963400
  H        2.2751950     0.1248800     1.2880410
  H       -2.2750520     0.1249260     1.2879850
  H        4.3537060    -0.8600380     0.2666930
  H        3.0667940    -2.0744370     0.4299490
  H        3.4032550    -1.3462360    -1.1536500
  H        3.6582030     1.6290460    -0.1867860
  H        1.9279580     2.0093320    -0.2633690
  H        2.6983220     1.0899770    -1.5821290
  H       -3.6584150     1.6289180    -0.1866510
  H       -1.9282070     2.0093390    -0.2634970
  H       -2.6986940     1.0899190    -1.5821360
  H       -4.3535640    -0.8602980     0.2669170
  H       -3.0664820    -2.0745270     0.4300870
  H       -3.4032180    -1.3464490    -1.1535090
units angstrom
no_reorient  #important for SAPT in psi4, default
symmetry c1  #important for SAPT in psi4, default
}

set PROPERTIES_ORIGIN ["COM"]
properties('MP2/aug-cc-pvtz', properties = ['dipole'])
--------------------------------------------------------------------------

    Molecular point group: c1
  Charge       = 0
  Multiplicity = 1
  Basis Set: AUG-CC-PVTZ
    Blend: AUG-CC-PVTZ
  Basis Set: (AUG-CC-PVTZ AUX)
    Blend: AUG-CC-PVTZ-JKFIT

    Orbital Energies [Eh]
    ---------------------

    Doubly Occupied:

       1A    -20.606414     2A    -20.600407     3A    -20.554089
       4A    -11.437577     5A    -11.296821     6A    -11.288305
       7A    -11.223673     8A    -11.220951     9A    -11.217341
      10A    -11.214468    11A     -1.482443    12A     -1.380522
      13A     -1.359465    14A     -1.078842    15A     -1.050059
      16A     -0.948688    17A     -0.942851    18A     -0.869907
      19A     -0.797657    20A     -0.772709    21A     -0.738941
      22A     -0.696241    23A     -0.671220    24A     -0.630785
      25A     -0.625142    26A     -0.612705    27A     -0.582779
      28A     -0.573881    29A     -0.558315    30A     -0.549943
      31A     -0.545868    32A     -0.534242    33A     -0.522420
      34A     -0.516315    35A     -0.508362    36A     -0.491328
      37A     -0.486210    38A     -0.471813    39A     -0.460265
      40A     -0.450837

  @DF-RHF Final Energy:  -498.02685919825166

   => Energetics <=

    Nuclear Repulsion Energy =            575.5425373318116726
    One-Electron Energy =               -1821.9971939110237145
    Two-Electron Energy =                 748.4277973809603282
    Total Energy =                       -498.0268591982517137
  Basis Set: (AUG-CC-PVTZ AUX)
    Blend: AUG-CC-PVTZ-RI
    Molecular point group: c1

    Geometry (in Angstrom), charge = 0, multiplicity = 1:

       Center              X                  Y                   Z               Mass
    ------------   -----------------  -----------------  -----------------  -----------------
         O            1.086771664661    -0.548427476900    -0.269355748989    15.994914619570
         O           -1.118268335339    -0.552472176900    -0.362991548989    15.994914619570
         O            0.004446664661     0.887232523100     1.150775251011    15.994914619570
         C            2.369015664661    -0.039029476900     0.205694251011    12.000000000000
         C           -2.360153335339    -0.039036476900     0.205658251011    12.000000000000
         C            3.362504664661    -1.144522476900    -0.084777748989    12.000000000000
         C            2.683838664661     1.262342523100    -0.507169748989    12.000000000000
         C           -2.675235335339     1.262290523100    -0.507180748989    12.000000000000
         C           -3.353529335339    -1.144672476900    -0.084650748989    12.000000000000
         C            0.004436664661     0.021640523100     0.290276251011    12.000000000000
         H            2.279612664661     0.133110523100     1.281977251011     1.007825032230
         H           -2.270634335339     0.133156523100     1.281921251011     1.007825032230
         H            4.358123664661    -0.851807476900     0.260629251011     1.007825032230
         H            3.071211664661    -2.066206476900     0.423885251011     1.007825032230
         H            3.407672664661    -1.338005476900    -1.159713748989     1.007825032230
         H            3.662620664661     1.637276523100    -0.192849748989     1.007825032230
         H            1.932375664661     2.017562523100    -0.269432748989     1.007825032230
         H            2.702739664661     1.098207523100    -1.588192748989     1.007825032230
         H           -3.653997335339     1.637148523100    -0.192714748989     1.007825032230
         H           -1.923789335339     2.017569523100    -0.269560748989     1.007825032230
         H           -2.694276335339     1.098149523100    -1.588199748989     1.007825032230
         H           -4.349146335339    -0.852067476900     0.260853251011     1.007825032230
         H           -3.062064335339    -2.066296476900     0.424023251011     1.007825032230
         H           -3.398800335339    -1.338218476900    -1.159572748989     1.007825032230

  Basis Set: AUG-CC-PVTZ
    Blend: AUG-CC-PVTZ
  Basis Set: (AUG-CC-PVTZ AUX)
    Blend: AUG-CC-PVTZ-JKFIT
	 Reference Energy          =    -498.0268591982516568 [Eh]
	 Singles Energy            =      -0.0000000000000000 [Eh]
	 Same-Spin Energy          =      -0.4958735030821387 [Eh]
	 Opposite-Spin Energy      =      -1.6291126851922777 [Eh]
	 Correlation Energy        =      -2.1249861882744163 [Eh]
	 Total Energy              =    -500.1518453865260767 [Eh]

	 ================> DF-SCS-MP2 Energies <==================
	-----------------------------------------------------------
	 SCS Same-Spin Scale       =       0.3333333333333333 [-]
	 SCS Opposite-Spin Scale   =       1.2000000000000000 [-]
	 SCS Same-Spin Energy      =      -0.1652911676940462 [Eh]
	 SCS Opposite-Spin Energy  =      -1.9549352222307332 [Eh]
	 SCS Correlation Energy    =      -2.1202263899247793 [Eh]
	 SCS Total Energy          =    -500.1470855881764237 [Eh]
	-----------------------------------------------------------

  Dipole Moment: [D]
     X:     0.4911      Y:    -0.0131      Z:    -0.0641     Total:     0.4954

*** Psi4 exiting successfully. Buy a developer a beer!
