                               Psi4 1.3.2 release

  ==> Input File <==

--------------------------------------------------------------------------
#psi4
#
memory 32 gb

molecule  {
0 1
  O        1.0823540    -0.5566580    -0.2632920
  O       -1.0823250    -0.5564370    -0.2635130
  O        0.0000290     0.8790020     1.1568390
  C        2.3645980    -0.0472600     0.2117580
  C       -2.5403177     0.0225207     0.2768585
  C        3.3580870    -1.1527530    -0.0787140
  C        2.6794210     1.2541120    -0.5011060
  C       -2.6796530     1.2540600    -0.5011170
  C       -3.3579470    -1.1529030    -0.0785870
  C        0.0000190     0.0134100     0.2963400
  H        2.2751950     0.1248800     1.2880410
  H       -2.2750520     0.1249260     1.2879850
  H        4.3537060    -0.8600380     0.2666930
  H        3.0667940    -2.0744370     0.4299490
  H        3.4032550    -1.3462360    -1.1536500
  H        3.6582030     1.6290460    -0.1867860
  H        1.9279580     2.0093320    -0.2633690
  H        2.6983220     1.0899770    -1.5821290
  H       -3.6584150     1.6289180    -0.1866510
  H       -1.9282070     2.0093390    -0.2634970
  H       -2.6986940     1.0899190    -1.5821360
  H       -4.3535640    -0.8602980     0.2669170
  H       -3.0664820    -2.0745270     0.4300870
  H       -3.4032180    -1.3464490    -1.1535090
units angstrom
no_reorient  #important for SAPT in psi4, default
symmetry c1  #important for SAPT in psi4, default
}

set PROPERTIES_ORIGIN ["COM"]
properties('MP2/aug-cc-pvtz', properties = ['dipole'])
--------------------------------------------------------------------------

    Molecular point group: c1
  Charge       = 0
  Multiplicity = 1
  Basis Set: AUG-CC-PVTZ
    Blend: AUG-CC-PVTZ
  Basis Set: (AUG-CC-PVTZ AUX)
    Blend: AUG-CC-PVTZ-JKFIT

    Orbital Energies [Eh]
    ---------------------

    Doubly Occupied:

       1A    -20.588400     2A    -20.567554     3A    -20.527130
       4A    -11.409755     5A    -11.309204     6A    -11.285673
       7A    -11.231596     8A    -11.228300     9A    -11.215873
      10A    -11.212742    11A     -1.467691    12A     -1.356374
      13A     -1.327689    14A     -1.095965    15A     -1.056213
      16A     -0.965186    17A     -0.940341    18A     -0.853372
      19A     -0.805974    20A     -0.761279    21A     -0.719512
      22A     -0.680099    23A     -0.659083    24A     -0.644479
      25A     -0.617885    26A     -0.612645    27A     -0.583057
      28A     -0.572664    29A     -0.562166    30A     -0.551699
      31A     -0.541942    32A     -0.531329    33A     -0.523625
      34A     -0.516272    35A     -0.505585    36A     -0.482464
      37A     -0.477223    38A     -0.455770    39A     -0.448522
      40A     -0.444466

  @DF-RHF Final Energy:  -498.01064156222060

   => Energetics <=

    Nuclear Repulsion Energy =            574.5214491940096195
    One-Electron Energy =               -1820.3905903644708815
    Two-Electron Energy =                 747.8584996082406633
    Total Energy =                       -498.0106415622205986
  Basis Set: (AUG-CC-PVTZ AUX)
    Blend: AUG-CC-PVTZ-RI
    Molecular point group: c1

    Geometry (in Angstrom), charge = 0, multiplicity = 1:

       Center              X                  Y                   Z               Mass
    ------------   -----------------  -----------------  -----------------  -----------------
         O            1.096788412118    -0.554626773810    -0.284933357690    15.994914619570
         O           -1.067890587882    -0.554405773810    -0.285154357690    15.994914619570
         O            0.014463412118     0.881033226190     1.135197642310    15.994914619570
         C            2.379032412118    -0.045228773810     0.190116642310    12.000000000000
         C           -2.525883287882     0.024551926190     0.255217142310    12.000000000000
         C            3.372521412118    -1.150721773810    -0.100355357690    12.000000000000
         C            2.693855412118     1.256143226190    -0.522747357690    12.000000000000
         C           -2.665218587882     1.256091226190    -0.522758357690    12.000000000000
         C           -3.343512587882    -1.150871773810    -0.100228357690    12.000000000000
         C            0.014453412118     0.015441226190     0.274698642310    12.000000000000
         H            2.289629412118     0.126911226190     1.266399642310     1.007825032230
         H           -2.260617587882     0.126957226190     1.266343642310     1.007825032230
         H            4.368140412118    -0.858006773810     0.245051642310     1.007825032230
         H            3.081228412118    -2.072405773810     0.408307642310     1.007825032230
         H            3.417689412118    -1.344204773810    -1.175291357690     1.007825032230
         H            3.672637412118     1.631077226190    -0.208427357690     1.007825032230
         H            1.942392412118     2.011363226190    -0.285010357690     1.007825032230
         H            2.712756412118     1.092008226190    -1.603770357690     1.007825032230
         H           -3.643980587882     1.630949226190    -0.208292357690     1.007825032230
         H           -1.913772587882     2.011370226190    -0.285138357690     1.007825032230
         H           -2.684259587882     1.091950226190    -1.603777357690     1.007825032230
         H           -4.339129587882    -0.858266773810     0.245275642310     1.007825032230
         H           -3.052047587882    -2.072495773810     0.408445642310     1.007825032230
         H           -3.388783587882    -1.344417773810    -1.175150357690     1.007825032230

  Basis Set: AUG-CC-PVTZ
    Blend: AUG-CC-PVTZ
  Basis Set: (AUG-CC-PVTZ AUX)
    Blend: AUG-CC-PVTZ-JKFIT
	 Reference Energy          =    -498.0106415622205986 [Eh]
	 Singles Energy            =      -0.0000000000000000 [Eh]
	 Same-Spin Energy          =      -0.4958677110696749 [Eh]
	 Opposite-Spin Energy      =      -1.6280030040858120 [Eh]
	 Correlation Energy        =      -2.1238707151554870 [Eh]
	 Total Energy              =    -500.1345122773760750 [Eh]

	 ================> DF-SCS-MP2 Energies <==================
	-----------------------------------------------------------
	 SCS Same-Spin Scale       =       0.3333333333333333 [-]
	 SCS Opposite-Spin Scale   =       1.2000000000000000 [-]
	 SCS Same-Spin Energy      =      -0.1652892370232250 [Eh]
	 SCS Opposite-Spin Energy  =      -1.9536036049029744 [Eh]
	 SCS Correlation Energy    =      -2.1188928419261992 [Eh]
	 SCS Total Energy          =    -500.1295344041467956 [Eh]
	-----------------------------------------------------------

  Dipole Moment: [D]
     X:    -1.0344      Y:    -0.0002      Z:    -0.2988     Total:     1.0767

*** Psi4 exiting successfully. Buy a developer a beer!
