                               Psi4 1.4a3.dev225

  ==> Input File <==

--------------------------------------------------------------------------
#psi4
#
memory 32 gb

molecule  {
0 1
  O        1.0823660    -0.5568910    -0.2629560
  O       -1.0823640    -0.5568750    -0.2629780
  O       -0.0000050     0.8796030     1.1562750
  C        2.3645860    -0.0472710     0.2118040
  C       -2.3645830    -0.0472720     0.2117990
  C        3.3581450    -1.1527440    -0.0787380
  C        2.6794270     1.2540320    -0.5011890
  C       -2.6794360     1.2540300    -0.5011890
  C       -3.3581360    -1.1527540    -0.0787300
  C        0.0160910     0.0219029     0.3046891
  H        2.2753340     0.1249760     1.2880770
  H       -2.2753170     0.1249770     1.2880710
  H        4.3539520    -0.8597410     0.2658680
  H        3.0673460    -2.0742840     0.4304720
  H        3.4026140    -1.3466350    -1.1536290
  H        3.6579950     1.6291330    -0.1863970
  H        1.9277540     2.0091980    -0.2639900
  H        2.6989690     1.0896910    -1.5821710
  H       -3.6580010     1.6291290    -0.1863860
  H       -1.9277600     2.0091950    -0.2639970
  H       -2.6989890     1.0896910    -1.5821710
  H       -4.3539420    -0.8597570     0.2658840
  H       -3.0673260    -2.0742900     0.4304790
  H       -3.4026140    -1.3466480    -1.1536200
units angstrom
no_reorient  #important for SAPT in psi4, default
symmetry c1  #important for SAPT in psi4, default
}

set PROPERTIES_ORIGIN ["COM"]
properties('MP2/aug-cc-pvtz', properties = ['dipole'])
--------------------------------------------------------------------------

    Molecular point group: c1
  Charge       = 0
  Multiplicity = 1
  Basis Set: AUG-CC-PVTZ
    Blend: AUG-CC-PVTZ
  Basis Set: (AUG-CC-PVTZ AUX)
    Blend: AUG-CC-PVTZ-JKFIT

    Orbital Energies [Eh]
    ---------------------

    Doubly Occupied:

       1A    -20.603543     2A    -20.595699     3A    -20.544734
       4A    -11.427515     5A    -11.295200     6A    -11.290995
       7A    -11.222646     8A    -11.219890     9A    -11.219856
      10A    -11.216953    11A     -1.491712    12A     -1.386276
      13A     -1.361034    14A     -1.080814    15A     -1.053049
      16A     -0.947717    17A     -0.944530    18A     -0.874784
      19A     -0.799805    20A     -0.769554    21A     -0.744193
      22A     -0.696839    23A     -0.674975    24A     -0.631961
      25A     -0.625397    26A     -0.614491    27A     -0.583335
      28A     -0.574163    29A     -0.558771    30A     -0.549453
      31A     -0.546828    32A     -0.534755    33A     -0.524783
      34A     -0.516172    35A     -0.507328    36A     -0.490975
      37A     -0.485752    38A     -0.469483    39A     -0.459356
      40A     -0.451151

  @DF-RHF Final Energy:  -498.03866661689602

   => Energetics <=

    Nuclear Repulsion Energy =            577.2784712263219262
    One-Electron Energy =               -1825.4613456270321876
    Two-Electron Energy =                 750.1442077838141813
    Total Energy =                       -498.0386666168960801
  Basis Set: (AUG-CC-PVTZ AUX)
    Blend: AUG-CC-PVTZ-RI
    Molecular point group: c1

    Geometry (in Angstrom), charge = 0, multiplicity = 1:

       Center              X                  Y                   Z               Mass
    ------------   -----------------  -----------------  -----------------  -----------------
         O            1.081044284230    -0.549822013554    -0.279940141268    15.994914619570
         O           -1.083685715770    -0.549806013554    -0.279962141268    15.994914619570
         O           -0.001326715770     0.886671986446     1.139290858732    15.994914619570
         C            2.363264284230    -0.040202013554     0.194819858732    12.000000000000
         C           -2.365904715770    -0.040203013554     0.194814858732    12.000000000000
         C            3.356823284230    -1.145675013554    -0.095722141268    12.000000000000
         C            2.678105284230     1.261100986446    -0.518173141268    12.000000000000
         C           -2.680757715770     1.261098986446    -0.518173141268    12.000000000000
         C           -3.359457715770    -1.145685013554    -0.095714141268    12.000000000000
         C            0.014769284230     0.028971886446     0.287704958732    12.000000000000
         H            2.274012284230     0.132044986446     1.271092858732     1.007825032230
         H           -2.276638715770     0.132045986446     1.271086858732     1.007825032230
         H            4.352630284230    -0.852672013554     0.248883858732     1.007825032230
         H            3.066024284230    -2.067215013554     0.413487858732     1.007825032230
         H            3.401292284230    -1.339566013554    -1.170613141268     1.007825032230
         H            3.656673284230     1.636201986446    -0.203381141268     1.007825032230
         H            1.926432284230     2.016266986446    -0.280974141268     1.007825032230
         H            2.697647284230     1.096759986446    -1.599155141268     1.007825032230
         H           -3.659322715770     1.636197986446    -0.203370141268     1.007825032230
         H           -1.929081715770     2.016263986446    -0.280981141268     1.007825032230
         H           -2.700310715770     1.096759986446    -1.599155141268     1.007825032230
         H           -4.355263715770    -0.852688013554     0.248899858732     1.007825032230
         H           -3.068647715770    -2.067221013554     0.413494858732     1.007825032230
         H           -3.403935715770    -1.339579013554    -1.170604141268     1.007825032230

  Basis Set: AUG-CC-PVTZ
    Blend: AUG-CC-PVTZ
  Basis Set: (AUG-CC-PVTZ AUX)
    Blend: AUG-CC-PVTZ-JKFIT
	 Reference Energy          =    -498.0386666168960232 [Eh]
	 Singles Energy            =      -0.0000000000000000 [Eh]
	 Same-Spin Energy          =      -0.4943136953182679 [Eh]
	 Opposite-Spin Energy      =      -1.6249563549703092 [Eh]
	 Correlation Energy        =      -2.1192700502885771 [Eh]
	 Total Energy              =    -500.1579366671845719 [Eh]

	 ================> DF-SCS-MP2 Energies <==================
	-----------------------------------------------------------
	 SCS Same-Spin Scale       =       0.3333333333333333 [-]
	 SCS Opposite-Spin Scale   =       1.2000000000000000 [-]
	 SCS Same-Spin Energy      =      -0.1647712317727560 [Eh]
	 SCS Opposite-Spin Energy  =      -1.9499476259643709 [Eh]
	 SCS Correlation Energy    =      -2.1147188577371270 [Eh]
	 SCS Total Energy          =    -500.1533854746331258 [Eh]
	-----------------------------------------------------------

  Dipole Moment: [D]
     X:     0.2202      Y:    -0.0539      Z:    -0.2265     Total:     0.3205

*** Psi4 exiting successfully. Buy a developer a beer!
