                               Psi4 1.3.2 release

  ==> Input File <==

--------------------------------------------------------------------------
#psi4
#
memory 32 gb

molecule  {
0 1
  O        1.0823540    -0.5566580    -0.2632920
  O       -1.0732038    -0.5549819    -0.2397795
  O        0.0000290     0.8790020     1.1568390
  C        2.3645980    -0.0472600     0.2117580
  C       -2.3645710    -0.0472670     0.2117220
  C        3.3580870    -1.1527530    -0.0787140
  C        2.6794210     1.2541120    -0.5011060
  C       -2.6796530     1.2540600    -0.5011170
  C       -3.3579470    -1.1529030    -0.0785870
  C        0.0000190     0.0134100     0.2963400
  H        2.2751950     0.1248800     1.2880410
  H       -2.2750520     0.1249260     1.2879850
  H        4.3537060    -0.8600380     0.2666930
  H        3.0667940    -2.0744370     0.4299490
  H        3.4032550    -1.3462360    -1.1536500
  H        3.6582030     1.6290460    -0.1867860
  H        1.9279580     2.0093320    -0.2633690
  H        2.6983220     1.0899770    -1.5821290
  H       -3.6584150     1.6289180    -0.1866510
  H       -1.9282070     2.0093390    -0.2634970
  H       -2.6986940     1.0899190    -1.5821360
  H       -4.3535640    -0.8602980     0.2669170
  H       -3.0664820    -2.0745270     0.4300870
  H       -3.4032180    -1.3464490    -1.1535090
units angstrom
no_reorient  #important for SAPT in psi4, default
symmetry c1  #important for SAPT in psi4, default
}

set PROPERTIES_ORIGIN ["COM"]
properties('MP2/aug-cc-pvtz', properties = ['dipole'])
--------------------------------------------------------------------------

    Molecular point group: c1
  Charge       = 0
  Multiplicity = 1
  Basis Set: AUG-CC-PVTZ
    Blend: AUG-CC-PVTZ
  Basis Set: (AUG-CC-PVTZ AUX)
    Blend: AUG-CC-PVTZ-JKFIT

    Orbital Energies [Eh]
    ---------------------

    Doubly Occupied:

       1A    -20.600936     2A    -20.599616     3A    -20.537883
       4A    -11.425346     5A    -11.295210     6A    -11.292994
       7A    -11.222724     8A    -11.221118     9A    -11.219538
      10A    -11.217888    11A     -1.495293    12A     -1.391174
      13A     -1.352457    14A     -1.082886    15A     -1.054904
      16A     -0.947270    17A     -0.945770    18A     -0.878783
      19A     -0.801861    20A     -0.768419    21A     -0.747018
      22A     -0.695739    23A     -0.675093    24A     -0.632858
      25A     -0.625380    26A     -0.615714    27A     -0.581199
      28A     -0.574650    29A     -0.559457    30A     -0.549110
      31A     -0.547971    32A     -0.534398    33A     -0.526759
      34A     -0.517089    35A     -0.505334    36A     -0.490047
      37A     -0.485352    38A     -0.467583    39A     -0.455886
      40A     -0.451818

  @DF-RHF Final Energy:  -498.04045421546692

   => Energetics <=

    Nuclear Repulsion Energy =            577.7076630913406916
    One-Electron Energy =               -1826.3151863554617194
    Two-Electron Energy =                 750.5670690486540479
    Total Energy =                       -498.0404542154669798
  Basis Set: (AUG-CC-PVTZ AUX)
    Blend: AUG-CC-PVTZ-RI
    Molecular point group: c1

    Geometry (in Angstrom), charge = 0, multiplicity = 1:

       Center              X                  Y                   Z               Mass
    ------------   -----------------  -----------------  -----------------  -----------------
         O            1.081354180234    -0.549053810105    -0.282181554851    15.994914619570
         O           -1.074203619766    -0.547377710105    -0.258669054851    15.994914619570
         O           -0.000970819766     0.886606189895     1.137949445149    15.994914619570
         C            2.363598180234    -0.039655810105     0.192868445149    12.000000000000
         C           -2.365570819766    -0.039662810105     0.192832445149    12.000000000000
         C            3.357087180234    -1.145148810105    -0.097603554851    12.000000000000
         C            2.678421180234     1.261716189895    -0.519995554851    12.000000000000
         C           -2.680652819766     1.261664189895    -0.520006554851    12.000000000000
         C           -3.358946819766    -1.145298810105    -0.097476554851    12.000000000000
         C           -0.000980819766     0.021014189895     0.277450445149    12.000000000000
         H            2.274195180234     0.132484189895     1.269151445149     1.007825032230
         H           -2.276051819766     0.132530189895     1.269095445149     1.007825032230
         H            4.352706180234    -0.852433810105     0.247803445149     1.007825032230
         H            3.065794180234    -2.066832810105     0.411059445149     1.007825032230
         H            3.402255180234    -1.338631810105    -1.172539554851     1.007825032230
         H            3.657203180234     1.636650189895    -0.205675554851     1.007825032230
         H            1.926958180234     2.016936189895    -0.282258554851     1.007825032230
         H            2.697322180234     1.097581189895    -1.601018554851     1.007825032230
         H           -3.659414819766     1.636522189895    -0.205540554851     1.007825032230
         H           -1.929206819766     2.016943189895    -0.282386554851     1.007825032230
         H           -2.699693819766     1.097523189895    -1.601025554851     1.007825032230
         H           -4.354563819766    -0.852693810105     0.248027445149     1.007825032230
         H           -3.067481819766    -2.066922810105     0.411197445149     1.007825032230
         H           -3.404217819766    -1.338844810105    -1.172398554851     1.007825032230

  Basis Set: AUG-CC-PVTZ
    Blend: AUG-CC-PVTZ
  Basis Set: (AUG-CC-PVTZ AUX)
    Blend: AUG-CC-PVTZ-JKFIT
	 Reference Energy          =    -498.0404542154669230 [Eh]
	 Singles Energy            =      -0.0000000000000000 [Eh]
	 Same-Spin Energy          =      -0.4939844931610872 [Eh]
	 Opposite-Spin Energy      =      -1.6239113807297403 [Eh]
	 Correlation Energy        =      -2.1178958738908276 [Eh]
	 Total Energy              =    -500.1583500893577252 [Eh]

	 ================> DF-SCS-MP2 Energies <==================
	-----------------------------------------------------------
	 SCS Same-Spin Scale       =       0.3333333333333333 [-]
	 SCS Opposite-Spin Scale   =       1.2000000000000000 [-]
	 SCS Same-Spin Energy      =      -0.1646614977203624 [Eh]
	 SCS Opposite-Spin Energy  =      -1.9486936568756883 [Eh]
	 SCS Correlation Energy    =      -2.1133551545960505 [Eh]
	 SCS Total Energy          =    -500.1538093700629588 [Eh]
	-----------------------------------------------------------

  Dipole Moment: [D]
     X:    -0.1202      Y:    -0.1411      Z:    -0.3478     Total:     0.3941

*** Psi4 exiting successfully. Buy a developer a beer!
