                               Psi4 1.3.2 release

  ==> Input File <==

--------------------------------------------------------------------------
#psi4
#
memory 32 gb

molecule  {
0 1
  O        1.0823540    -0.5566580    -0.2632920
  O       -1.0823250    -0.5564370    -0.2635130
  O        0.0000290     0.8790020     1.1568390
  C        2.3645980    -0.0472600     0.2117580
  C       -2.4303398    -0.1462784     0.1158065
  C        3.3580870    -1.1527530    -0.0787140
  C        2.6794210     1.2541120    -0.5011060
  C       -2.6796530     1.2540600    -0.5011170
  C       -3.3579470    -1.1529030    -0.0785870
  C        0.0000190     0.0134100     0.2963400
  H        2.2751950     0.1248800     1.2880410
  H       -2.2750520     0.1249260     1.2879850
  H        4.3537060    -0.8600380     0.2666930
  H        3.0667940    -2.0744370     0.4299490
  H        3.4032550    -1.3462360    -1.1536500
  H        3.6582030     1.6290460    -0.1867860
  H        1.9279580     2.0093320    -0.2633690
  H        2.6983220     1.0899770    -1.5821290
  H       -3.6584150     1.6289180    -0.1866510
  H       -1.9282070     2.0093390    -0.2634970
  H       -2.6986940     1.0899190    -1.5821360
  H       -4.3535640    -0.8602980     0.2669170
  H       -3.0664820    -2.0745270     0.4300870
  H       -3.4032180    -1.3464490    -1.1535090
units angstrom
no_reorient  #important for SAPT in psi4, default
symmetry c1  #important for SAPT in psi4, default
}

set PROPERTIES_ORIGIN ["COM"]
properties('MP2/aug-cc-pvtz', properties = ['dipole'])
--------------------------------------------------------------------------

    Molecular point group: c1
  Charge       = 0
  Multiplicity = 1
  Basis Set: AUG-CC-PVTZ
    Blend: AUG-CC-PVTZ
  Basis Set: (AUG-CC-PVTZ AUX)
    Blend: AUG-CC-PVTZ-JKFIT

    Orbital Energies [Eh]
    ---------------------

    Doubly Occupied:

       1A    -20.600610     2A    -20.596260     3A    -20.539567
       4A    -11.428767     5A    -11.301101     6A    -11.293410
       7A    -11.221326     8A    -11.221133     9A    -11.220483
      10A    -11.218057    11A     -1.489002    12A     -1.386660
      13A     -1.352507    14A     -1.096253    15A     -1.061812
      16A     -0.955138    17A     -0.945958    18A     -0.879381
      19A     -0.796953    20A     -0.759962    21A     -0.740206
      22A     -0.691919    23A     -0.673643    24A     -0.639470
      25A     -0.630320    26A     -0.617964    27A     -0.586781
      28A     -0.580541    29A     -0.565077    30A     -0.549801
      31A     -0.547493    32A     -0.533319    33A     -0.531456
      34A     -0.521455    35A     -0.505574    36A     -0.490823
      37A     -0.475961    38A     -0.464618    39A     -0.454731
      40A     -0.426649

  @DF-RHF Final Energy:  -498.01011729021764

   => Energetics <=

    Nuclear Repulsion Energy =            577.1924371057189092
    One-Electron Energy =               -1825.2208324356006415
    Two-Electron Energy =                 750.0182780396640965
    Total Energy =                       -498.0101172902176359
  Basis Set: (AUG-CC-PVTZ AUX)
    Blend: AUG-CC-PVTZ-RI
    Molecular point group: c1

    Geometry (in Angstrom), charge = 0, multiplicity = 1:

       Center              X                  Y                   Z               Mass
    ------------   -----------------  -----------------  -----------------  -----------------
         O            1.087754966929    -0.540761829874    -0.271704750720    15.994914619570
         O           -1.076924033071    -0.540540829874    -0.271925750720    15.994914619570
         O            0.005429966929     0.894898170126     1.148426249280    15.994914619570
         C            2.369998966929    -0.031363829874     0.203345249280    12.000000000000
         C           -2.424938833071    -0.130382229874     0.107393749280    12.000000000000
         C            3.363487966929    -1.136856829874    -0.087126750720    12.000000000000
         C            2.684821966929     1.270008170126    -0.509518750720    12.000000000000
         C           -2.674252033071     1.269956170126    -0.509529750720    12.000000000000
         C           -3.352546033071    -1.137006829874    -0.086999750720    12.000000000000
         C            0.005419966929     0.029306170126     0.287927249280    12.000000000000
         H            2.280595966929     0.140776170126     1.279628249280     1.007825032230
         H           -2.269651033071     0.140822170126     1.279572249280     1.007825032230
         H            4.359106966929    -0.844141829874     0.258280249280     1.007825032230
         H            3.072194966929    -2.058540829874     0.421536249280     1.007825032230
         H            3.408655966929    -1.330339829874    -1.162062750720     1.007825032230
         H            3.663603966929     1.644942170126    -0.195198750720     1.007825032230
         H            1.933358966929     2.025228170126    -0.271781750720     1.007825032230
         H            2.703722966929     1.105873170126    -1.590541750720     1.007825032230
         H           -3.653014033071     1.644814170126    -0.195063750720     1.007825032230
         H           -1.922806033071     2.025235170126    -0.271909750720     1.007825032230
         H           -2.693293033071     1.105815170126    -1.590548750720     1.007825032230
         H           -4.348163033071    -0.844401829874     0.258504249280     1.007825032230
         H           -3.061081033071    -2.058630829874     0.421674249280     1.007825032230
         H           -3.397817033071    -1.330552829874    -1.161921750720     1.007825032230

  Basis Set: AUG-CC-PVTZ
    Blend: AUG-CC-PVTZ
  Basis Set: (AUG-CC-PVTZ AUX)
    Blend: AUG-CC-PVTZ-JKFIT
	 Reference Energy          =    -498.0101172902176359 [Eh]
	 Singles Energy            =      -0.0000000000000000 [Eh]
	 Same-Spin Energy          =      -0.4957577748812665 [Eh]
	 Opposite-Spin Energy      =      -1.6267225254533497 [Eh]
	 Correlation Energy        =      -2.1224803003346162 [Eh]
	 Total Energy              =    -500.1325975905522796 [Eh]

	 ================> DF-SCS-MP2 Energies <==================
	-----------------------------------------------------------
	 SCS Same-Spin Scale       =       0.3333333333333333 [-]
	 SCS Opposite-Spin Scale   =       1.2000000000000000 [-]
	 SCS Same-Spin Energy      =      -0.1652525916270888 [Eh]
	 SCS Opposite-Spin Energy  =      -1.9520670305440195 [Eh]
	 SCS Correlation Energy    =      -2.1173196221711086 [Eh]
	 SCS Total Energy          =    -500.1274369123887595 [Eh]
	-----------------------------------------------------------

  Dipole Moment: [D]
     X:    -0.1863      Y:    -0.2946      Z:    -0.3890     Total:     0.5223

*** Psi4 exiting successfully. Buy a developer a beer!
