                               Psi4 1.3.2 release

  ==> Input File <==

--------------------------------------------------------------------------
#psi4
#
memory 32 gb

molecule  {
0 1
  O        1.0823540    -0.5566580    -0.2632920
  O       -1.0644760    -0.5533722    -0.2159085
  O        0.0000290     0.8790020     1.1568390
  C        2.3645980    -0.0472600     0.2117580
  C       -2.3645710    -0.0472670     0.2117220
  C        3.3580870    -1.1527530    -0.0787140
  C        2.6794210     1.2541120    -0.5011060
  C       -2.6796530     1.2540600    -0.5011170
  C       -3.3579470    -1.1529030    -0.0785870
  C        0.0000190     0.0134100     0.2963400
  H        2.2751950     0.1248800     1.2880410
  H       -2.2750520     0.1249260     1.2879850
  H        4.3537060    -0.8600380     0.2666930
  H        3.0667940    -2.0744370     0.4299490
  H        3.4032550    -1.3462360    -1.1536500
  H        3.6582030     1.6290460    -0.1867860
  H        1.9279580     2.0093320    -0.2633690
  H        2.6983220     1.0899770    -1.5821290
  H       -3.6584150     1.6289180    -0.1866510
  H       -1.9282070     2.0093390    -0.2634970
  H       -2.6986940     1.0899190    -1.5821360
  H       -4.3535640    -0.8602980     0.2669170
  H       -3.0664820    -2.0745270     0.4300870
  H       -3.4032180    -1.3464490    -1.1535090
units angstrom
no_reorient  #important for SAPT in psi4, default
symmetry c1  #important for SAPT in psi4, default
}

set PROPERTIES_ORIGIN ["COM"]
properties('MP2/aug-cc-pvtz', properties = ['dipole'])
--------------------------------------------------------------------------

    Molecular point group: c1
  Charge       = 0
  Multiplicity = 1
  Basis Set: AUG-CC-PVTZ
    Blend: AUG-CC-PVTZ
  Basis Set: (AUG-CC-PVTZ AUX)
    Blend: AUG-CC-PVTZ-JKFIT

    Orbital Energies [Eh]
    ---------------------

    Doubly Occupied:

       1A    -20.600866     2A    -20.598319     3A    -20.534457
       4A    -11.422760     5A    -11.296693     6A    -11.292238
       7A    -11.223828     8A    -11.220616     9A    -11.220578
      10A    -11.217274    11A     -1.499050    12A     -1.392988
      13A     -1.350515    14A     -1.084185    15A     -1.055417
      16A     -0.948180    17A     -0.945195    18A     -0.881086
      19A     -0.802714    20A     -0.767662    21A     -0.748204
      22A     -0.696262    23A     -0.675845    24A     -0.633146
      25A     -0.625944    26A     -0.615771    27A     -0.580979
      28A     -0.574577    29A     -0.560054    30A     -0.549770
      31A     -0.547556    32A     -0.534593    33A     -0.527452
      34A     -0.517153    35A     -0.504799    36A     -0.489997
      37A     -0.484756    38A     -0.466278    39A     -0.454898
      40A     -0.451419

  @DF-RHF Final Energy:  -498.04105606007300

   => Energetics <=

    Nuclear Repulsion Energy =            578.1346964012187755
    One-Electron Energy =               -1827.1633538468861389
    Two-Electron Energy =                 750.9876013855941892
    Total Energy =                       -498.0410560600730605
  Basis Set: (AUG-CC-PVTZ AUX)
    Blend: AUG-CC-PVTZ-RI
    Molecular point group: c1

    Geometry (in Angstrom), charge = 0, multiplicity = 1:

       Center              X                  Y                   Z               Mass
    ------------   -----------------  -----------------  -----------------  -----------------
         O            1.080398630146    -0.549230045694    -0.284795035471    15.994914619570
         O           -1.066431369854    -0.545944245694    -0.237411535471    15.994914619570
         O           -0.001926369854     0.886429954306     1.135335964529    15.994914619570
         C            2.362642630146    -0.039832045694     0.190254964529    12.000000000000
         C           -2.366526369854    -0.039839045694     0.190218964529    12.000000000000
         C            3.356131630146    -1.145325045694    -0.100217035471    12.000000000000
         C            2.677465630146     1.261539954306    -0.522609035471    12.000000000000
         C           -2.681608369854     1.261487954306    -0.522620035471    12.000000000000
         C           -3.359902369854    -1.145475045694    -0.100090035471    12.000000000000
         C           -0.001936369854     0.020837954306     0.274836964529    12.000000000000
         H            2.273239630146     0.132307954306     1.266537964529     1.007825032230
         H           -2.277007369854     0.132353954306     1.266481964529     1.007825032230
         H            4.351750630146    -0.852610045694     0.245189964529     1.007825032230
         H            3.064838630146    -2.067009045694     0.408445964529     1.007825032230
         H            3.401299630146    -1.338808045694    -1.175153035471     1.007825032230
         H            3.656247630146     1.636473954306    -0.208289035471     1.007825032230
         H            1.926002630146     2.016759954306    -0.284872035471     1.007825032230
         H            2.696366630146     1.097404954306    -1.603632035471     1.007825032230
         H           -3.660370369854     1.636345954306    -0.208154035471     1.007825032230
         H           -1.930162369854     2.016766954306    -0.285000035471     1.007825032230
         H           -2.700649369854     1.097346954306    -1.603639035471     1.007825032230
         H           -4.355519369854    -0.852870045694     0.245413964529     1.007825032230
         H           -3.068437369854    -2.067099045694     0.408583964529     1.007825032230
         H           -3.405173369854    -1.339021045694    -1.175012035471     1.007825032230

  Basis Set: AUG-CC-PVTZ
    Blend: AUG-CC-PVTZ
  Basis Set: (AUG-CC-PVTZ AUX)
    Blend: AUG-CC-PVTZ-JKFIT
	 Reference Energy          =    -498.0410560600730037 [Eh]
	 Singles Energy            =      -0.0000000000000000 [Eh]
	 Same-Spin Energy          =      -0.4936641401111011 [Eh]
	 Opposite-Spin Energy      =      -1.6230118311317805 [Eh]
	 Correlation Energy        =      -2.1166759712428815 [Eh]
	 Total Energy              =    -500.1577320313159021 [Eh]

	 ================> DF-SCS-MP2 Energies <==================
	-----------------------------------------------------------
	 SCS Same-Spin Scale       =       0.3333333333333333 [-]
	 SCS Opposite-Spin Scale   =       1.2000000000000000 [-]
	 SCS Same-Spin Energy      =      -0.1645547133703670 [Eh]
	 SCS Opposite-Spin Energy  =      -1.9476141973581365 [Eh]
	 SCS Correlation Energy    =      -2.1121689107285033 [Eh]
	 SCS Total Energy          =    -500.1532249708014888 [Eh]
	-----------------------------------------------------------

  Dipole Moment: [D]
     X:    -0.2388      Y:    -0.1689      Z:    -0.4047     Total:     0.4994

*** Psi4 exiting successfully. Buy a developer a beer!
