                               Psi4 1.3.2 release

  ==> Input File <==

--------------------------------------------------------------------------
#psi4
#
memory 32 gb

molecule  {
0 1
  O        1.1599251    -0.4735733    -0.1801886
  O       -1.0823250    -0.5564370    -0.2635130
  O        0.0000290     0.8790020     1.1568390
  C        2.3645980    -0.0472600     0.2117580
  C       -2.3645710    -0.0472670     0.2117220
  C        3.3580870    -1.1527530    -0.0787140
  C        2.6794210     1.2541120    -0.5011060
  C       -2.6796530     1.2540600    -0.5011170
  C       -3.3579470    -1.1529030    -0.0785870
  C        0.0000190     0.0134100     0.2963400
  H        2.2751950     0.1248800     1.2880410
  H       -2.2750520     0.1249260     1.2879850
  H        4.3537060    -0.8600380     0.2666930
  H        3.0667940    -2.0744370     0.4299490
  H        3.4032550    -1.3462360    -1.1536500
  H        3.6582030     1.6290460    -0.1867860
  H        1.9279580     2.0093320    -0.2633690
  H        2.6983220     1.0899770    -1.5821290
  H       -3.6584150     1.6289180    -0.1866510
  H       -1.9282070     2.0093390    -0.2634970
  H       -2.6986940     1.0899190    -1.5821360
  H       -4.3535640    -0.8602980     0.2669170
  H       -3.0664820    -2.0745270     0.4300870
  H       -3.4032180    -1.3464490    -1.1535090
units angstrom
no_reorient  #important for SAPT in psi4, default
symmetry c1  #important for SAPT in psi4, default
}

set PROPERTIES_ORIGIN ["COM"]
properties('MP2/aug-cc-pvtz', properties = ['dipole'])
--------------------------------------------------------------------------

    Molecular point group: c1
  Charge       = 0
  Multiplicity = 1
  Basis Set: AUG-CC-PVTZ
    Blend: AUG-CC-PVTZ
  Basis Set: (AUG-CC-PVTZ AUX)
    Blend: AUG-CC-PVTZ-JKFIT

    Orbital Energies [Eh]
    ---------------------

    Doubly Occupied:

       1A    -20.611636     2A    -20.596941     3A    -20.538758
       4A    -11.435148     5A    -11.299865     6A    -11.281677
       7A    -11.225585     8A    -11.221844     9A    -11.217210
      10A    -11.211062    11A     -1.505064    12A     -1.416522
      13A     -1.355050    14A     -1.085915    15A     -1.054256
      16A     -0.950133    17A     -0.943748    18A     -0.897137
      19A     -0.812346    20A     -0.768385    21A     -0.760524
      22A     -0.700688    23A     -0.677308    24A     -0.641398
      25A     -0.629310    26A     -0.623451    27A     -0.583553
      28A     -0.574180    29A     -0.558076    30A     -0.552109
      31A     -0.543791    32A     -0.538723    33A     -0.533166
      34A     -0.519753    35A     -0.507532    36A     -0.491682
      37A     -0.481218    38A     -0.460142    39A     -0.457739
      40A     -0.439707

  @DF-RHF Final Energy:  -498.02954383601974

   => Energetics <=

    Nuclear Repulsion Energy =            579.4449469998346558
    One-Electron Energy =               -1829.5443157509432694
    Two-Electron Energy =                 752.0698249150889296
    Total Energy =                       -498.0295438360196840
  Basis Set: (AUG-CC-PVTZ AUX)
    Blend: AUG-CC-PVTZ-RI
    Molecular point group: c1

    Geometry (in Angstrom), charge = 0, multiplicity = 1:

       Center              X                  Y                   Z               Mass
    ------------   -----------------  -----------------  -----------------  -----------------
         O            1.151431145632    -0.474906204388    -0.205578179277    15.994914619570
         O           -1.090818954368    -0.557769904388    -0.288902579277    15.994914619570
         O           -0.008464954368     0.877669095612     1.131449420723    15.994914619570
         C            2.356104045632    -0.048592904388     0.186368420723    12.000000000000
         C           -2.373064954368    -0.048599904388     0.186332420723    12.000000000000
         C            3.349593045632    -1.154085904388    -0.104103579277    12.000000000000
         C            2.670927045632     1.252779095612    -0.526495579277    12.000000000000
         C           -2.688146954368     1.252727095612    -0.526506579277    12.000000000000
         C           -3.366440954368    -1.154235904388    -0.103976579277    12.000000000000
         C           -0.008474954368     0.012077095612     0.270950420723    12.000000000000
         H            2.266701045632     0.123547095612     1.262651420723     1.007825032230
         H           -2.283545954368     0.123593095612     1.262595420723     1.007825032230
         H            4.345212045632    -0.861370904388     0.241303420723     1.007825032230
         H            3.058300045632    -2.075769904388     0.404559420723     1.007825032230
         H            3.394761045632    -1.347568904388    -1.179039579277     1.007825032230
         H            3.649709045632     1.627713095612    -0.212175579277     1.007825032230
         H            1.919464045632     2.007999095612    -0.288758579277     1.007825032230
         H            2.689828045632     1.088644095612    -1.607518579277     1.007825032230
         H           -3.666908954368     1.627585095612    -0.212040579277     1.007825032230
         H           -1.936700954368     2.008006095612    -0.288886579277     1.007825032230
         H           -2.707187954368     1.088586095612    -1.607525579277     1.007825032230
         H           -4.362057954368    -0.861630904388     0.241527420723     1.007825032230
         H           -3.074975954368    -2.075859904388     0.404697420723     1.007825032230
         H           -3.411711954368    -1.347781904388    -1.178898579277     1.007825032230

  Basis Set: AUG-CC-PVTZ
    Blend: AUG-CC-PVTZ
  Basis Set: (AUG-CC-PVTZ AUX)
    Blend: AUG-CC-PVTZ-JKFIT
	 Reference Energy          =    -498.0295438360197409 [Eh]
	 Singles Energy            =      -0.0000000000000000 [Eh]
	 Same-Spin Energy          =      -0.4938830066871638 [Eh]
	 Opposite-Spin Energy      =      -1.6220499087129125 [Eh]
	 Correlation Energy        =      -2.1159329154000766 [Eh]
	 Total Energy              =    -500.1454767514198352 [Eh]

	 ================> DF-SCS-MP2 Energies <==================
	-----------------------------------------------------------
	 SCS Same-Spin Scale       =       0.3333333333333333 [-]
	 SCS Opposite-Spin Scale   =       1.2000000000000000 [-]
	 SCS Same-Spin Energy      =      -0.1646276688957213 [Eh]
	 SCS Opposite-Spin Energy  =      -1.9464598904554951 [Eh]
	 SCS Correlation Energy    =      -2.1110875593512164 [Eh]
	 SCS Total Energy          =    -500.1406313953709741 [Eh]
	-----------------------------------------------------------

  Dipole Moment: [D]
     X:    -0.5877      Y:    -0.3120      Z:    -0.4396     Total:     0.7975

*** Psi4 exiting successfully. Buy a developer a beer!
