                               Psi4 1.3.2 release

  ==> Input File <==

--------------------------------------------------------------------------
#psi4
#
memory 32 gb

molecule  {
0 1
  O        1.0961311    -0.5430956    -0.2499699
  O       -1.0823250    -0.5564370    -0.2635130
  O        0.0000290     0.8790020     1.1568390
  C        2.3645980    -0.0472600     0.2117580
  C       -2.3645710    -0.0472670     0.2117220
  C        3.3580870    -1.1527530    -0.0787140
  C        2.6794210     1.2541120    -0.5011060
  C       -2.6796530     1.2540600    -0.5011170
  C       -3.3579470    -1.1529030    -0.0785870
  C        0.0000190     0.0134100     0.2963400
  H        2.2751950     0.1248800     1.2880410
  H       -2.2750520     0.1249260     1.2879850
  H        4.3537060    -0.8600380     0.2666930
  H        3.0667940    -2.0744370     0.4299490
  H        3.4032550    -1.3462360    -1.1536500
  H        3.6582030     1.6290460    -0.1867860
  H        1.9279580     2.0093320    -0.2633690
  H        2.6983220     1.0899770    -1.5821290
  H       -3.6584150     1.6289180    -0.1866510
  H       -1.9282070     2.0093390    -0.2634970
  H       -2.6986940     1.0899190    -1.5821360
  H       -4.3535640    -0.8602980     0.2669170
  H       -3.0664820    -2.0745270     0.4300870
  H       -3.4032180    -1.3464490    -1.1535090
units angstrom
no_reorient  #important for SAPT in psi4, default
symmetry c1  #important for SAPT in psi4, default
}

set PROPERTIES_ORIGIN ["COM"]
properties('MP2/aug-cc-pvtz', properties = ['dipole'])
--------------------------------------------------------------------------

    Molecular point group: c1
  Charge       = 0
  Multiplicity = 1
  Basis Set: AUG-CC-PVTZ
    Blend: AUG-CC-PVTZ
  Basis Set: (AUG-CC-PVTZ AUX)
    Blend: AUG-CC-PVTZ-JKFIT

    Orbital Energies [Eh]
    ---------------------

    Doubly Occupied:

       1A    -20.602744     2A    -20.600579     3A    -20.540836
       4A    -11.428944     5A    -11.294800     6A    -11.291606
       7A    -11.222292     8A    -11.220887     9A    -11.219068
      10A    -11.217264    11A     -1.493656    12A     -1.393726
      13A     -1.354288    14A     -1.082317    15A     -1.054211
      16A     -0.947002    17A     -0.945849    18A     -0.879743
      19A     -0.802450    20A     -0.769145    21A     -0.748474
      22A     -0.696125    23A     -0.674894    24A     -0.633777
      25A     -0.625516    26A     -0.616730    27A     -0.581275
      28A     -0.574848    29A     -0.558951    30A     -0.549066
      31A     -0.547752    32A     -0.534080    33A     -0.528091
      34A     -0.518006    35A     -0.506073    36A     -0.490074
      37A     -0.484893    38A     -0.468296    39A     -0.456293
      40A     -0.451102

  @DF-RHF Final Energy:  -498.03977978964542

   => Energetics <=

    Nuclear Repulsion Energy =            577.6204167589685312
    One-Electron Energy =               -1826.1089455264063872
    Two-Electron Energy =                 750.4487489777924338
    Total Energy =                       -498.0397797896454222
  Basis Set: (AUG-CC-PVTZ AUX)
    Blend: AUG-CC-PVTZ-RI
    Molecular point group: c1

    Geometry (in Angstrom), charge = 0, multiplicity = 1:

       Center              X                  Y                   Z               Mass
    ------------   -----------------  -----------------  -----------------  -----------------
         O            1.094621536008    -0.536816959680    -0.267719578343    15.994914619570
         O           -1.083834563992    -0.550158359680    -0.281262678343    15.994914619570
         O           -0.001480563992     0.885280640320     1.139089321657    15.994914619570
         C            2.363088436008    -0.040981359680     0.194008321657    12.000000000000
         C           -2.366080563992    -0.040988359680     0.193972321657    12.000000000000
         C            3.356577436008    -1.146474359680    -0.096463678343    12.000000000000
         C            2.677911436008     1.260390640320    -0.518855678343    12.000000000000
         C           -2.681162563992     1.260338640320    -0.518866678343    12.000000000000
         C           -3.359456563992    -1.146624359680    -0.096336678343    12.000000000000
         C           -0.001490563992     0.019688640320     0.278590321657    12.000000000000
         H            2.273685436008     0.131158640320     1.270291321657     1.007825032230
         H           -2.276561563992     0.131204640320     1.270235321657     1.007825032230
         H            4.352196436008    -0.853759359680     0.248943321657     1.007825032230
         H            3.065284436008    -2.068158359680     0.412199321657     1.007825032230
         H            3.401745436008    -1.339957359680    -1.171399678343     1.007825032230
         H            3.656693436008     1.635324640320    -0.204535678343     1.007825032230
         H            1.926448436008     2.015610640320    -0.281118678343     1.007825032230
         H            2.696812436008     1.096255640320    -1.599878678343     1.007825032230
         H           -3.659924563992     1.635196640320    -0.204400678343     1.007825032230
         H           -1.929716563992     2.015617640320    -0.281246678343     1.007825032230
         H           -2.700203563992     1.096197640320    -1.599885678343     1.007825032230
         H           -4.355073563992    -0.854019359680     0.249167321657     1.007825032230
         H           -3.067991563992    -2.068248359680     0.412337321657     1.007825032230
         H           -3.404727563992    -1.340170359680    -1.171258678343     1.007825032230

  Basis Set: AUG-CC-PVTZ
    Blend: AUG-CC-PVTZ
  Basis Set: (AUG-CC-PVTZ AUX)
    Blend: AUG-CC-PVTZ-JKFIT
	 Reference Energy          =    -498.0397797896454222 [Eh]
	 Singles Energy            =      -0.0000000000000000 [Eh]
	 Same-Spin Energy          =      -0.4941680422705237 [Eh]
	 Opposite-Spin Energy      =      -1.6242376030867669 [Eh]
	 Correlation Energy        =      -2.1184056453572904 [Eh]
	 Total Energy              =    -500.1581854350027356 [Eh]

	 ================> DF-SCS-MP2 Energies <==================
	-----------------------------------------------------------
	 SCS Same-Spin Scale       =       0.3333333333333333 [-]
	 SCS Opposite-Spin Scale   =       1.2000000000000000 [-]
	 SCS Same-Spin Energy      =      -0.1647226807568412 [Eh]
	 SCS Opposite-Spin Energy  =      -1.9490851237041202 [Eh]
	 SCS Correlation Energy    =      -2.1138078044609614 [Eh]
	 SCS Total Energy          =    -500.1535875941063978 [Eh]
	-----------------------------------------------------------

  Dipole Moment: [D]
     X:    -0.0955      Y:    -0.1455      Z:    -0.3130     Total:     0.3581

*** Psi4 exiting successfully. Buy a developer a beer!
