                               Psi4 1.3.2 release

  ==> Input File <==

--------------------------------------------------------------------------
#psi4
#
memory 32 gb

molecule  {
0 1
  O        1.0823540    -0.5566580    -0.2632920
  O       -1.0823250    -0.5564370    -0.2635130
  O        0.0000290     0.8790020     1.1568390
  C        2.3645980    -0.0472600     0.2117580
  C       -2.3645710    -0.0472670     0.2117220
  C        3.3580870    -1.1527530    -0.0787140
  C        2.6794210     1.2541120    -0.5011060
  C       -2.6796530     1.2540600    -0.5011170
  C       -3.3579470    -1.1529030    -0.0785870
  C        0.0000198     0.0843290     0.3668417
  H        2.2751950     0.1248800     1.2880410
  H       -2.2750520     0.1249260     1.2879850
  H        4.3537060    -0.8600380     0.2666930
  H        3.0667940    -2.0744370     0.4299490
  H        3.4032550    -1.3462360    -1.1536500
  H        3.6582030     1.6290460    -0.1867860
  H        1.9279580     2.0093320    -0.2633690
  H        2.6983220     1.0899770    -1.5821290
  H       -3.6584150     1.6289180    -0.1866510
  H       -1.9282070     2.0093390    -0.2634970
  H       -2.6986940     1.0899190    -1.5821360
  H       -4.3535640    -0.8602980     0.2669170
  H       -3.0664820    -2.0745270     0.4300870
  H       -3.4032180    -1.3464490    -1.1535090
units angstrom
no_reorient  #important for SAPT in psi4, default
symmetry c1  #important for SAPT in psi4, default
}

set PROPERTIES_ORIGIN ["COM"]
properties('MP2/aug-cc-pvtz', properties = ['dipole'])
--------------------------------------------------------------------------

    Molecular point group: c1
  Charge       = 0
  Multiplicity = 1
  Basis Set: AUG-CC-PVTZ
    Blend: AUG-CC-PVTZ
  Basis Set: (AUG-CC-PVTZ AUX)
    Blend: AUG-CC-PVTZ-JKFIT

    Orbital Energies [Eh]
    ---------------------

    Doubly Occupied:

       1A    -20.589184     2A    -20.589159     3A    -20.570199
       4A    -11.422588     5A    -11.288152     6A    -11.288150
       7A    -11.218385     8A    -11.218384     9A    -11.217805
      10A    -11.217803    11A     -1.512750    12A     -1.394953
      13A     -1.362763    14A     -1.071773    15A     -1.046620
      16A     -0.944460    17A     -0.944260    18A     -0.858962
      19A     -0.793334    20A     -0.769312    21A     -0.742296
      22A     -0.715069    23A     -0.680537    24A     -0.629535
      25A     -0.625730    26A     -0.608878    27A     -0.594250
      28A     -0.575530    29A     -0.558529    30A     -0.546078
      31A     -0.545524    32A     -0.538504    33A     -0.518024
      34A     -0.516738    35A     -0.511638    36A     -0.498033
      37A     -0.485645    38A     -0.468318    39A     -0.465234
      40A     -0.445960

  @DF-RHF Final Energy:  -498.02054474268380

   => Energetics <=

    Nuclear Repulsion Energy =            577.3903218314899277
    One-Electron Energy =               -1825.6436381968155729
    Two-Electron Energy =                 750.2327716226418488
    Total Energy =                       -498.0205447426837964
  Basis Set: (AUG-CC-PVTZ AUX)
    Blend: AUG-CC-PVTZ-RI
    Molecular point group: c1

    Geometry (in Angstrom), charge = 0, multiplicity = 1:

       Center              X                  Y                   Z               Mass
    ------------   -----------------  -----------------  -----------------  -----------------
         O            1.082352735420    -0.554719697357    -0.285374048412    15.994914619570
         O           -1.082326264580    -0.554498697357    -0.285595048412    15.994914619570
         O            0.000027735420     0.880940302643     1.134756951588    15.994914619570
         C            2.364596735420    -0.045321697357     0.189675951588    12.000000000000
         C           -2.364572264580    -0.045328697357     0.189639951588    12.000000000000
         C            3.358085735420    -1.150814697357    -0.100796048412    12.000000000000
         C            2.679419735420     1.256050302643    -0.523188048412    12.000000000000
         C           -2.679654264580     1.255998302643    -0.523199048412    12.000000000000
         C           -3.357948264580    -1.150964697357    -0.100669048412    12.000000000000
         C            0.000018535420     0.086267302643     0.344759651588    12.000000000000
         H            2.275193735420     0.126818302643     1.265958951588     1.007825032230
         H           -2.275053264580     0.126864302643     1.265902951588     1.007825032230
         H            4.353704735420    -0.858099697357     0.244610951588     1.007825032230
         H            3.066792735420    -2.072498697357     0.407866951588     1.007825032230
         H            3.403253735420    -1.344297697357    -1.175732048412     1.007825032230
         H            3.658201735420     1.630984302643    -0.208868048412     1.007825032230
         H            1.927956735420     2.011270302643    -0.285451048412     1.007825032230
         H            2.698320735420     1.091915302643    -1.604211048412     1.007825032230
         H           -3.658416264580     1.630856302643    -0.208733048412     1.007825032230
         H           -1.928208264580     2.011277302643    -0.285579048412     1.007825032230
         H           -2.698695264580     1.091857302643    -1.604218048412     1.007825032230
         H           -4.353565264580    -0.858359697357     0.244834951588     1.007825032230
         H           -3.066483264580    -2.072588697357     0.408004951588     1.007825032230
         H           -3.403219264580    -1.344510697357    -1.175591048412     1.007825032230

  Basis Set: AUG-CC-PVTZ
    Blend: AUG-CC-PVTZ
  Basis Set: (AUG-CC-PVTZ AUX)
    Blend: AUG-CC-PVTZ-JKFIT
	 Reference Energy          =    -498.0205447426837964 [Eh]
	 Singles Energy            =      -0.0000000000000000 [Eh]
	 Same-Spin Energy          =      -0.4940772906490706 [Eh]
	 Opposite-Spin Energy      =      -1.6254796804425347 [Eh]
	 Correlation Energy        =      -2.1195569710916051 [Eh]
	 Total Energy              =    -500.1401017137753797 [Eh]

	 ================> DF-SCS-MP2 Energies <==================
	-----------------------------------------------------------
	 SCS Same-Spin Scale       =       0.3333333333333333 [-]
	 SCS Opposite-Spin Scale   =       1.2000000000000000 [-]
	 SCS Same-Spin Energy      =      -0.1646924302163568 [Eh]
	 SCS Opposite-Spin Energy  =      -1.9505756165310415 [Eh]
	 SCS Correlation Energy    =      -2.1152680467473983 [Eh]
	 SCS Total Energy          =    -500.1358127894312133 [Eh]
	-----------------------------------------------------------

  Dipole Moment: [D]
     X:     0.0001      Y:     0.4018      Z:     0.2592     Total:     0.4781

*** Psi4 exiting successfully. Buy a developer a beer!
