                               Psi4 1.3.2 release

  ==> Input File <==

--------------------------------------------------------------------------
#psi4
#
memory 32 gb

molecule  {
0 1
  O        1.0823540    -0.5566580    -0.2632920
  O       -1.0823250    -0.5564370    -0.2635130
  O        0.0000290     0.8790020     1.1568390
  C        2.3645980    -0.0472600     0.2117580
  C       -2.1888243    -0.1170547     0.1465855
  C        3.3580870    -1.1527530    -0.0787140
  C        2.6794210     1.2541120    -0.5011060
  C       -2.6796530     1.2540600    -0.5011170
  C       -3.3579470    -1.1529030    -0.0785870
  C        0.0000190     0.0134100     0.2963400
  H        2.2751950     0.1248800     1.2880410
  H       -2.2750520     0.1249260     1.2879850
  H        4.3537060    -0.8600380     0.2666930
  H        3.0667940    -2.0744370     0.4299490
  H        3.4032550    -1.3462360    -1.1536500
  H        3.6582030     1.6290460    -0.1867860
  H        1.9279580     2.0093320    -0.2633690
  H        2.6983220     1.0899770    -1.5821290
  H       -3.6584150     1.6289180    -0.1866510
  H       -1.9282070     2.0093390    -0.2634970
  H       -2.6986940     1.0899190    -1.5821360
  H       -4.3535640    -0.8602980     0.2669170
  H       -3.0664820    -2.0745270     0.4300870
  H       -3.4032180    -1.3464490    -1.1535090
units angstrom
no_reorient  #important for SAPT in psi4, default
symmetry c1  #important for SAPT in psi4, default
}

set PROPERTIES_ORIGIN ["COM"]
properties('MP2/aug-cc-pvtz', properties = ['dipole'])
--------------------------------------------------------------------------

    Molecular point group: c1
  Charge       = 0
  Multiplicity = 1
  Basis Set: AUG-CC-PVTZ
    Blend: AUG-CC-PVTZ
  Basis Set: (AUG-CC-PVTZ AUX)
    Blend: AUG-CC-PVTZ-JKFIT

    Orbital Energies [Eh]
    ---------------------

    Doubly Occupied:

       1A    -20.625418     2A    -20.612139     3A    -20.555601
       4A    -11.444547     5A    -11.300831     6A    -11.292217
       7A    -11.226750     8A    -11.223707     9A    -11.215659
      10A    -11.211063    11A     -1.539101    12A     -1.435723
      13A     -1.370252    14A     -1.085940    15A     -1.038392
      16A     -0.951789    17A     -0.932011    18A     -0.911961
      19A     -0.810978    20A     -0.774844    21A     -0.766440
      22A     -0.717850    23A     -0.688709    24A     -0.648539
      25A     -0.628209    26A     -0.625384    27A     -0.589851
      28A     -0.574708    29A     -0.561258    30A     -0.555135
      31A     -0.548093    32A     -0.536204    33A     -0.535706
      34A     -0.523400    35A     -0.510543    36A     -0.492378
      37A     -0.483046    38A     -0.464742    39A     -0.442152
      40A     -0.415780

  @DF-RHF Final Energy:  -497.99927626006712

   => Energetics <=

    Nuclear Repulsion Energy =            580.4005866227913657
    One-Electron Energy =               -1831.0656257043078767
    Two-Electron Energy =                 752.6657628214495617
    Total Energy =                       -497.9992762600670630
  Basis Set: (AUG-CC-PVTZ AUX)
    Blend: AUG-CC-PVTZ-RI
    Molecular point group: c1

    Geometry (in Angstrom), charge = 0, multiplicity = 1:

       Center              X                  Y                   Z               Mass
    ------------   -----------------  -----------------  -----------------  -----------------
         O            1.067917190145    -0.543162227519    -0.274232898734    15.994914619570
         O           -1.096761809855    -0.542941227519    -0.274453898734    15.994914619570
         O           -0.014407809855     0.892497772481     1.145898101266    15.994914619570
         C            2.350161190145    -0.033764227519     0.200817101266    12.000000000000
         C           -2.203261109855    -0.103558927519     0.135644601266    12.000000000000
         C            3.343650190145    -1.139257227519    -0.089654898734    12.000000000000
         C            2.664984190145     1.267607772481    -0.512046898734    12.000000000000
         C           -2.694089809855     1.267555772481    -0.512057898734    12.000000000000
         C           -3.372383809855    -1.139407227519    -0.089527898734    12.000000000000
         C           -0.014417809855     0.026905772481     0.285399101266    12.000000000000
         H            2.260758190145     0.138375772481     1.277100101266     1.007825032230
         H           -2.289488809855     0.138421772481     1.277044101266     1.007825032230
         H            4.339269190145    -0.846542227519     0.255752101266     1.007825032230
         H            3.052357190145    -2.060941227519     0.419008101266     1.007825032230
         H            3.388818190145    -1.332740227519    -1.164590898734     1.007825032230
         H            3.643766190145     1.642541772481    -0.197726898734     1.007825032230
         H            1.913521190145     2.022827772481    -0.274309898734     1.007825032230
         H            2.683885190145     1.103472772481    -1.593069898734     1.007825032230
         H           -3.672851809855     1.642413772481    -0.197591898734     1.007825032230
         H           -1.942643809855     2.022834772481    -0.274437898734     1.007825032230
         H           -2.713130809855     1.103414772481    -1.593076898734     1.007825032230
         H           -4.368000809855    -0.846802227519     0.255976101266     1.007825032230
         H           -3.080918809855    -2.061031227519     0.419146101266     1.007825032230
         H           -3.417654809855    -1.332953227519    -1.164449898734     1.007825032230

  Basis Set: AUG-CC-PVTZ
    Blend: AUG-CC-PVTZ
  Basis Set: (AUG-CC-PVTZ AUX)
    Blend: AUG-CC-PVTZ-JKFIT
	 Reference Energy          =    -497.9992762600671199 [Eh]
	 Singles Energy            =      -0.0000000000000000 [Eh]
	 Same-Spin Energy          =      -0.4952423437203506 [Eh]
	 Opposite-Spin Energy      =      -1.6252680175785756 [Eh]
	 Correlation Energy        =      -2.1205103612989262 [Eh]
	 Total Energy              =    -500.1197866213660745 [Eh]

	 ================> DF-SCS-MP2 Energies <==================
	-----------------------------------------------------------
	 SCS Same-Spin Scale       =       0.3333333333333333 [-]
	 SCS Opposite-Spin Scale   =       1.2000000000000000 [-]
	 SCS Same-Spin Energy      =      -0.1650807812401169 [Eh]
	 SCS Opposite-Spin Energy  =      -1.9503216210942906 [Eh]
	 SCS Correlation Energy    =      -2.1154024023344076 [Eh]
	 SCS Total Energy          =    -500.1146786624015022 [Eh]
	-----------------------------------------------------------

  Dipole Moment: [D]
     X:     1.0689      Y:    -0.2460      Z:    -0.3139     Total:     1.1409

*** Psi4 exiting successfully. Buy a developer a beer!
