                               Psi4 1.3.2 release

  ==> Input File <==

--------------------------------------------------------------------------
#psi4
#
memory 32 gb

molecule  {
0 1
  O        1.0823540    -0.5566580    -0.2632920
  O       -1.0766924    -0.4750965    -0.3245501
  O        0.0000290     0.8790020     1.1568390
  C        2.3645980    -0.0472600     0.2117580
  C       -2.3645710    -0.0472670     0.2117220
  C        3.3580870    -1.1527530    -0.0787140
  C        2.6794210     1.2541120    -0.5011060
  C       -2.6796530     1.2540600    -0.5011170
  C       -3.3579470    -1.1529030    -0.0785870
  C        0.0000190     0.0134100     0.2963400
  H        2.2751950     0.1248800     1.2880410
  H       -2.2750520     0.1249260     1.2879850
  H        4.3537060    -0.8600380     0.2666930
  H        3.0667940    -2.0744370     0.4299490
  H        3.4032550    -1.3462360    -1.1536500
  H        3.6582030     1.6290460    -0.1867860
  H        1.9279580     2.0093320    -0.2633690
  H        2.6983220     1.0899770    -1.5821290
  H       -3.6584150     1.6289180    -0.1866510
  H       -1.9282070     2.0093390    -0.2634970
  H       -2.6986940     1.0899190    -1.5821360
  H       -4.3535640    -0.8602980     0.2669170
  H       -3.0664820    -2.0745270     0.4300870
  H       -3.4032180    -1.3464490    -1.1535090
units angstrom
no_reorient  #important for SAPT in psi4, default
symmetry c1  #important for SAPT in psi4, default
}

set PROPERTIES_ORIGIN ["COM"]
properties('MP2/aug-cc-pvtz', properties = ['dipole'])
--------------------------------------------------------------------------

    Molecular point group: c1
  Charge       = 0
  Multiplicity = 1
  Basis Set: AUG-CC-PVTZ
    Blend: AUG-CC-PVTZ
  Basis Set: (AUG-CC-PVTZ AUX)
    Blend: AUG-CC-PVTZ-JKFIT

    Orbital Energies [Eh]
    ---------------------

    Doubly Occupied:

       1A    -20.600575     2A    -20.600342     3A    -20.539236
       4A    -11.426745     5A    -11.294708     6A    -11.293382
       7A    -11.223510     8A    -11.221404     9A    -11.218125
      10A    -11.216232    11A     -1.493824    12A     -1.390558
      13A     -1.353110    14A     -1.082350    15A     -1.054490
      16A     -0.946046    17A     -0.945911    18A     -0.877121
      19A     -0.801439    20A     -0.770258    21A     -0.747749
      22A     -0.695266    23A     -0.674238    24A     -0.630989
      25A     -0.624862    26A     -0.615542    27A     -0.580701
      28A     -0.576369    29A     -0.560122    30A     -0.548628
      31A     -0.547964    32A     -0.533457    33A     -0.526086
      34A     -0.516406    35A     -0.505898    36A     -0.489944
      37A     -0.486412    38A     -0.468454    39A     -0.454774
      40A     -0.451141

  @DF-RHF Final Energy:  -498.03828880529312

   => Energetics <=

    Nuclear Repulsion Energy =            577.7702413456014483
    One-Electron Energy =               -1826.4483275643015077
    Two-Electron Energy =                 750.6397974134069955
    Total Energy =                       -498.0382888052931776
  Basis Set: (AUG-CC-PVTZ AUX)
    Blend: AUG-CC-PVTZ-RI
    Molecular point group: c1

    Geometry (in Angstrom), charge = 0, multiplicity = 1:

       Center              X                  Y                   Z               Mass
    ------------   -----------------  -----------------  -----------------  -----------------
         O            1.081736124371    -0.557799943268    -0.272900572896    15.994914619570
         O           -1.077310275629    -0.476238443268    -0.334158672896    15.994914619570
         O           -0.000588875629     0.877860056732     1.147230427104    15.994914619570
         C            2.363980124371    -0.048401943268     0.202149427104    12.000000000000
         C           -2.365188875629    -0.048408943268     0.202113427104    12.000000000000
         C            3.357469124371    -1.153894943268    -0.088322572896    12.000000000000
         C            2.678803124371     1.252970056732    -0.510714572896    12.000000000000
         C           -2.680270875629     1.252918056732    -0.510725572896    12.000000000000
         C           -3.358564875629    -1.154044943268    -0.088195572896    12.000000000000
         C           -0.000598875629     0.012268056732     0.286731427104    12.000000000000
         H            2.274577124371     0.123738056732     1.278432427104     1.007825032230
         H           -2.275669875629     0.123784056732     1.278376427104     1.007825032230
         H            4.353088124371    -0.861179943268     0.257084427104     1.007825032230
         H            3.066176124371    -2.075578943268     0.420340427104     1.007825032230
         H            3.402637124371    -1.347377943268    -1.163258572896     1.007825032230
         H            3.657585124371     1.627904056732    -0.196394572896     1.007825032230
         H            1.927340124371     2.008190056732    -0.272977572896     1.007825032230
         H            2.697704124371     1.088835056732    -1.591737572896     1.007825032230
         H           -3.659032875629     1.627776056732    -0.196259572896     1.007825032230
         H           -1.928824875629     2.008197056732    -0.273105572896     1.007825032230
         H           -2.699311875629     1.088777056732    -1.591744572896     1.007825032230
         H           -4.354181875629    -0.861439943268     0.257308427104     1.007825032230
         H           -3.067099875629    -2.075668943268     0.420478427104     1.007825032230
         H           -3.403835875629    -1.347590943268    -1.163117572896     1.007825032230

  Basis Set: AUG-CC-PVTZ
    Blend: AUG-CC-PVTZ
  Basis Set: (AUG-CC-PVTZ AUX)
    Blend: AUG-CC-PVTZ-JKFIT
	 Reference Energy          =    -498.0382888052931207 [Eh]
	 Singles Energy            =      -0.0000000000000000 [Eh]
	 Same-Spin Energy          =      -0.4942011790253214 [Eh]
	 Opposite-Spin Energy      =      -1.6245210818844140 [Eh]
	 Correlation Energy        =      -2.1187222609097356 [Eh]
	 Total Energy              =    -500.1570110662028696 [Eh]

	 ================> DF-SCS-MP2 Energies <==================
	-----------------------------------------------------------
	 SCS Same-Spin Scale       =       0.3333333333333333 [-]
	 SCS Opposite-Spin Scale   =       1.2000000000000000 [-]
	 SCS Same-Spin Energy      =      -0.1647337263417738 [Eh]
	 SCS Opposite-Spin Energy  =      -1.9494252982612967 [Eh]
	 SCS Correlation Energy    =      -2.1141590246030706 [Eh]
	 SCS Total Energy          =    -500.1524478298961753 [Eh]
	-----------------------------------------------------------

  Dipole Moment: [D]
     X:    -0.0602      Y:    -0.2579      Z:    -0.2326     Total:     0.3524

*** Psi4 exiting successfully. Buy a developer a beer!
