                               Psi4 1.3.2 release

  ==> Input File <==

--------------------------------------------------------------------------
#psi4
#
memory 32 gb

molecule  {
0 1
  O        1.0823540    -0.5566580    -0.2632920
  O       -1.0823250    -0.5564370    -0.2635130
  O        0.0000290     0.8790020     1.1568390
  C        2.3645980    -0.0472600     0.2117580
  C       -2.4100256    -0.1127206     0.1482930
  C        3.3580870    -1.1527530    -0.0787140
  C        2.6794210     1.2541120    -0.5011060
  C       -2.6796530     1.2540600    -0.5011170
  C       -3.3579470    -1.1529030    -0.0785870
  C        0.0000190     0.0134100     0.2963400
  H        2.2751950     0.1248800     1.2880410
  H       -2.2750520     0.1249260     1.2879850
  H        4.3537060    -0.8600380     0.2666930
  H        3.0667940    -2.0744370     0.4299490
  H        3.4032550    -1.3462360    -1.1536500
  H        3.6582030     1.6290460    -0.1867860
  H        1.9279580     2.0093320    -0.2633690
  H        2.6983220     1.0899770    -1.5821290
  H       -3.6584150     1.6289180    -0.1866510
  H       -1.9282070     2.0093390    -0.2634970
  H       -2.6986940     1.0899190    -1.5821360
  H       -4.3535640    -0.8602980     0.2669170
  H       -3.0664820    -2.0745270     0.4300870
  H       -3.4032180    -1.3464490    -1.1535090
units angstrom
no_reorient  #important for SAPT in psi4, default
symmetry c1  #important for SAPT in psi4, default
}

set PROPERTIES_ORIGIN ["COM"]
properties('MP2/aug-cc-pvtz', properties = ['dipole'])
--------------------------------------------------------------------------

    Molecular point group: c1
  Charge       = 0
  Multiplicity = 1
  Basis Set: AUG-CC-PVTZ
    Blend: AUG-CC-PVTZ
  Basis Set: (AUG-CC-PVTZ AUX)
    Blend: AUG-CC-PVTZ-JKFIT

    Orbital Energies [Eh]
    ---------------------

    Doubly Occupied:

       1A    -20.600658     2A    -20.597585     3A    -20.540028
       4A    -11.428322     5A    -11.298150     6A    -11.293489
       7A    -11.221396     8A    -11.220937     9A    -11.219916
      10A    -11.218175    11A     -1.489828    12A     -1.387371
      13A     -1.352986    14A     -1.089559    15A     -1.059604
      16A     -0.952834    17A     -0.946061    18A     -0.878329
      19A     -0.797547    20A     -0.762289    21A     -0.742694
      22A     -0.692840    23A     -0.673455    24A     -0.635503
      25A     -0.629268    26A     -0.617372    27A     -0.582987
      28A     -0.578170    29A     -0.563739    30A     -0.549344
      31A     -0.547771    32A     -0.533346    33A     -0.527776
      34A     -0.521139    35A     -0.507549    36A     -0.491245
      37A     -0.478144    38A     -0.465472    39A     -0.455365
      40A     -0.439140

  @DF-RHF Final Energy:  -498.02625352525217

   => Energetics <=

    Nuclear Repulsion Energy =            577.2032406885625733
    One-Electron Energy =               -1825.2842257165370938
    Two-Electron Energy =                 750.0547315027223476
    Total Energy =                       -498.0262535252521729
  Basis Set: (AUG-CC-PVTZ AUX)
    Blend: AUG-CC-PVTZ-RI
    Molecular point group: c1

    Geometry (in Angstrom), charge = 0, multiplicity = 1:

       Center              X                  Y                   Z               Mass
    ------------   -----------------  -----------------  -----------------  -----------------
         O            1.086086384312    -0.543518224995    -0.274373150618    15.994914619570
         O           -1.078592615688    -0.543297224995    -0.274594150618    15.994914619570
         O            0.003761384312     0.892141775005     1.145757849382    15.994914619570
         C            2.368330384312    -0.034120224995     0.200676849382    12.000000000000
         C           -2.406293215688    -0.099580824995     0.137211849382    12.000000000000
         C            3.361819384312    -1.139613224995    -0.089795150618    12.000000000000
         C            2.683153384312     1.267251775005    -0.512187150618    12.000000000000
         C           -2.675920615688     1.267199775005    -0.512198150618    12.000000000000
         C           -3.354214615688    -1.139763224995    -0.089668150618    12.000000000000
         C            0.003751384312     0.026549775005     0.285258849382    12.000000000000
         H            2.278927384312     0.138019775005     1.276959849382     1.007825032230
         H           -2.271319615688     0.138065775005     1.276903849382     1.007825032230
         H            4.357438384312    -0.846898224995     0.255611849382     1.007825032230
         H            3.070526384312    -2.061297224995     0.418867849382     1.007825032230
         H            3.406987384312    -1.333096224995    -1.164731150618     1.007825032230
         H            3.661935384312     1.642185775005    -0.197867150618     1.007825032230
         H            1.931690384312     2.022471775005    -0.274450150618     1.007825032230
         H            2.702054384312     1.103116775005    -1.593210150618     1.007825032230
         H           -3.654682615688     1.642057775005    -0.197732150618     1.007825032230
         H           -1.924474615688     2.022478775005    -0.274578150618     1.007825032230
         H           -2.694961615688     1.103058775005    -1.593217150618     1.007825032230
         H           -4.349831615688    -0.847158224995     0.255835849382     1.007825032230
         H           -3.062749615688    -2.061387224995     0.419005849382     1.007825032230
         H           -3.399485615688    -1.333309224995    -1.164590150618     1.007825032230

  Basis Set: AUG-CC-PVTZ
    Blend: AUG-CC-PVTZ
  Basis Set: (AUG-CC-PVTZ AUX)
    Blend: AUG-CC-PVTZ-JKFIT
	 Reference Energy          =    -498.0262535252521729 [Eh]
	 Singles Energy            =      -0.0000000000000000 [Eh]
	 Same-Spin Energy          =      -0.4950806036769937 [Eh]
	 Opposite-Spin Energy      =      -1.6256987035076813 [Eh]
	 Correlation Energy        =      -2.1207793071846752 [Eh]
	 Total Energy              =    -500.1470328324368211 [Eh]

	 ================> DF-SCS-MP2 Energies <==================
	-----------------------------------------------------------
	 SCS Same-Spin Scale       =       0.3333333333333333 [-]
	 SCS Opposite-Spin Scale   =       1.2000000000000000 [-]
	 SCS Same-Spin Energy      =      -0.1650268678923312 [Eh]
	 SCS Opposite-Spin Energy  =      -1.9508384442092175 [Eh]
	 SCS Correlation Energy    =      -2.1158653121015485 [Eh]
	 SCS Total Energy          =    -500.1421188373537348 [Eh]
	-----------------------------------------------------------

  Dipole Moment: [D]
     X:    -0.1291      Y:    -0.2305      Z:    -0.3511     Total:     0.4394

*** Psi4 exiting successfully. Buy a developer a beer!
