                               Psi4 1.3.2 release

  ==> Input File <==

--------------------------------------------------------------------------
#psi4
#
memory 32 gb

molecule  {
0 1
  O        1.0823540    -0.5566580    -0.2632920
  O       -1.0803296    -0.5363192    -0.2790012
  O        0.0000290     0.8790020     1.1568390
  C        2.3645980    -0.0472600     0.2117580
  C       -2.3645710    -0.0472670     0.2117220
  C        3.3580870    -1.1527530    -0.0787140
  C        2.6794210     1.2541120    -0.5011060
  C       -2.6796530     1.2540600    -0.5011170
  C       -3.3579470    -1.1529030    -0.0785870
  C        0.0000190     0.0134100     0.2963400
  H        2.2751950     0.1248800     1.2880410
  H       -2.2750520     0.1249260     1.2879850
  H        4.3537060    -0.8600380     0.2666930
  H        3.0667940    -2.0744370     0.4299490
  H        3.4032550    -1.3462360    -1.1536500
  H        3.6582030     1.6290460    -0.1867860
  H        1.9279580     2.0093320    -0.2633690
  H        2.6983220     1.0899770    -1.5821290
  H       -3.6584150     1.6289180    -0.1866510
  H       -1.9282070     2.0093390    -0.2634970
  H       -2.6986940     1.0899190    -1.5821360
  H       -4.3535640    -0.8602980     0.2669170
  H       -3.0664820    -2.0745270     0.4300870
  H       -3.4032180    -1.3464490    -1.1535090
units angstrom
no_reorient  #important for SAPT in psi4, default
symmetry c1  #important for SAPT in psi4, default
}

set PROPERTIES_ORIGIN ["COM"]
properties('MP2/aug-cc-pvtz', properties = ['dipole'])
--------------------------------------------------------------------------

    Molecular point group: c1
  Charge       = 0
  Multiplicity = 1
  Basis Set: AUG-CC-PVTZ
    Blend: AUG-CC-PVTZ
  Basis Set: (AUG-CC-PVTZ AUX)
    Blend: AUG-CC-PVTZ-JKFIT

    Orbital Energies [Eh]
    ---------------------

    Doubly Occupied:

       1A    -20.600926     2A    -20.600665     3A    -20.540609
       4A    -11.427488     5A    -11.294085     6A    -11.293599
       7A    -11.222157     8A    -11.221527     9A    -11.218364
      10A    -11.217975    11A     -1.492574    12A     -1.389603
      13A     -1.353958    14A     -1.081955    15A     -1.054329
      16A     -0.946323    17A     -0.946178    18A     -0.876914
      19A     -0.801113    20A     -0.769444    21A     -0.746283
      22A     -0.695478    23A     -0.674315    24A     -0.632100
      25A     -0.625023    26A     -0.615472    27A     -0.581241
      28A     -0.575054    29A     -0.559311    30A     -0.548566
      31A     -0.548249    32A     -0.533971    33A     -0.526108
      34A     -0.516832    35A     -0.505955    36A     -0.490009
      37A     -0.486005    38A     -0.468721    39A     -0.456321
      40A     -0.451815

  @DF-RHF Final Energy:  -498.03929909249644

   => Energetics <=

    Nuclear Repulsion Energy =            577.4239177723715102
    One-Electron Energy =               -1825.7532091066534576
    Two-Electron Energy =                 750.2899922417856260
    Total Energy =                       -498.0392990924964352
  Basis Set: (AUG-CC-PVTZ AUX)
    Blend: AUG-CC-PVTZ-RI
    Molecular point group: c1

    Geometry (in Angstrom), charge = 0, multiplicity = 1:

       Center              X                  Y                   Z               Mass
    ------------   -----------------  -----------------  -----------------  -----------------
         O            1.082134337756    -0.551097067814    -0.277887425873    15.994914619570
         O           -1.080549262244    -0.530758267814    -0.293596625873    15.994914619570
         O           -0.000190662244     0.884562932186     1.142243574127    15.994914619570
         C            2.364378337756    -0.041699067814     0.197162574127    12.000000000000
         C           -2.364790662244    -0.041706067814     0.197126574127    12.000000000000
         C            3.357867337756    -1.147192067814    -0.093309425873    12.000000000000
         C            2.679201337756     1.259672932186    -0.515701425873    12.000000000000
         C           -2.679872662244     1.259620932186    -0.515712425873    12.000000000000
         C           -3.358166662244    -1.147342067814    -0.093182425873    12.000000000000
         C           -0.000200662244     0.018970932186     0.281744574127    12.000000000000
         H            2.274975337756     0.130440932186     1.273445574127     1.007825032230
         H           -2.275271662244     0.130486932186     1.273389574127     1.007825032230
         H            4.353486337756    -0.854477067814     0.252097574127     1.007825032230
         H            3.066574337756    -2.068876067814     0.415353574127     1.007825032230
         H            3.403035337756    -1.340675067814    -1.168245425873     1.007825032230
         H            3.657983337756     1.634606932186    -0.201381425873     1.007825032230
         H            1.927738337756     2.014892932186    -0.277964425873     1.007825032230
         H            2.698102337756     1.095537932186    -1.596724425873     1.007825032230
         H           -3.658634662244     1.634478932186    -0.201246425873     1.007825032230
         H           -1.928426662244     2.014899932186    -0.278092425873     1.007825032230
         H           -2.698913662244     1.095479932186    -1.596731425873     1.007825032230
         H           -4.353783662244    -0.854737067814     0.252321574127     1.007825032230
         H           -3.066701662244    -2.068966067814     0.415491574127     1.007825032230
         H           -3.403437662244    -1.340888067814    -1.168104425873     1.007825032230

  Basis Set: AUG-CC-PVTZ
    Blend: AUG-CC-PVTZ
  Basis Set: (AUG-CC-PVTZ AUX)
    Blend: AUG-CC-PVTZ-JKFIT
	 Reference Energy          =    -498.0392990924964352 [Eh]
	 Singles Energy            =      -0.0000000000000000 [Eh]
	 Same-Spin Energy          =      -0.4942665474851931 [Eh]
	 Opposite-Spin Energy      =      -1.6247063825320809 [Eh]
	 Correlation Energy        =      -2.1189729300172742 [Eh]
	 Total Energy              =    -500.1582720225136995 [Eh]

	 ================> DF-SCS-MP2 Energies <==================
	-----------------------------------------------------------
	 SCS Same-Spin Scale       =       0.3333333333333333 [-]
	 SCS Opposite-Spin Scale   =       1.2000000000000000 [-]
	 SCS Same-Spin Energy      =      -0.1647555158283977 [Eh]
	 SCS Opposite-Spin Energy  =      -1.9496476590384970 [Eh]
	 SCS Correlation Energy    =      -2.1144031748668946 [Eh]
	 SCS Total Energy          =    -500.1537022673633146 [Eh]
	-----------------------------------------------------------

  Dipole Moment: [D]
     X:    -0.0239      Y:    -0.1512      Z:    -0.2771     Total:     0.3166

*** Psi4 exiting successfully. Buy a developer a beer!
