                               Psi4 1.4a3.dev225

  ==> Input File <==

--------------------------------------------------------------------------
#psi4
#
memory 32 gb

molecule  {
0 1
  O        1.0823660    -0.5568910    -0.2629560
  O       -1.0823640    -0.5568750    -0.2629780
  O       -0.0000050     0.8796030     1.1562750
  C        2.3645860    -0.0472710     0.2118040
  C       -2.3645830    -0.0472720     0.2117990
  C        3.3581450    -1.1527440    -0.0787380
  C        2.6794270     1.2540320    -0.5011890
  C       -2.6794360     1.2540300    -0.5011890
  C       -3.3581360    -1.1527540    -0.0787300
  C       -0.0000012     0.0489077     0.3315995
  H        2.2753340     0.1249760     1.2880770
  H       -2.2753170     0.1249770     1.2880710
  H        4.3539520    -0.8597410     0.2658680
  H        3.0673460    -2.0742840     0.4304720
  H        3.4026140    -1.3466350    -1.1536290
  H        3.6579950     1.6291330    -0.1863970
  H        1.9277540     2.0091980    -0.2639900
  H        2.6989690     1.0896910    -1.5821710
  H       -3.6580010     1.6291290    -0.1863860
  H       -1.9277600     2.0091950    -0.2639970
  H       -2.6989890     1.0896910    -1.5821710
  H       -4.3539420    -0.8597570     0.2658840
  H       -3.0673260    -2.0742900     0.4304790
  H       -3.4026140    -1.3466480    -1.1536200
units angstrom
no_reorient  #important for SAPT in psi4, default
symmetry c1  #important for SAPT in psi4, default
}

set PROPERTIES_ORIGIN ["COM"]
properties('MP2/aug-cc-pvtz', properties = ['dipole'])
--------------------------------------------------------------------------

    Molecular point group: c1
  Charge       = 0
  Multiplicity = 1
  Basis Set: AUG-CC-PVTZ
    Blend: AUG-CC-PVTZ
  Basis Set: (AUG-CC-PVTZ AUX)
    Blend: AUG-CC-PVTZ-JKFIT

    Orbital Energies [Eh]
    ---------------------

    Doubly Occupied:

       1A    -20.595255     2A    -20.595230     3A    -20.555834
       4A    -11.425722     5A    -11.290946     6A    -11.290945
       7A    -11.220023     8A    -11.220023     9A    -11.218148
      10A    -11.218147    11A     -1.493723    12A     -1.381944
      13A     -1.375713    14A     -1.076726    15A     -1.050333
      16A     -0.945462    17A     -0.945260    18A     -0.867959
      19A     -0.796680    20A     -0.768784    21A     -0.742301
      22A     -0.703037    23A     -0.676399    24A     -0.630717
      25A     -0.625783    26A     -0.612229    27A     -0.587785
      28A     -0.574351    29A     -0.558062    30A     -0.547244
      31A     -0.547146    32A     -0.536038    33A     -0.521511
      34A     -0.514071    35A     -0.512224    36A     -0.493900
      37A     -0.485705    38A     -0.471272    39A     -0.463402
      40A     -0.449724

  @DF-RHF Final Energy:  -498.03506403304698

   => Energetics <=

    Nuclear Repulsion Energy =            577.2977768611041256
    One-Electron Energy =               -1825.4941699980508929
    Two-Electron Energy =                 750.1613291038999023
    Total Energy =                       -498.0350640330469787
  Basis Set: (AUG-CC-PVTZ AUX)
    Blend: AUG-CC-PVTZ-RI
    Molecular point group: c1

    Geometry (in Angstrom), charge = 0, multiplicity = 1:

       Center              X                  Y                   Z               Mass
    ------------   -----------------  -----------------  -----------------  -----------------
         O            1.082366077124    -0.552040153568    -0.282150527386    15.994914619570
         O           -1.082363922876    -0.552024153568    -0.282172527386    15.994914619570
         O           -0.000004922876     0.884453846432     1.137080472614    15.994914619570
         C            2.364586077124    -0.042420153568     0.192609472614    12.000000000000
         C           -2.364582922876    -0.042421153568     0.192604472614    12.000000000000
         C            3.358145077124    -1.147893153568    -0.097932527386    12.000000000000
         C            2.679427077124     1.258882846432    -0.520383527386    12.000000000000
         C           -2.679435922876     1.258880846432    -0.520383527386    12.000000000000
         C           -3.358135922876    -1.147903153568    -0.097924527386    12.000000000000
         C           -0.000001122876     0.053758546432     0.312404972614    12.000000000000
         H            2.275334077124     0.129826846432     1.268882472614     1.007825032230
         H           -2.275316922876     0.129827846432     1.268876472614     1.007825032230
         H            4.353952077124    -0.854890153568     0.246673472614     1.007825032230
         H            3.067346077124    -2.069433153568     0.411277472614     1.007825032230
         H            3.402614077124    -1.341784153568    -1.172823527386     1.007825032230
         H            3.657995077124     1.633983846432    -0.205591527386     1.007825032230
         H            1.927754077124     2.014048846432    -0.283184527386     1.007825032230
         H            2.698969077124     1.094541846432    -1.601365527386     1.007825032230
         H           -3.658000922876     1.633979846432    -0.205580527386     1.007825032230
         H           -1.927759922876     2.014045846432    -0.283191527386     1.007825032230
         H           -2.698988922876     1.094541846432    -1.601365527386     1.007825032230
         H           -4.353941922876    -0.854906153568     0.246689472614     1.007825032230
         H           -3.067325922876    -2.069439153568     0.411284472614     1.007825032230
         H           -3.402613922876    -1.341797153568    -1.172814527386     1.007825032230

  Basis Set: AUG-CC-PVTZ
    Blend: AUG-CC-PVTZ
  Basis Set: (AUG-CC-PVTZ AUX)
    Blend: AUG-CC-PVTZ-JKFIT
	 Reference Energy          =    -498.0350640330469787 [Eh]
	 Singles Energy            =      -0.0000000000000000 [Eh]
	 Same-Spin Energy          =      -0.4942120779486972 [Eh]
	 Opposite-Spin Energy      =      -1.6251658218009126 [Eh]
	 Correlation Energy        =      -2.1193778997496100 [Eh]
	 Total Energy              =    -500.1544419327966011 [Eh]

	 ================> DF-SCS-MP2 Energies <==================
	-----------------------------------------------------------
	 SCS Same-Spin Scale       =       0.3333333333333333 [-]
	 SCS Opposite-Spin Scale   =       1.2000000000000000 [-]
	 SCS Same-Spin Energy      =      -0.1647373593162324 [Eh]
	 SCS Opposite-Spin Energy  =      -1.9501989861610951 [Eh]
	 SCS Correlation Energy    =      -2.1149363454773273 [Eh]
	 SCS Total Energy          =    -500.1500003785242825 [Eh]
	-----------------------------------------------------------

  Dipole Moment: [D]
     X:     0.0000      Y:     0.1410      Z:    -0.0180     Total:     0.1422

*** Psi4 exiting successfully. Buy a developer a beer!
