                               Psi4 1.4a3.dev225

  ==> Input File <==

--------------------------------------------------------------------------
#psi4
#
memory 32 gb

molecule  {
0 1
  O        1.0823660    -0.5568910    -0.2629560
  O       -1.0823640    -0.5568750    -0.2629780
  O       -0.0000050     0.8796030     1.1562750
  C        2.3645860    -0.0472710     0.2118040
  C       -2.3645830    -0.0472720     0.2117990
  C        3.3581450    -1.1527440    -0.0787380
  C        2.6794270     1.2540320    -0.5011890
  C       -2.6794360     1.2540300    -0.5011890
  C       -3.3581360    -1.1527540    -0.0787300
  C        0.0402289     0.0346212     0.3171633
  H        2.2753340     0.1249760     1.2880770
  H       -2.2753170     0.1249770     1.2880710
  H        4.3539520    -0.8597410     0.2658680
  H        3.0673460    -2.0742840     0.4304720
  H        3.4026140    -1.3466350    -1.1536290
  H        3.6579950     1.6291330    -0.1863970
  H        1.9277540     2.0091980    -0.2639900
  H        2.6989690     1.0896910    -1.5821710
  H       -3.6580010     1.6291290    -0.1863860
  H       -1.9277600     2.0091950    -0.2639970
  H       -2.6989890     1.0896910    -1.5821710
  H       -4.3539420    -0.8597570     0.2658840
  H       -3.0673260    -2.0742900     0.4304790
  H       -3.4026140    -1.3466480    -1.1536200
units angstrom
no_reorient  #important for SAPT in psi4, default
symmetry c1  #important for SAPT in psi4, default
}

set PROPERTIES_ORIGIN ["COM"]
properties('MP2/aug-cc-pvtz', properties = ['dipole'])
--------------------------------------------------------------------------

    Molecular point group: c1
  Charge       = 0
  Multiplicity = 1
  Basis Set: AUG-CC-PVTZ
    Blend: AUG-CC-PVTZ
  Basis Set: (AUG-CC-PVTZ AUX)
    Blend: AUG-CC-PVTZ-JKFIT

    Orbital Energies [Eh]
    ---------------------

    Doubly Occupied:

       1A    -20.607394     2A    -20.587733     3A    -20.549951
       4A    -11.427008     5A    -11.297357     6A    -11.286894
       7A    -11.224166     8A    -11.221965     9A    -11.217224
      10A    -11.214663    11A     -1.493812    12A     -1.387638
      13A     -1.363716    14A     -1.080338    15A     -1.050450
      16A     -0.949761    17A     -0.941844    18A     -0.872491
      19A     -0.797921    20A     -0.771381    21A     -0.741031
      22A     -0.699929    23A     -0.676801    24A     -0.630837
      25A     -0.626206    26A     -0.612387    27A     -0.586608
      28A     -0.573261    29A     -0.558799    30A     -0.550912
      31A     -0.544524    32A     -0.535997    33A     -0.522946
      34A     -0.514789    35A     -0.508846    36A     -0.492939
      37A     -0.486407    38A     -0.468360    39A     -0.463384
      40A     -0.448351

  @DF-RHF Final Energy:  -498.03606369475347

   => Energetics <=

    Nuclear Repulsion Energy =            577.2924770181358554
    One-Electron Energy =               -1825.4830320504997871
    Two-Electron Energy =                 750.1544913376105796
    Total Energy =                       -498.0360636947534658
  Basis Set: (AUG-CC-PVTZ AUX)
    Blend: AUG-CC-PVTZ-RI
    Molecular point group: c1

    Geometry (in Angstrom), charge = 0, multiplicity = 1:

       Center              X                  Y                   Z               Mass
    ------------   -----------------  -----------------  -----------------  -----------------
         O            1.079061627746    -0.550866678582    -0.280964756231    15.994914619570
         O           -1.085668372254    -0.550850678582    -0.280986756231    15.994914619570
         O           -0.003309372254     0.885627321418     1.138266243769    15.994914619570
         C            2.361281627746    -0.041246678582     0.193795243769    12.000000000000
         C           -2.367887372254    -0.041247678582     0.193790243769    12.000000000000
         C            3.354840627746    -1.146719678582    -0.096746756231    12.000000000000
         C            2.676122627746     1.260056321418    -0.519197756231    12.000000000000
         C           -2.682740372254     1.260054321418    -0.519197756231    12.000000000000
         C           -3.361440372254    -1.146729678582    -0.096738756231    12.000000000000
         C            0.036924527746     0.040645521418     0.299154543769    12.000000000000
         H            2.272029627746     0.131000321418     1.270068243769     1.007825032230
         H           -2.278621372254     0.131001321418     1.270062243769     1.007825032230
         H            4.350647627746    -0.853716678582     0.247859243769     1.007825032230
         H            3.064041627746    -2.068259678582     0.412463243769     1.007825032230
         H            3.399309627746    -1.340610678582    -1.171637756231     1.007825032230
         H            3.654690627746     1.635157321418    -0.204405756231     1.007825032230
         H            1.924449627746     2.015222321418    -0.281998756231     1.007825032230
         H            2.695664627746     1.095715321418    -1.600179756231     1.007825032230
         H           -3.661305372254     1.635153321418    -0.204394756231     1.007825032230
         H           -1.931064372254     2.015219321418    -0.282005756231     1.007825032230
         H           -2.702293372254     1.095715321418    -1.600179756231     1.007825032230
         H           -4.357246372254    -0.853732678582     0.247875243769     1.007825032230
         H           -3.070630372254    -2.068265678582     0.412470243769     1.007825032230
         H           -3.405918372254    -1.340623678582    -1.171628756231     1.007825032230

  Basis Set: AUG-CC-PVTZ
    Blend: AUG-CC-PVTZ
  Basis Set: (AUG-CC-PVTZ AUX)
    Blend: AUG-CC-PVTZ-JKFIT
	 Reference Energy          =    -498.0360636947534658 [Eh]
	 Singles Energy            =      -0.0000000000000000 [Eh]
	 Same-Spin Energy          =      -0.4943465274277642 [Eh]
	 Opposite-Spin Energy      =      -1.6252034763200438 [Eh]
	 Correlation Energy        =      -2.1195500037478081 [Eh]
	 Total Energy              =    -500.1556136985012699 [Eh]

	 ================> DF-SCS-MP2 Energies <==================
	-----------------------------------------------------------
	 SCS Same-Spin Scale       =       0.3333333333333333 [-]
	 SCS Opposite-Spin Scale   =       1.2000000000000000 [-]
	 SCS Same-Spin Energy      =      -0.1647821758092547 [Eh]
	 SCS Opposite-Spin Energy  =      -1.9502441715840524 [Eh]
	 SCS Correlation Energy    =      -2.1150263473933073 [Eh]
	 SCS Total Energy          =    -500.1510900421467909 [Eh]
	-----------------------------------------------------------

  Dipole Moment: [D]
     X:     0.5492      Y:     0.0370      Z:    -0.1301     Total:     0.5656

*** Psi4 exiting successfully. Buy a developer a beer!
