                               Psi4 1.3.2 release

  ==> Input File <==

--------------------------------------------------------------------------
#psi4
#
memory 32 gb

molecule  {
0 1
  O        1.0538160    -0.5830080    -0.2896737
  O       -1.0823250    -0.5564370    -0.2635130
  O        0.0000290     0.8790020     1.1568390
  C        2.3645980    -0.0472600     0.2117580
  C       -2.3645710    -0.0472670     0.2117220
  C        3.3580870    -1.1527530    -0.0787140
  C        2.6794210     1.2541120    -0.5011060
  C       -2.6796530     1.2540600    -0.5011170
  C       -3.3579470    -1.1529030    -0.0785870
  C        0.0000190     0.0134100     0.2963400
  H        2.2751950     0.1248800     1.2880410
  H       -2.2750520     0.1249260     1.2879850
  H        4.3537060    -0.8600380     0.2666930
  H        3.0667940    -2.0744370     0.4299490
  H        3.4032550    -1.3462360    -1.1536500
  H        3.6582030     1.6290460    -0.1867860
  H        1.9279580     2.0093320    -0.2633690
  H        2.6983220     1.0899770    -1.5821290
  H       -3.6584150     1.6289180    -0.1866510
  H       -1.9282070     2.0093390    -0.2634970
  H       -2.6986940     1.0899190    -1.5821360
  H       -4.3535640    -0.8602980     0.2669170
  H       -3.0664820    -2.0745270     0.4300870
  H       -3.4032180    -1.3464490    -1.1535090
units angstrom
no_reorient  #important for SAPT in psi4, default
symmetry c1  #important for SAPT in psi4, default
}

set PROPERTIES_ORIGIN ["COM"]
properties('MP2/aug-cc-pvtz', properties = ['dipole'])
--------------------------------------------------------------------------

    Molecular point group: c1
  Charge       = 0
  Multiplicity = 1
  Basis Set: AUG-CC-PVTZ
    Blend: AUG-CC-PVTZ
  Basis Set: (AUG-CC-PVTZ AUX)
    Blend: AUG-CC-PVTZ-JKFIT

    Orbital Energies [Eh]
    ---------------------

    Doubly Occupied:

       1A    -20.601256     2A    -20.597300     3A    -20.542091
       4A    -11.425960     5A    -11.298172     6A    -11.291619
       7A    -11.223138     8A    -11.220974     9A    -11.220277
      10A    -11.217359    11A     -1.488895    12A     -1.380174
      13A     -1.354372    14A     -1.080782    15A     -1.054273
      16A     -0.947443    17A     -0.945064    18A     -0.870829
      19A     -0.798849    20A     -0.769105    21A     -0.739765
      22A     -0.694368    23A     -0.672952    24A     -0.630454
      25A     -0.623993    26A     -0.613112    27A     -0.582336
      28A     -0.574023    29A     -0.558987    30A     -0.549467
      31A     -0.547160    32A     -0.534753    33A     -0.522152
      34A     -0.513615    35A     -0.505847    36A     -0.491341
      37A     -0.486744    38A     -0.469051    39A     -0.459293
      40A     -0.451835

  @DF-RHF Final Energy:  -498.03543221016645

   => Energetics <=

    Nuclear Repulsion Energy =            576.6184601046224998
    One-Electron Energy =               -1824.2094313097450140
    Two-Electron Energy =                 749.5555389949561231
    Total Energy =                       -498.0354322101663911
  Basis Set: (AUG-CC-PVTZ AUX)
    Blend: AUG-CC-PVTZ-RI
    Molecular point group: c1

    Geometry (in Angstrom), charge = 0, multiplicity = 1:

       Center              X                  Y                   Z               Mass
    ------------   -----------------  -----------------  -----------------  -----------------
         O            1.056939241244    -0.572359610449    -0.303076467369    15.994914619570
         O           -1.079201758756    -0.545788610449    -0.276915767369    15.994914619570
         O            0.003152241244     0.889650389551     1.143436232631    15.994914619570
         C            2.367721241244    -0.036611610449     0.198355232631    12.000000000000
         C           -2.361447758756    -0.036618610449     0.198319232631    12.000000000000
         C            3.361210241244    -1.142104610449    -0.092116767369    12.000000000000
         C            2.682544241244     1.264760389551    -0.514508767369    12.000000000000
         C           -2.676529758756     1.264708389551    -0.514519767369    12.000000000000
         C           -3.354823758756    -1.142254610449    -0.091989767369    12.000000000000
         C            0.003142241244     0.024058389551     0.282937232631    12.000000000000
         H            2.278318241244     0.135528389551     1.274638232631     1.007825032230
         H           -2.271928758756     0.135574389551     1.274582232631     1.007825032230
         H            4.356829241244    -0.849389610449     0.253290232631     1.007825032230
         H            3.069917241244    -2.063788610449     0.416546232631     1.007825032230
         H            3.406378241244    -1.335587610449    -1.167052767369     1.007825032230
         H            3.661326241244     1.639694389551    -0.200188767369     1.007825032230
         H            1.931081241244     2.019980389551    -0.276771767369     1.007825032230
         H            2.701445241244     1.100625389551    -1.595531767369     1.007825032230
         H           -3.655291758756     1.639566389551    -0.200053767369     1.007825032230
         H           -1.925083758756     2.019987389551    -0.276899767369     1.007825032230
         H           -2.695570758756     1.100567389551    -1.595538767369     1.007825032230
         H           -4.350440758756    -0.849649610449     0.253514232631     1.007825032230
         H           -3.063358758756    -2.063878610449     0.416684232631     1.007825032230
         H           -3.400094758756    -1.335800610449    -1.166911767369     1.007825032230

  Basis Set: AUG-CC-PVTZ
    Blend: AUG-CC-PVTZ
  Basis Set: (AUG-CC-PVTZ AUX)
    Blend: AUG-CC-PVTZ-JKFIT
	 Reference Energy          =    -498.0354322101664479 [Eh]
	 Singles Energy            =      -0.0000000000000000 [Eh]
	 Same-Spin Energy          =      -0.4947305829807117 [Eh]
	 Opposite-Spin Energy      =      -1.6262701255355998 [Eh]
	 Correlation Energy        =      -2.1210007085163114 [Eh]
	 Total Energy              =    -500.1564329186827536 [Eh]

	 ================> DF-SCS-MP2 Energies <==================
	-----------------------------------------------------------
	 SCS Same-Spin Scale       =       0.3333333333333333 [-]
	 SCS Opposite-Spin Scale   =       1.2000000000000000 [-]
	 SCS Same-Spin Energy      =      -0.1649101943269039 [Eh]
	 SCS Opposite-Spin Energy  =      -1.9515241506427197 [Eh]
	 SCS Correlation Energy    =      -2.1164343449696235 [Eh]
	 SCS Total Energy          =    -500.1518665551360527 [Eh]
	-----------------------------------------------------------

  Dipole Moment: [D]
     X:     0.1885      Y:    -0.0542      Z:    -0.2486     Total:     0.3167

*** Psi4 exiting successfully. Buy a developer a beer!
