                               Psi4 1.4a3.dev225

  ==> Input File <==

--------------------------------------------------------------------------
#psi4
#
memory 32 gb

molecule  {
0 1
  O        1.0823660    -0.5568910    -0.2629560
  O       -1.0823640    -0.5568750    -0.2629780
  O       -0.0000050     0.8796030     1.1562750
  C        2.3645860    -0.0472710     0.2118040
  C       -2.3470084    -0.0542568     0.2052915
  C        3.3581450    -1.1527440    -0.0787380
  C        2.6794270     1.2540320    -0.5011890
  C       -2.6794360     1.2540300    -0.5011890
  C       -3.3581360    -1.1527540    -0.0787300
  C       -0.0000010     0.0134240     0.2963730
  H        2.2753340     0.1249760     1.2880770
  H       -2.2753170     0.1249770     1.2880710
  H        4.3539520    -0.8597410     0.2658680
  H        3.0673460    -2.0742840     0.4304720
  H        3.4026140    -1.3466350    -1.1536290
  H        3.6579950     1.6291330    -0.1863970
  H        1.9277540     2.0091980    -0.2639900
  H        2.6989690     1.0896910    -1.5821710
  H       -3.6580010     1.6291290    -0.1863860
  H       -1.9277600     2.0091950    -0.2639970
  H       -2.6989890     1.0896910    -1.5821710
  H       -4.3539420    -0.8597570     0.2658840
  H       -3.0673260    -2.0742900     0.4304790
  H       -3.4026140    -1.3466480    -1.1536200
units angstrom
no_reorient  #important for SAPT in psi4, default
symmetry c1  #important for SAPT in psi4, default
}

set PROPERTIES_ORIGIN ["COM"]
properties('MP2/aug-cc-pvtz', properties = ['dipole'])
--------------------------------------------------------------------------

    Molecular point group: c1
  Charge       = 0
  Multiplicity = 1
  Basis Set: AUG-CC-PVTZ
    Blend: AUG-CC-PVTZ
  Basis Set: (AUG-CC-PVTZ AUX)
    Blend: AUG-CC-PVTZ-JKFIT

    Orbital Energies [Eh]
    ---------------------

    Doubly Occupied:

       1A    -20.603692     2A    -20.602078     3A    -20.542621
       4A    -11.429568     5A    -11.294482     6A    -11.292959
       7A    -11.222143     8A    -11.220900     9A    -11.219024
      10A    -11.217728    11A     -1.495013    12A     -1.393571
      13A     -1.356122    14A     -1.081447    15A     -1.052998
      16A     -0.946899    17A     -0.944631    18A     -0.879684
      19A     -0.801309    20A     -0.769618    21A     -0.748079
      22A     -0.697181    23A     -0.675857    24A     -0.633598
      25A     -0.624680    26A     -0.615723    27A     -0.582254
      28A     -0.574951    29A     -0.559178    30A     -0.549113
      31A     -0.547221    32A     -0.535207    33A     -0.528027
      34A     -0.518139    35A     -0.505544    36A     -0.489320
      37A     -0.483906    38A     -0.469578    39A     -0.457058
      40A     -0.450936

  @DF-RHF Final Energy:  -498.03909648688727

   => Energetics <=

    Nuclear Repulsion Energy =            577.5656478378037946
    One-Electron Energy =               -1825.9854132693474185
    Two-Electron Energy =                 750.3806689446562359
    Total Energy =                       -498.0390964868872743
  Basis Set: (AUG-CC-PVTZ AUX)
    Blend: AUG-CC-PVTZ-RI
    Molecular point group: c1

    Geometry (in Angstrom), charge = 0, multiplicity = 1:

       Center              X                  Y                   Z               Mass
    ------------   -----------------  -----------------  -----------------  -----------------
         O            1.080922505347    -0.548551844853    -0.278722549569    15.994914619570
         O           -1.083807494653    -0.548535844853    -0.278744549569    15.994914619570
         O           -0.001448494653     0.887942155147     1.140508450431    15.994914619570
         C            2.363142505347    -0.038931844853     0.196037450431    12.000000000000
         C           -2.348451894653    -0.045917644853     0.189524950431    12.000000000000
         C            3.356701505347    -1.144404844853    -0.094504549569    12.000000000000
         C            2.677983505347     1.262371155147    -0.516955549569    12.000000000000
         C           -2.680879494653     1.262369155147    -0.516955549569    12.000000000000
         C           -3.359579494653    -1.144414844853    -0.094496549569    12.000000000000
         C           -0.001444494653     0.021763155147     0.280606450431    12.000000000000
         H            2.273890505347     0.133315155147     1.272310450431     1.007825032230
         H           -2.276760494653     0.133316155147     1.272304450431     1.007825032230
         H            4.352508505347    -0.851401844853     0.250101450431     1.007825032230
         H            3.065902505347    -2.065944844853     0.414705450431     1.007825032230
         H            3.401170505347    -1.338295844853    -1.169395549569     1.007825032230
         H            3.656551505347     1.637472155147    -0.202163549569     1.007825032230
         H            1.926310505347     2.017537155147    -0.279756549569     1.007825032230
         H            2.697525505347     1.098030155147    -1.597937549569     1.007825032230
         H           -3.659444494653     1.637468155147    -0.202152549569     1.007825032230
         H           -1.929203494653     2.017534155147    -0.279763549569     1.007825032230
         H           -2.700432494653     1.098030155147    -1.597937549569     1.007825032230
         H           -4.355385494653    -0.851417844853     0.250117450431     1.007825032230
         H           -3.068769494653    -2.065950844853     0.414712450431     1.007825032230
         H           -3.404057494653    -1.338308844853    -1.169386549569     1.007825032230

  Basis Set: AUG-CC-PVTZ
    Blend: AUG-CC-PVTZ
  Basis Set: (AUG-CC-PVTZ AUX)
    Blend: AUG-CC-PVTZ-JKFIT
	 Reference Energy          =    -498.0390964868872743 [Eh]
	 Singles Energy            =      -0.0000000000000000 [Eh]
	 Same-Spin Energy          =      -0.4942728574249998 [Eh]
	 Opposite-Spin Energy      =      -1.6246660020953207 [Eh]
	 Correlation Energy        =      -2.1189388595203207 [Eh]
	 Total Energy              =    -500.1580353464075870 [Eh]

	 ================> DF-SCS-MP2 Energies <==================
	-----------------------------------------------------------
	 SCS Same-Spin Scale       =       0.3333333333333333 [-]
	 SCS Opposite-Spin Scale   =       1.2000000000000000 [-]
	 SCS Same-Spin Energy      =      -0.1647576191416666 [Eh]
	 SCS Opposite-Spin Energy  =      -1.9495992025143849 [Eh]
	 SCS Correlation Energy    =      -2.1143568216560515 [Eh]
	 SCS Total Energy          =    -500.1534533085433054 [Eh]
	-----------------------------------------------------------

  Dipole Moment: [D]
     X:     0.1017      Y:    -0.1255      Z:    -0.2911     Total:     0.3329

*** Psi4 exiting successfully. Buy a developer a beer!
