                               Psi4 1.3.2 release

  ==> Input File <==

--------------------------------------------------------------------------
#psi4
#
memory 32 gb

molecule  {
0 1
  O        1.1354409    -0.5019073    -0.2085161
  O       -1.0823250    -0.5564370    -0.2635130
  O        0.0000290     0.8790020     1.1568390
  C        2.3645980    -0.0472600     0.2117580
  C       -2.3645710    -0.0472670     0.2117220
  C        3.3580870    -1.1527530    -0.0787140
  C        2.6794210     1.2541120    -0.5011060
  C       -2.6796530     1.2540600    -0.5011170
  C       -3.3579470    -1.1529030    -0.0785870
  C        0.0000190     0.0134100     0.2963400
  H        2.2751950     0.1248800     1.2880410
  H       -2.2750520     0.1249260     1.2879850
  H        4.3537060    -0.8600380     0.2666930
  H        3.0667940    -2.0744370     0.4299490
  H        3.4032550    -1.3462360    -1.1536500
  H        3.6582030     1.6290460    -0.1867860
  H        1.9279580     2.0093320    -0.2633690
  H        2.6983220     1.0899770    -1.5821290
  H       -3.6584150     1.6289180    -0.1866510
  H       -1.9282070     2.0093390    -0.2634970
  H       -2.6986940     1.0899190    -1.5821360
  H       -4.3535640    -0.8602980     0.2669170
  H       -3.0664820    -2.0745270     0.4300870
  H       -3.4032180    -1.3464490    -1.1535090
units angstrom
no_reorient  #important for SAPT in psi4, default
symmetry c1  #important for SAPT in psi4, default
}

set PROPERTIES_ORIGIN ["COM"]
properties('MP2/aug-cc-pvtz', properties = ['dipole'])
--------------------------------------------------------------------------

    Molecular point group: c1
  Charge       = 0
  Multiplicity = 1
  Basis Set: AUG-CC-PVTZ
    Blend: AUG-CC-PVTZ
  Basis Set: (AUG-CC-PVTZ AUX)
    Blend: AUG-CC-PVTZ-JKFIT

    Orbital Energies [Eh]
    ---------------------

    Doubly Occupied:

       1A    -20.608100     2A    -20.598734     3A    -20.539576
       4A    -11.432453     5A    -11.297867     6A    -11.285456
       7A    -11.224273     8A    -11.220740     9A    -11.218692
      10A    -11.213550    11A     -1.499870    12A     -1.407463
      13A     -1.354581    14A     -1.084359    15A     -1.054166
      16A     -0.948884    17A     -0.944514    18A     -0.889829
      19A     -0.807965    20A     -0.768647    21A     -0.756106
      22A     -0.698580    23A     -0.676484    24A     -0.638117
      25A     -0.627442    26A     -0.620802    27A     -0.582150
      28A     -0.574636    29A     -0.558598    30A     -0.550898
      31A     -0.545512    32A     -0.535529    33A     -0.532539
      34A     -0.519593    35A     -0.506820    36A     -0.490841
      37A     -0.482229    38A     -0.464578    39A     -0.457000
      40A     -0.445027

  @DF-RHF Final Energy:  -498.03656951081092

   => Energetics <=

    Nuclear Repulsion Energy =            578.6943273632156206
    One-Electron Energy =               -1828.1353940378862717
    Two-Electron Energy =                 751.4044971638597872
    Total Energy =                       -498.0365695108109776
  Basis Set: (AUG-CC-PVTZ AUX)
    Blend: AUG-CC-PVTZ-RI
    Molecular point group: c1

    Geometry (in Angstrom), charge = 0, multiplicity = 1:

       Center              X                  Y                   Z               Mass
    ------------   -----------------  -----------------  -----------------  -----------------
         O            1.129627561534    -0.500138098909    -0.230804285440    15.994914619570
         O           -1.088138338466    -0.554667798909    -0.285801185440    15.994914619570
         O           -0.005784338466     0.880771201091     1.134550814560    15.994914619570
         C            2.358784661534    -0.045490798909     0.189469814560    12.000000000000
         C           -2.370384338466    -0.045497798909     0.189433814560    12.000000000000
         C            3.352273661534    -1.150983798909    -0.101002185440    12.000000000000
         C            2.673607661534     1.255881201091    -0.523394185440    12.000000000000
         C           -2.685466338466     1.255829201091    -0.523405185440    12.000000000000
         C           -3.363760338466    -1.151133798909    -0.100875185440    12.000000000000
         C           -0.005794338466     0.015179201091     0.274051814560    12.000000000000
         H            2.269381661534     0.126649201091     1.265752814560     1.007825032230
         H           -2.280865338466     0.126695201091     1.265696814560     1.007825032230
         H            4.347892661534    -0.858268798909     0.244404814560     1.007825032230
         H            3.060980661534    -2.072667798909     0.407660814560     1.007825032230
         H            3.397441661534    -1.344466798909    -1.175938185440     1.007825032230
         H            3.652389661534     1.630815201091    -0.209074185440     1.007825032230
         H            1.922144661534     2.011101201091    -0.285657185440     1.007825032230
         H            2.692508661534     1.091746201091    -1.604417185440     1.007825032230
         H           -3.664228338466     1.630687201091    -0.208939185440     1.007825032230
         H           -1.934020338466     2.011108201091    -0.285785185440     1.007825032230
         H           -2.704507338466     1.091688201091    -1.604424185440     1.007825032230
         H           -4.359377338466    -0.858528798909     0.244628814560     1.007825032230
         H           -3.072295338466    -2.072757798909     0.407798814560     1.007825032230
         H           -3.409031338466    -1.344679798909    -1.175797185440     1.007825032230

  Basis Set: AUG-CC-PVTZ
    Blend: AUG-CC-PVTZ
  Basis Set: (AUG-CC-PVTZ AUX)
    Blend: AUG-CC-PVTZ-JKFIT
	 Reference Energy          =    -498.0365695108109207 [Eh]
	 Singles Energy            =      -0.0000000000000000 [Eh]
	 Same-Spin Energy          =      -0.4938942005493994 [Eh]
	 Opposite-Spin Energy      =      -1.6227307335337766 [Eh]
	 Correlation Energy        =      -2.1166249340831760 [Eh]
	 Total Energy              =    -500.1531944448940976 [Eh]

	 ================> DF-SCS-MP2 Energies <==================
	-----------------------------------------------------------
	 SCS Same-Spin Scale       =       0.3333333333333333 [-]
	 SCS Opposite-Spin Scale   =       1.2000000000000000 [-]
	 SCS Same-Spin Energy      =      -0.1646314001831331 [Eh]
	 SCS Opposite-Spin Energy  =      -1.9472768802405318 [Eh]
	 SCS Correlation Energy    =      -2.1119082804236649 [Eh]
	 SCS Total Energy          =    -500.1484777912345976 [Eh]
	-----------------------------------------------------------

  Dipole Moment: [D]
     X:    -0.3876      Y:    -0.2434      Z:    -0.3860     Total:     0.5987

*** Psi4 exiting successfully. Buy a developer a beer!
