                               Psi4 1.3.2 release

  ==> Input File <==

--------------------------------------------------------------------------
#psi4
#
memory 32 gb

molecule  {
0 1
  O        1.0538151    -0.5832578    -0.2894209
  O       -1.0823250    -0.5564370    -0.2635130
  O        0.0000290     0.8790020     1.1568390
  C        2.3645980    -0.0472600     0.2117580
  C       -2.3645710    -0.0472670     0.2117220
  C        3.3580870    -1.1527530    -0.0787140
  C        2.6794210     1.2541120    -0.5011060
  C       -2.6796530     1.2540600    -0.5011170
  C       -3.3579470    -1.1529030    -0.0785870
  C        0.0000190     0.0134100     0.2963400
  H        2.2751950     0.1248800     1.2880410
  H       -2.2750520     0.1249260     1.2879850
  H        4.3537060    -0.8600380     0.2666930
  H        3.0667940    -2.0744370     0.4299490
  H        3.4032550    -1.3462360    -1.1536500
  H        3.6582030     1.6290460    -0.1867860
  H        1.9279580     2.0093320    -0.2633690
  H        2.6983220     1.0899770    -1.5821290
  H       -3.6584150     1.6289180    -0.1866510
  H       -1.9282070     2.0093390    -0.2634970
  H       -2.6986940     1.0899190    -1.5821360
  H       -4.3535640    -0.8602980     0.2669170
  H       -3.0664820    -2.0745270     0.4300870
  H       -3.4032180    -1.3464490    -1.1535090
units angstrom
no_reorient  #important for SAPT in psi4, default
symmetry c1  #important for SAPT in psi4, default
}

set PROPERTIES_ORIGIN ["COM"]
properties('MP2/aug-cc-pvtz', properties = ['dipole'])
--------------------------------------------------------------------------

    Molecular point group: c1
  Charge       = 0
  Multiplicity = 1
  Basis Set: AUG-CC-PVTZ
    Blend: AUG-CC-PVTZ
  Basis Set: (AUG-CC-PVTZ AUX)
    Blend: AUG-CC-PVTZ-JKFIT

    Orbital Energies [Eh]
    ---------------------

    Doubly Occupied:

       1A    -20.601255     2A    -20.597300     3A    -20.542091
       4A    -11.425959     5A    -11.298171     6A    -11.291619
       7A    -11.223134     8A    -11.220983     9A    -11.220276
      10A    -11.217359    11A     -1.488894    12A     -1.380173
      13A     -1.354372    14A     -1.080782    15A     -1.054273
      16A     -0.947447    17A     -0.945064    18A     -0.870829
      19A     -0.798850    20A     -0.769101    21A     -0.739760
      22A     -0.694367    23A     -0.672953    24A     -0.630462
      25A     -0.623992    26A     -0.613113    27A     -0.582337
      28A     -0.574019    29A     -0.558984    30A     -0.549466
      31A     -0.547161    32A     -0.534757    33A     -0.522154
      34A     -0.513615    35A     -0.505845    36A     -0.491340
      37A     -0.486743    38A     -0.469049    39A     -0.459298
      40A     -0.451835

  @DF-RHF Final Energy:  -498.03543190025954

   => Energetics <=

    Nuclear Repulsion Energy =            576.6176179765772076
    One-Electron Energy =               -1824.2077350999252303
    Two-Electron Energy =                 749.5546852230886543
    Total Energy =                       -498.0354319002594821
  Basis Set: (AUG-CC-PVTZ AUX)
    Blend: AUG-CC-PVTZ-RI
    Molecular point group: c1

    Geometry (in Angstrom), charge = 0, multiplicity = 1:

       Center              X                  Y                   Z               Mass
    ------------   -----------------  -----------------  -----------------  -----------------
         O            1.056938439779    -0.572582061471    -0.302851344798    15.994914619570
         O           -1.079201660221    -0.545761261471    -0.276943444798    15.994914619570
         O            0.003152339779     0.889677738529     1.143408555202    15.994914619570
         C            2.367721339779    -0.036584261471     0.198327555202    12.000000000000
         C           -2.361447660221    -0.036591261471     0.198291555202    12.000000000000
         C            3.361210339779    -1.142077261471    -0.092144444798    12.000000000000
         C            2.682544339779     1.264787738529    -0.514536444798    12.000000000000
         C           -2.676529660221     1.264735738529    -0.514547444798    12.000000000000
         C           -3.354823660221    -1.142227261471    -0.092017444798    12.000000000000
         C            0.003142339779     0.024085738529     0.282909555202    12.000000000000
         H            2.278318339779     0.135555738529     1.274610555202     1.007825032230
         H           -2.271928660221     0.135601738529     1.274554555202     1.007825032230
         H            4.356829339779    -0.849362261471     0.253262555202     1.007825032230
         H            3.069917339779    -2.063761261471     0.416518555202     1.007825032230
         H            3.406378339779    -1.335560261471    -1.167080444798     1.007825032230
         H            3.661326339779     1.639721738529    -0.200216444798     1.007825032230
         H            1.931081339779     2.020007738529    -0.276799444798     1.007825032230
         H            2.701445339779     1.100652738529    -1.595559444798     1.007825032230
         H           -3.655291660221     1.639593738529    -0.200081444798     1.007825032230
         H           -1.925083660221     2.020014738529    -0.276927444798     1.007825032230
         H           -2.695570660221     1.100594738529    -1.595566444798     1.007825032230
         H           -4.350440660221    -0.849622261471     0.253486555202     1.007825032230
         H           -3.063358660221    -2.063851261471     0.416656555202     1.007825032230
         H           -3.400094660221    -1.335773261471    -1.166939444798     1.007825032230

  Basis Set: AUG-CC-PVTZ
    Blend: AUG-CC-PVTZ
  Basis Set: (AUG-CC-PVTZ AUX)
    Blend: AUG-CC-PVTZ-JKFIT
	 Reference Energy          =    -498.0354319002595389 [Eh]
	 Singles Energy            =      -0.0000000000000000 [Eh]
	 Same-Spin Energy          =      -0.4947305848337996 [Eh]
	 Opposite-Spin Energy      =      -1.6262699875781446 [Eh]
	 Correlation Energy        =      -2.1210005724119441 [Eh]
	 Total Energy              =    -500.1564324726714972 [Eh]

	 ================> DF-SCS-MP2 Energies <==================
	-----------------------------------------------------------
	 SCS Same-Spin Scale       =       0.3333333333333333 [-]
	 SCS Opposite-Spin Scale   =       1.2000000000000000 [-]
	 SCS Same-Spin Energy      =      -0.1649101949445999 [Eh]
	 SCS Opposite-Spin Energy  =      -1.9515239850937733 [Eh]
	 SCS Correlation Energy    =      -2.1164341800383730 [Eh]
	 SCS Total Energy          =    -500.1518660802979070 [Eh]
	-----------------------------------------------------------

  Dipole Moment: [D]
     X:     0.1885      Y:    -0.0538      Z:    -0.2489     Total:     0.3168

*** Psi4 exiting successfully. Buy a developer a beer!
