                               Psi4 1.3.2 release

  ==> Input File <==

--------------------------------------------------------------------------
#psi4
#
memory 32 gb

molecule  {
0 1
  O        1.1095734    -0.5296134    -0.2362285
  O       -1.0823250    -0.5564370    -0.2635130
  O        0.0000290     0.8790020     1.1568390
  C        2.3645980    -0.0472600     0.2117580
  C       -2.3645710    -0.0472670     0.2117220
  C        3.3580870    -1.1527530    -0.0787140
  C        2.6794210     1.2541120    -0.5011060
  C       -2.6796530     1.2540600    -0.5011170
  C       -3.3579470    -1.1529030    -0.0785870
  C        0.0000190     0.0134100     0.2963400
  H        2.2751950     0.1248800     1.2880410
  H       -2.2750520     0.1249260     1.2879850
  H        4.3537060    -0.8600380     0.2666930
  H        3.0667940    -2.0744370     0.4299490
  H        3.4032550    -1.3462360    -1.1536500
  H        3.6582030     1.6290460    -0.1867860
  H        1.9279580     2.0093320    -0.2633690
  H        2.6983220     1.0899770    -1.5821290
  H       -3.6584150     1.6289180    -0.1866510
  H       -1.9282070     2.0093390    -0.2634970
  H       -2.6986940     1.0899190    -1.5821360
  H       -4.3535640    -0.8602980     0.2669170
  H       -3.0664820    -2.0745270     0.4300870
  H       -3.4032180    -1.3464490    -1.1535090
units angstrom
no_reorient  #important for SAPT in psi4, default
symmetry c1  #important for SAPT in psi4, default
}

set PROPERTIES_ORIGIN ["COM"]
properties('MP2/aug-cc-pvtz', properties = ['dipole'])
--------------------------------------------------------------------------

    Molecular point group: c1
  Charge       = 0
  Multiplicity = 1
  Basis Set: AUG-CC-PVTZ
    Blend: AUG-CC-PVTZ
  Basis Set: (AUG-CC-PVTZ AUX)
    Blend: AUG-CC-PVTZ-JKFIT

    Orbital Energies [Eh]
    ---------------------

    Doubly Occupied:

       1A    -20.604538     2A    -20.600087     3A    -20.540414
       4A    -11.430049     5A    -11.295833     6A    -11.289501
       7A    -11.222955     8A    -11.220152     9A    -11.219628
      10A    -11.216031    11A     -1.495543    12A     -1.398301
      13A     -1.354336    14A     -1.082951    15A     -1.054182
      16A     -0.947630    17A     -0.945381    18A     -0.882978
      19A     -0.804108    20A     -0.769004    21A     -0.751146
      22A     -0.696856    23A     -0.675469    24A     -0.635136
      25A     -0.626081    26A     -0.618057    27A     -0.581345
      28A     -0.574895    29A     -0.558883    30A     -0.549676
      31A     -0.547065    32A     -0.534060    33A     -0.530084
      34A     -0.518752    35A     -0.506271    36A     -0.490224
      37A     -0.483907    38A     -0.467460    39A     -0.456306
      40A     -0.449477

  @DF-RHF Final Energy:  -498.03961804313434

   => Energetics <=

    Nuclear Repulsion Energy =            577.9705538636656001
    One-Electron Energy =               -1826.7708355530146491
    Two-Electron Energy =                 750.7606636462147662
    Total Energy =                       -498.0396180431342827
  Basis Set: (AUG-CC-PVTZ AUX)
    Blend: AUG-CC-PVTZ-RI
    Molecular point group: c1

    Geometry (in Angstrom), charge = 0, multiplicity = 1:

       Center              X                  Y                   Z               Mass
    ------------   -----------------  -----------------  -----------------  -----------------
         O            1.106592125961    -0.524810838119    -0.255482634905    15.994914619570
         O           -1.085306274039    -0.551634438119    -0.282767134905    15.994914619570
         O           -0.002952274039     0.883804561881     1.137584865095    15.994914619570
         C            2.361616725961    -0.042457438119     0.192503865095    12.000000000000
         C           -2.367552274039    -0.042464438119     0.192467865095    12.000000000000
         C            3.355105725961    -1.147950438119    -0.097968134905    12.000000000000
         C            2.676439725961     1.258914561881    -0.520360134905    12.000000000000
         C           -2.682634274039     1.258862561881    -0.520371134905    12.000000000000
         C           -3.360928274039    -1.148100438119    -0.097841134905    12.000000000000
         C           -0.002962274039     0.018212561881     0.277085865095    12.000000000000
         H            2.272213725961     0.129682561881     1.268786865095     1.007825032230
         H           -2.278033274039     0.129728561881     1.268730865095     1.007825032230
         H            4.350724725961    -0.855235438119     0.247438865095     1.007825032230
         H            3.063812725961    -2.069634438119     0.410694865095     1.007825032230
         H            3.400273725961    -1.341433438119    -1.172904134905     1.007825032230
         H            3.655221725961     1.633848561881    -0.206040134905     1.007825032230
         H            1.924976725961     2.014134561881    -0.282623134905     1.007825032230
         H            2.695340725961     1.094779561881    -1.601383134905     1.007825032230
         H           -3.661396274039     1.633720561881    -0.205905134905     1.007825032230
         H           -1.931188274039     2.014141561881    -0.282751134905     1.007825032230
         H           -2.701675274039     1.094721561881    -1.601390134905     1.007825032230
         H           -4.356545274039    -0.855495438119     0.247662865095     1.007825032230
         H           -3.069463274039    -2.069724438119     0.410832865095     1.007825032230
         H           -3.406199274039    -1.341646438119    -1.172763134905     1.007825032230

  Basis Set: AUG-CC-PVTZ
    Blend: AUG-CC-PVTZ
  Basis Set: (AUG-CC-PVTZ AUX)
    Blend: AUG-CC-PVTZ-JKFIT
	 Reference Energy          =    -498.0396180431343396 [Eh]
	 Singles Energy            =      -0.0000000000000000 [Eh]
	 Same-Spin Energy          =      -0.4940434417321314 [Eh]
	 Opposite-Spin Energy      =      -1.6236734684853427 [Eh]
	 Correlation Energy        =      -2.1177169102174740 [Eh]
	 Total Energy              =    -500.1573349533518353 [Eh]

	 ================> DF-SCS-MP2 Energies <==================
	-----------------------------------------------------------
	 SCS Same-Spin Scale       =       0.3333333333333333 [-]
	 SCS Opposite-Spin Scale   =       1.2000000000000000 [-]
	 SCS Same-Spin Energy      =      -0.1646811472440438 [Eh]
	 SCS Opposite-Spin Energy  =      -1.9484081621824112 [Eh]
	 SCS Correlation Energy    =      -2.1130893094264551 [Eh]
	 SCS Total Energy          =    -500.1527073525608102 [Eh]
	-----------------------------------------------------------

  Dipole Moment: [D]
     X:    -0.1919      Y:    -0.1773      Z:    -0.3365     Total:     0.4260

*** Psi4 exiting successfully. Buy a developer a beer!
