                               Psi4 1.3.2 release

  ==> Input File <==

--------------------------------------------------------------------------
#psi4
#
memory 32 gb

molecule  {
0 1
  O        1.0823540    -0.5566580    -0.2632920
  O       -1.0823250    -0.5564370    -0.2635130
  O        0.0000290     0.8790020     1.1568390
  C        2.3645980    -0.0472600     0.2117580
  C       -2.2766976    -0.0821608     0.1791538
  C        3.3580870    -1.1527530    -0.0787140
  C        2.6794210     1.2541120    -0.5011060
  C       -2.6796530     1.2540600    -0.5011170
  C       -3.3579470    -1.1529030    -0.0785870
  C        0.0000190     0.0134100     0.2963400
  H        2.2751950     0.1248800     1.2880410
  H       -2.2750520     0.1249260     1.2879850
  H        4.3537060    -0.8600380     0.2666930
  H        3.0667940    -2.0744370     0.4299490
  H        3.4032550    -1.3462360    -1.1536500
  H        3.6582030     1.6290460    -0.1867860
  H        1.9279580     2.0093320    -0.2633690
  H        2.6983220     1.0899770    -1.5821290
  H       -3.6584150     1.6289180    -0.1866510
  H       -1.9282070     2.0093390    -0.2634970
  H       -2.6986940     1.0899190    -1.5821360
  H       -4.3535640    -0.8602980     0.2669170
  H       -3.0664820    -2.0745270     0.4300870
  H       -3.4032180    -1.3464490    -1.1535090
units angstrom
no_reorient  #important for SAPT in psi4, default
symmetry c1  #important for SAPT in psi4, default
}

set PROPERTIES_ORIGIN ["COM"]
properties('MP2/aug-cc-pvtz', properties = ['dipole'])
--------------------------------------------------------------------------

    Molecular point group: c1
  Charge       = 0
  Multiplicity = 1
  Basis Set: AUG-CC-PVTZ
    Blend: AUG-CC-PVTZ
  Basis Set: (AUG-CC-PVTZ AUX)
    Blend: AUG-CC-PVTZ-JKFIT

    Orbital Energies [Eh]
    ---------------------

    Doubly Occupied:

       1A    -20.613812     2A    -20.606493     3A    -20.548148
       4A    -11.436137     5A    -11.297284     6A    -11.291176
       7A    -11.224167     8A    -11.221076     9A    -11.218366
      10A    -11.214805    11A     -1.510044    12A     -1.412230
      13A     -1.362707    14A     -1.082135    15A     -1.046734
      16A     -0.949043    17A     -0.938219    18A     -0.893217
      19A     -0.804223    20A     -0.770915    21A     -0.757103
      22A     -0.704762    23A     -0.682072    24A     -0.639370
      25A     -0.624607    26A     -0.617989    27A     -0.585585
      28A     -0.575887    29A     -0.560446    30A     -0.551812
      31A     -0.543549    32A     -0.539833    33A     -0.533238
      34A     -0.521089    35A     -0.506381    36A     -0.489653
      37A     -0.477989    38A     -0.466682    39A     -0.458407
      40A     -0.439644

  @DF-RHF Final Energy:  -498.03138225089282

   => Energetics <=

    Nuclear Repulsion Energy =            578.7635520558469580
    One-Electron Energy =               -1828.1558102716962821
    Two-Electron Energy =                 751.3608759649564490
    Total Energy =                       -498.0313822508928752
  Basis Set: (AUG-CC-PVTZ AUX)
    Blend: AUG-CC-PVTZ-RI
    Molecular point group: c1

    Geometry (in Angstrom), charge = 0, multiplicity = 1:

       Center              X                  Y                   Z               Mass
    ------------   -----------------  -----------------  -----------------  -----------------
         O            1.075134991531    -0.546028368199    -0.276908017580    15.994914619570
         O           -1.089544008469    -0.545807368199    -0.277129017580    15.994914619570
         O           -0.007190008469     0.889631631801     1.143222982420    15.994914619570
         C            2.357378991531    -0.036630368199     0.198141982420    12.000000000000
         C           -2.283916608469    -0.071531168199     0.165537782420    12.000000000000
         C            3.350867991531    -1.142123368199    -0.092330017580    12.000000000000
         C            2.672201991531     1.264741631801    -0.514722017580    12.000000000000
         C           -2.686872008469     1.264689631801    -0.514733017580    12.000000000000
         C           -3.365166008469    -1.142273368199    -0.092203017580    12.000000000000
         C           -0.007200008469     0.024039631801     0.282723982420    12.000000000000
         H            2.267975991531     0.135509631801     1.274424982420     1.007825032230
         H           -2.282271008469     0.135555631801     1.274368982420     1.007825032230
         H            4.346486991531    -0.849408368199     0.253076982420     1.007825032230
         H            3.059574991531    -2.063807368199     0.416332982420     1.007825032230
         H            3.396035991531    -1.335606368199    -1.167266017580     1.007825032230
         H            3.650983991531     1.639675631801    -0.200402017580     1.007825032230
         H            1.920738991531     2.019961631801    -0.276985017580     1.007825032230
         H            2.691102991531     1.100606631801    -1.595745017580     1.007825032230
         H           -3.665634008469     1.639547631801    -0.200267017580     1.007825032230
         H           -1.935426008469     2.019968631801    -0.277113017580     1.007825032230
         H           -2.705913008469     1.100548631801    -1.595752017580     1.007825032230
         H           -4.360783008469    -0.849668368199     0.253300982420     1.007825032230
         H           -3.073701008469    -2.063897368199     0.416470982420     1.007825032230
         H           -3.410437008469    -1.335819368199    -1.167125017580     1.007825032230

  Basis Set: AUG-CC-PVTZ
    Blend: AUG-CC-PVTZ
  Basis Set: (AUG-CC-PVTZ AUX)
    Blend: AUG-CC-PVTZ-JKFIT
	 Reference Energy          =    -498.0313822508928183 [Eh]
	 Singles Energy            =      -0.0000000000000000 [Eh]
	 Same-Spin Energy          =      -0.4943597793172420 [Eh]
	 Opposite-Spin Energy      =      -1.6243510417920746 [Eh]
	 Correlation Energy        =      -2.1187108211093166 [Eh]
	 Total Energy              =    -500.1500930720021074 [Eh]

	 ================> DF-SCS-MP2 Energies <==================
	-----------------------------------------------------------
	 SCS Same-Spin Scale       =       0.3333333333333333 [-]
	 SCS Opposite-Spin Scale   =       1.2000000000000000 [-]
	 SCS Same-Spin Energy      =      -0.1647865931057473 [Eh]
	 SCS Opposite-Spin Energy  =      -1.9492212501504893 [Eh]
	 SCS Correlation Energy    =      -2.1140078432562368 [Eh]
	 SCS Total Energy          =    -500.1453900941490360 [Eh]
	-----------------------------------------------------------

  Dipole Moment: [D]
     X:     0.5143      Y:    -0.1739      Z:    -0.2959     Total:     0.6183

*** Psi4 exiting successfully. Buy a developer a beer!
