                               Psi4 1.3.2 release

  ==> Input File <==

--------------------------------------------------------------------------
#psi4
#
memory 32 gb

molecule  {
0 1
  O        1.0823540    -0.5566580    -0.2632920
  O       -1.0823250    -0.5564370    -0.2635130
  O        0.0000290     0.8790020     1.1568390
  C        2.3645980    -0.0472600     0.2117580
  C       -2.3645710    -0.0472670     0.2117220
  C        3.3580870    -1.1527530    -0.0787140
  C        2.6794210     1.2541120    -0.5011060
  C       -2.6796530     1.2540600    -0.5011170
  C       -3.3579470    -1.1529030    -0.0785870
  C        0.0804772     0.0557707     0.3379578
  H        2.2751950     0.1248800     1.2880410
  H       -2.2750520     0.1249260     1.2879850
  H        4.3537060    -0.8600380     0.2666930
  H        3.0667940    -2.0744370     0.4299490
  H        3.4032550    -1.3462360    -1.1536500
  H        3.6582030     1.6290460    -0.1867860
  H        1.9279580     2.0093320    -0.2633690
  H        2.6983220     1.0899770    -1.5821290
  H       -3.6584150     1.6289180    -0.1866510
  H       -1.9282070     2.0093390    -0.2634970
  H       -2.6986940     1.0899190    -1.5821360
  H       -4.3535640    -0.8602980     0.2669170
  H       -3.0664820    -2.0745270     0.4300870
  H       -3.4032180    -1.3464490    -1.1535090
units angstrom
no_reorient  #important for SAPT in psi4, default
symmetry c1  #important for SAPT in psi4, default
}

set PROPERTIES_ORIGIN ["COM"]
properties('MP2/aug-cc-pvtz', properties = ['dipole'])
--------------------------------------------------------------------------

    Molecular point group: c1
  Charge       = 0
  Multiplicity = 1
  Basis Set: AUG-CC-PVTZ
    Blend: AUG-CC-PVTZ
  Basis Set: (AUG-CC-PVTZ AUX)
    Blend: AUG-CC-PVTZ-JKFIT

    Orbital Energies [Eh]
    ---------------------

    Doubly Occupied:

       1A    -20.613798     2A    -20.574064     3A    -20.558789
       4A    -11.426564     5A    -11.301005     6A    -11.280118
       7A    -11.226706     8A    -11.225448     9A    -11.212839
      10A    -11.210901    11A     -1.501844    12A     -1.404908
      13A     -1.350318    14A     -1.081252    15A     -1.044656
      16A     -0.953218    17A     -0.937424    18A     -0.869805
      19A     -0.795534    20A     -0.775198    21A     -0.735759
      22A     -0.706766    23A     -0.681723    24A     -0.629284
      25A     -0.627430    26A     -0.607892    27A     -0.591609
      28A     -0.573163    29A     -0.559357    30A     -0.553205
      31A     -0.541722    32A     -0.537976    33A     -0.522929
      34A     -0.512502    35A     -0.506872    36A     -0.496664
      37A     -0.488624    38A     -0.469975    39A     -0.461540
      40A     -0.441618

  @DF-RHF Final Energy:  -498.02687896668294

   => Energetics <=

    Nuclear Repulsion Energy =            577.3430196725303176
    One-Electron Energy =               -1825.5578024603246377
    Two-Electron Energy =                 750.1879038211113766
    Total Energy =                       -498.0268789666829434
  Basis Set: (AUG-CC-PVTZ AUX)
    Blend: AUG-CC-PVTZ-RI
    Molecular point group: c1

    Geometry (in Angstrom), charge = 0, multiplicity = 1:

       Center              X                  Y                   Z               Mass
    ------------   -----------------  -----------------  -----------------  -----------------
         O            1.075744066652    -0.552373954824    -0.283001561508    15.994914619570
         O           -1.088934933348    -0.552152954824    -0.283222561508    15.994914619570
         O           -0.006580933348     0.883286045176     1.137129438492    15.994914619570
         C            2.357988066652    -0.042975954824     0.192048438492    12.000000000000
         C           -2.371180933348    -0.042982954824     0.192012438492    12.000000000000
         C            3.351477066652    -1.148468954824    -0.098423561508    12.000000000000
         C            2.672811066652     1.258396045176    -0.520815561508    12.000000000000
         C           -2.686262933348     1.258344045176    -0.520826561508    12.000000000000
         C           -3.364556933348    -1.148618954824    -0.098296561508    12.000000000000
         C            0.073867266652     0.060054745176     0.318248238492    12.000000000000
         H            2.268585066652     0.129164045176     1.268331438492     1.007825032230
         H           -2.281661933348     0.129210045176     1.268275438492     1.007825032230
         H            4.347096066652    -0.855753954824     0.246983438492     1.007825032230
         H            3.060184066652    -2.070152954824     0.410239438492     1.007825032230
         H            3.396645066652    -1.341951954824    -1.173359561508     1.007825032230
         H            3.651593066652     1.633330045176    -0.206495561508     1.007825032230
         H            1.921348066652     2.013616045176    -0.283078561508     1.007825032230
         H            2.691712066652     1.094261045176    -1.601838561508     1.007825032230
         H           -3.665024933348     1.633202045176    -0.206360561508     1.007825032230
         H           -1.934816933348     2.013623045176    -0.283206561508     1.007825032230
         H           -2.705303933348     1.094203045176    -1.601845561508     1.007825032230
         H           -4.360173933348    -0.856013954824     0.247207438492     1.007825032230
         H           -3.073091933348    -2.070242954824     0.410377438492     1.007825032230
         H           -3.409827933348    -1.342164954824    -1.173218561508     1.007825032230

  Basis Set: AUG-CC-PVTZ
    Blend: AUG-CC-PVTZ
  Basis Set: (AUG-CC-PVTZ AUX)
    Blend: AUG-CC-PVTZ-JKFIT
	 Reference Energy          =    -498.0268789666829434 [Eh]
	 Singles Energy            =      -0.0000000000000000 [Eh]
	 Same-Spin Energy          =      -0.4945451922630789 [Eh]
	 Opposite-Spin Energy      =      -1.6258925059244063 [Eh]
	 Correlation Energy        =      -2.1204376981874851 [Eh]
	 Total Energy              =    -500.1473166648704023 [Eh]

	 ================> DF-SCS-MP2 Energies <==================
	-----------------------------------------------------------
	 SCS Same-Spin Scale       =       0.3333333333333333 [-]
	 SCS Opposite-Spin Scale   =       1.2000000000000000 [-]
	 SCS Same-Spin Energy      =      -0.1648483974210263 [Eh]
	 SCS Opposite-Spin Energy  =      -1.9510710071092874 [Eh]
	 SCS Correlation Energy    =      -2.1159194045303136 [Eh]
	 SCS Total Energy          =    -500.1427983712132459 [Eh]
	-----------------------------------------------------------

  Dipole Moment: [D]
     X:     1.0970      Y:     0.1913      Z:     0.0322     Total:     1.1140

*** Psi4 exiting successfully. Buy a developer a beer!
