                               Psi4 1.3.2 release

  ==> Input File <==

--------------------------------------------------------------------------
#psi4
#
memory 32 gb

molecule  {
0 1
  O        0.9929246    -0.6334969    -0.3402639
  O       -1.0823250    -0.5564370    -0.2635130
  O        0.0000290     0.8790020     1.1568390
  C        2.3645980    -0.0472600     0.2117580
  C       -2.3645710    -0.0472670     0.2117220
  C        3.3580870    -1.1527530    -0.0787140
  C        2.6794210     1.2541120    -0.5011060
  C       -2.6796530     1.2540600    -0.5011170
  C       -3.3579470    -1.1529030    -0.0785870
  C        0.0000190     0.0134100     0.2963400
  H        2.2751950     0.1248800     1.2880410
  H       -2.2750520     0.1249260     1.2879850
  H        4.3537060    -0.8600380     0.2666930
  H        3.0667940    -2.0744370     0.4299490
  H        3.4032550    -1.3462360    -1.1536500
  H        3.6582030     1.6290460    -0.1867860
  H        1.9279580     2.0093320    -0.2633690
  H        2.6983220     1.0899770    -1.5821290
  H       -3.6584150     1.6289180    -0.1866510
  H       -1.9282070     2.0093390    -0.2634970
  H       -2.6986940     1.0899190    -1.5821360
  H       -4.3535640    -0.8602980     0.2669170
  H       -3.0664820    -2.0745270     0.4300870
  H       -3.4032180    -1.3464490    -1.1535090
units angstrom
no_reorient  #important for SAPT in psi4, default
symmetry c1  #important for SAPT in psi4, default
}

set PROPERTIES_ORIGIN ["COM"]
properties('MP2/aug-cc-pvtz', properties = ['dipole'])
--------------------------------------------------------------------------

    Molecular point group: c1
  Charge       = 0
  Multiplicity = 1
  Basis Set: AUG-CC-PVTZ
    Blend: AUG-CC-PVTZ
  Basis Set: (AUG-CC-PVTZ AUX)
    Blend: AUG-CC-PVTZ-JKFIT

    Orbital Energies [Eh]
    ---------------------

    Doubly Occupied:

       1A    -20.600231     2A    -20.589877     3A    -20.543704
       4A    -11.422598     5A    -11.307295     6A    -11.287146
       7A    -11.226358     8A    -11.225905     9A    -11.217509
      10A    -11.214991    11A     -1.484203    12A     -1.363239
      13A     -1.354409    14A     -1.079889    15A     -1.053895
      16A     -0.949932    17A     -0.942411    18A     -0.860641
      19A     -0.797466    20A     -0.767612    21A     -0.727210
      22A     -0.692717    23A     -0.670041    24A     -0.628579
      25A     -0.621504    26A     -0.609265    27A     -0.584926
      28A     -0.572956    29A     -0.558887    30A     -0.550882
      31A     -0.544606    32A     -0.535475    33A     -0.517312
      34A     -0.506666    35A     -0.501079    36A     -0.495791
      37A     -0.486143    38A     -0.467890    39A     -0.464087
      40A     -0.449184

  @DF-RHF Final Energy:  -498.02012152505296

   => Energetics <=

    Nuclear Repulsion Energy =            575.4132028046844880
    One-Electron Energy =               -1821.9176237121337181
    Two-Electron Energy =                 748.4842993823962161
    Total Energy =                       -498.0201215250530140
  Basis Set: (AUG-CC-PVTZ AUX)
    Blend: AUG-CC-PVTZ-RI
    Molecular point group: c1

    Geometry (in Angstrom), charge = 0, multiplicity = 1:

       Center              X                  Y                   Z               Mass
    ------------   -----------------  -----------------  -----------------  -----------------
         O            1.002714444815    -0.617320808984    -0.348127875225    15.994914619570
         O           -1.072535155185    -0.540260908984    -0.271376975225    15.994914619570
         O            0.009818844815     0.895178091016     1.148975024775    15.994914619570
         C            2.374387844815    -0.031083908984     0.203894024775    12.000000000000
         C           -2.354781155185    -0.031090908984     0.203858024775    12.000000000000
         C            3.367876844815    -1.136576908984    -0.086577975225    12.000000000000
         C            2.689210844815     1.270288091016    -0.508969975225    12.000000000000
         C           -2.669863155185     1.270236091016    -0.508980975225    12.000000000000
         C           -3.348157155185    -1.136726908984    -0.086450975225    12.000000000000
         C            0.009808844815     0.029586091016     0.288476024775    12.000000000000
         H            2.284984844815     0.141056091016     1.280177024775     1.007825032230
         H           -2.265262155185     0.141102091016     1.280121024775     1.007825032230
         H            4.363495844815    -0.843861908984     0.258829024775     1.007825032230
         H            3.076583844815    -2.058260908984     0.422085024775     1.007825032230
         H            3.413044844815    -1.330059908984    -1.161513975225     1.007825032230
         H            3.667992844815     1.645222091016    -0.194649975225     1.007825032230
         H            1.937747844815     2.025508091016    -0.271232975225     1.007825032230
         H            2.708111844815     1.106153091016    -1.589992975225     1.007825032230
         H           -3.648625155185     1.645094091016    -0.194514975225     1.007825032230
         H           -1.918417155185     2.025515091016    -0.271360975225     1.007825032230
         H           -2.688904155185     1.106095091016    -1.589999975225     1.007825032230
         H           -4.343774155185    -0.844121908984     0.259053024775     1.007825032230
         H           -3.056692155185    -2.058350908984     0.422223024775     1.007825032230
         H           -3.393428155185    -1.330272908984    -1.161372975225     1.007825032230

  Basis Set: AUG-CC-PVTZ
    Blend: AUG-CC-PVTZ
  Basis Set: (AUG-CC-PVTZ AUX)
    Blend: AUG-CC-PVTZ-JKFIT
	 Reference Energy          =    -498.0201215250529572 [Eh]
	 Singles Energy            =      -0.0000000000000000 [Eh]
	 Same-Spin Energy          =      -0.4958839391416383 [Eh]
	 Opposite-Spin Energy      =      -1.6296788740518171 [Eh]
	 Correlation Energy        =      -2.1255628131934552 [Eh]
	 Total Energy              =    -500.1456843382464399 [Eh]

	 ================> DF-SCS-MP2 Energies <==================
	-----------------------------------------------------------
	 SCS Same-Spin Scale       =       0.3333333333333333 [-]
	 SCS Opposite-Spin Scale   =       1.2000000000000000 [-]
	 SCS Same-Spin Energy      =      -0.1652946463805461 [Eh]
	 SCS Opposite-Spin Energy  =      -1.9556146488621804 [Eh]
	 SCS Correlation Energy    =      -2.1209092952427264 [Eh]
	 SCS Total Energy          =    -500.1410308202956685 [Eh]
	-----------------------------------------------------------

  Dipole Moment: [D]
     X:     0.5530      Y:     0.0547      Z:    -0.1745     Total:     0.5825

*** Psi4 exiting successfully. Buy a developer a beer!
