                               Psi4 1.3.2 release

  ==> Input File <==

--------------------------------------------------------------------------
#psi4
#
memory 32 gb

molecule  {
0 1
  O        1.0239923    -0.6091307    -0.3148361
  O       -1.0823250    -0.5564370    -0.2635130
  O        0.0000290     0.8790020     1.1568390
  C        2.3645980    -0.0472600     0.2117580
  C       -2.3645710    -0.0472670     0.2117220
  C        3.3580870    -1.1527530    -0.0787140
  C        2.6794210     1.2541120    -0.5011060
  C       -2.6796530     1.2540600    -0.5011170
  C       -3.3579470    -1.1529030    -0.0785870
  C        0.0000190     0.0134100     0.2963400
  H        2.2751950     0.1248800     1.2880410
  H       -2.2750520     0.1249260     1.2879850
  H        4.3537060    -0.8600380     0.2666930
  H        3.0667940    -2.0744370     0.4299490
  H        3.4032550    -1.3462360    -1.1536500
  H        3.6582030     1.6290460    -0.1867860
  H        1.9279580     2.0093320    -0.2633690
  H        2.6983220     1.0899770    -1.5821290
  H       -3.6584150     1.6289180    -0.1866510
  H       -1.9282070     2.0093390    -0.2634970
  H       -2.6986940     1.0899190    -1.5821360
  H       -4.3535640    -0.8602980     0.2669170
  H       -3.0664820    -2.0745270     0.4300870
  H       -3.4032180    -1.3464490    -1.1535090
units angstrom
no_reorient  #important for SAPT in psi4, default
symmetry c1  #important for SAPT in psi4, default
}

set PROPERTIES_ORIGIN ["COM"]
properties('MP2/aug-cc-pvtz', properties = ['dipole'])
--------------------------------------------------------------------------

    Molecular point group: c1
  Charge       = 0
  Multiplicity = 1
  Basis Set: AUG-CC-PVTZ
    Blend: AUG-CC-PVTZ
  Basis Set: (AUG-CC-PVTZ AUX)
    Blend: AUG-CC-PVTZ-JKFIT

    Orbital Energies [Eh]
    ---------------------

    Doubly Occupied:

       1A    -20.601016     2A    -20.593612     3A    -20.542908
       4A    -11.424202     5A    -11.302699     6A    -11.289419
       7A    -11.224704     8A    -11.223458     9A    -11.218906
      10A    -11.216189    11A     -1.486342    12A     -1.371418
      13A     -1.354522    14A     -1.080146    15A     -1.054186
      16A     -0.948638    17A     -0.943753    18A     -0.865513
      19A     -0.797692    20A     -0.768561    21A     -0.733544
      22A     -0.693471    23A     -0.671527    24A     -0.629118
      25A     -0.622860    26A     -0.611049    27A     -0.583602
      28A     -0.573350    29A     -0.558962    30A     -0.550253
      31A     -0.545895    32A     -0.535223    33A     -0.519355
      34A     -0.508163    35A     -0.506056    36A     -0.493552
      37A     -0.486632    38A     -0.468648    39A     -0.461955
      40A     -0.450682

  @DF-RHF Final Energy:  -498.02898896457407

   => Energetics <=

    Nuclear Repulsion Energy =            575.9946073294547659
    One-Electron Energy =               -1823.0236316702853401
    Two-Electron Energy =                 749.0000353762565055
    Total Energy =                       -498.0289889645740686
  Basis Set: (AUG-CC-PVTZ AUX)
    Blend: AUG-CC-PVTZ-RI
    Molecular point group: c1

    Geometry (in Angstrom), charge = 0, multiplicity = 1:

       Center              X                  Y                   Z               Mass
    ------------   -----------------  -----------------  -----------------  -----------------
         O            1.030380744293    -0.595622305833    -0.325483999758    15.994914619570
         O           -1.075936555707    -0.542928605833    -0.274160899758    15.994914619570
         O            0.006417444293     0.892510394167     1.146191100242    15.994914619570
         C            2.370986444293    -0.033751605833     0.201110100242    12.000000000000
         C           -2.358182555707    -0.033758605833     0.201074100242    12.000000000000
         C            3.364475444293    -1.139244605833    -0.089361899758    12.000000000000
         C            2.685809444293     1.267620394167    -0.511753899758    12.000000000000
         C           -2.673264555707     1.267568394167    -0.511764899758    12.000000000000
         C           -3.351558555707    -1.139394605833    -0.089234899758    12.000000000000
         C            0.006407444293     0.026918394167     0.285692100242    12.000000000000
         H            2.281583444293     0.138388394167     1.277393100242     1.007825032230
         H           -2.268663555707     0.138434394167     1.277337100242     1.007825032230
         H            4.360094444293    -0.846529605833     0.256045100242     1.007825032230
         H            3.073182444293    -2.060928605833     0.419301100242     1.007825032230
         H            3.409643444293    -1.332727605833    -1.164297899758     1.007825032230
         H            3.664591444293     1.642554394167    -0.197433899758     1.007825032230
         H            1.934346444293     2.022840394167    -0.274016899758     1.007825032230
         H            2.704710444293     1.103485394167    -1.592776899758     1.007825032230
         H           -3.652026555707     1.642426394167    -0.197298899758     1.007825032230
         H           -1.921818555707     2.022847394167    -0.274144899758     1.007825032230
         H           -2.692305555707     1.103427394167    -1.592783899758     1.007825032230
         H           -4.347175555707    -0.846789605833     0.256269100242     1.007825032230
         H           -3.060093555707    -2.061018605833     0.419439100242     1.007825032230
         H           -3.396829555707    -1.332940605833    -1.164156899758     1.007825032230

  Basis Set: AUG-CC-PVTZ
    Blend: AUG-CC-PVTZ
  Basis Set: (AUG-CC-PVTZ AUX)
    Blend: AUG-CC-PVTZ-JKFIT
	 Reference Energy          =    -498.0289889645740686 [Eh]
	 Singles Energy            =      -0.0000000000000000 [Eh]
	 Same-Spin Energy          =      -0.4952530834566122 [Eh]
	 Opposite-Spin Energy      =      -1.6278829234940242 [Eh]
	 Correlation Energy        =      -2.1231360069506362 [Eh]
	 Total Energy              =    -500.1521249715246995 [Eh]

	 ================> DF-SCS-MP2 Energies <==================
	-----------------------------------------------------------
	 SCS Same-Spin Scale       =       0.3333333333333333 [-]
	 SCS Opposite-Spin Scale   =       1.2000000000000000 [-]
	 SCS Same-Spin Energy      =      -0.1650843611522041 [Eh]
	 SCS Opposite-Spin Energy  =      -1.9534595081928290 [Eh]
	 SCS Correlation Energy    =      -2.1185438693450331 [Eh]
	 SCS Total Energy          =    -500.1475328339191151 [Eh]
	-----------------------------------------------------------

  Dipole Moment: [D]
     X:     0.3731      Y:     0.0030      Z:    -0.2105     Total:     0.4284

*** Psi4 exiting successfully. Buy a developer a beer!
