                               Psi4 1.4a3.dev225

  ==> Input File <==

--------------------------------------------------------------------------
#psi4
#
memory 32 gb

molecule  {
0 1
  O        1.0823660    -0.5568910    -0.2629560
  O       -1.0823640    -0.5568750    -0.2629780
  O       -0.0000050     0.8796030     1.1562750
  C        2.3645860    -0.0472710     0.2118040
  C       -2.3645830    -0.0472720     0.2117990
  C        3.3581450    -1.1527440    -0.0787380
  C        2.6794270     1.2540320    -0.5011890
  C       -2.6794360     1.2540300    -0.5011890
  C       -3.3581360    -1.1527540    -0.0787300
  C       -0.0402309    -0.0077732     0.2755827
  H        2.2753340     0.1249760     1.2880770
  H       -2.2753170     0.1249770     1.2880710
  H        4.3539520    -0.8597410     0.2658680
  H        3.0673460    -2.0742840     0.4304720
  H        3.4026140    -1.3466350    -1.1536290
  H        3.6579950     1.6291330    -0.1863970
  H        1.9277540     2.0091980    -0.2639900
  H        2.6989690     1.0896910    -1.5821710
  H       -3.6580010     1.6291290    -0.1863860
  H       -1.9277600     2.0091950    -0.2639970
  H       -2.6989890     1.0896910    -1.5821710
  H       -4.3539420    -0.8597570     0.2658840
  H       -3.0673260    -2.0742900     0.4304790
  H       -3.4026140    -1.3466480    -1.1536200
units angstrom
no_reorient  #important for SAPT in psi4, default
symmetry c1  #important for SAPT in psi4, default
}

set PROPERTIES_ORIGIN ["COM"]
properties('MP2/aug-cc-pvtz', properties = ['dipole'])
--------------------------------------------------------------------------

    Molecular point group: c1
  Charge       = 0
  Multiplicity = 1
  Basis Set: AUG-CC-PVTZ
    Blend: AUG-CC-PVTZ
  Basis Set: (AUG-CC-PVTZ AUX)
    Blend: AUG-CC-PVTZ-JKFIT

    Orbital Energies [Eh]
    ---------------------

    Doubly Occupied:

       1A    -20.613967     2A    -20.594286     3A    -20.532465
       4A    -11.428835     5A    -11.300836     6A    -11.290120
       7A    -11.226139     8A    -11.222481     9A    -11.219018
      10A    -11.214995    11A     -1.499971    12A     -1.395222
      13A     -1.333004    14A     -1.086421    15A     -1.055100
      16A     -0.951016    17A     -0.942908    18A     -0.882703
      19A     -0.803489    20A     -0.773238    21A     -0.745309
      22A     -0.695618    23A     -0.674247    24A     -0.633014
      25A     -0.624980    26A     -0.615830    27A     -0.580865
      28A     -0.572162    29A     -0.560494    30A     -0.552265
      31A     -0.545532    32A     -0.534444    33A     -0.528065
      34A     -0.517308    35A     -0.503286    36A     -0.491901
      37A     -0.484246    38A     -0.464466    39A     -0.453361
      40A     -0.446912

  @DF-RHF Final Energy:  -498.03533399231355

   => Energetics <=

    Nuclear Repulsion Energy =            577.3089014086929183
    One-Electron Energy =               -1825.5074369123185534
    Two-Electron Energy =                 750.1632015113120815
    Total Energy =                       -498.0353339923135536
  Basis Set: (AUG-CC-PVTZ AUX)
    Blend: AUG-CC-PVTZ-RI
    Molecular point group: c1

    Geometry (in Angstrom), charge = 0, multiplicity = 1:

       Center              X                  Y                   Z               Mass
    ------------   -----------------  -----------------  -----------------  -----------------
         O            1.085670493647    -0.547384456347    -0.277549378496    15.994914619570
         O           -1.079059506353    -0.547368456347    -0.277571378496    15.994914619570
         O            0.003299493647     0.889109543653     1.141681621504    15.994914619570
         C            2.367890493647    -0.037764456347     0.197210621504    12.000000000000
         C           -2.361278506353    -0.037765456347     0.197205621504    12.000000000000
         C            3.361449493647    -1.143237456347    -0.093331378496    12.000000000000
         C            2.682731493647     1.263538543653    -0.515782378496    12.000000000000
         C           -2.676131506353     1.263536543653    -0.515782378496    12.000000000000
         C           -3.354831506353    -1.143247456347    -0.093323378496    12.000000000000
         C           -0.036926406353     0.001733343653     0.260989321504    12.000000000000
         H            2.278638493647     0.134482543653     1.273483621504     1.007825032230
         H           -2.272012506353     0.134483543653     1.273477621504     1.007825032230
         H            4.357256493647    -0.850234456347     0.251274621504     1.007825032230
         H            3.070650493647    -2.064777456347     0.415878621504     1.007825032230
         H            3.405918493647    -1.337128456347    -1.168222378496     1.007825032230
         H            3.661299493647     1.638639543653    -0.200990378496     1.007825032230
         H            1.931058493647     2.018704543653    -0.278583378496     1.007825032230
         H            2.702273493647     1.099197543653    -1.596764378496     1.007825032230
         H           -3.654696506353     1.638635543653    -0.200979378496     1.007825032230
         H           -1.924455506353     2.018701543653    -0.278590378496     1.007825032230
         H           -2.695684506353     1.099197543653    -1.596764378496     1.007825032230
         H           -4.350637506353    -0.850250456347     0.251290621504     1.007825032230
         H           -3.064021506353    -2.064783456347     0.415885621504     1.007825032230
         H           -3.399309506353    -1.337141456347    -1.168213378496     1.007825032230

  Basis Set: AUG-CC-PVTZ
    Blend: AUG-CC-PVTZ
  Basis Set: (AUG-CC-PVTZ AUX)
    Blend: AUG-CC-PVTZ-JKFIT
	 Reference Energy          =    -498.0353339923135536 [Eh]
	 Singles Energy            =      -0.0000000000000000 [Eh]
	 Same-Spin Energy          =      -0.4944386810372466 [Eh]
	 Opposite-Spin Energy      =      -1.6248156384090193 [Eh]
	 Correlation Energy        =      -2.1192543194462661 [Eh]
	 Total Energy              =    -500.1545883117598237 [Eh]

	 ================> DF-SCS-MP2 Energies <==================
	-----------------------------------------------------------
	 SCS Same-Spin Scale       =       0.3333333333333333 [-]
	 SCS Opposite-Spin Scale   =       1.2000000000000000 [-]
	 SCS Same-Spin Energy      =      -0.1648128936790822 [Eh]
	 SCS Opposite-Spin Energy  =      -1.9497787660908230 [Eh]
	 SCS Correlation Energy    =      -2.1145916597699053 [Eh]
	 SCS Total Energy          =    -500.1499256520834820 [Eh]
	-----------------------------------------------------------

  Dipole Moment: [D]
     X:    -0.5561      Y:    -0.2636      Z:    -0.4521     Total:     0.7636

*** Psi4 exiting successfully. Buy a developer a beer!
