                               Psi4 1.3.2 release

  ==> Input File <==

--------------------------------------------------------------------------
#psi4
#
memory 32 gb

molecule  {
0 1
  O        1.0823540    -0.5566580    -0.2632920
  O       -1.0823250    -0.5564370    -0.2635130
  O        0.0000290     0.8790020     1.1568390
  C        2.3645980    -0.0472600     0.2117580
  C       -2.2847536     0.0461659     0.3024307
  C        3.3580870    -1.1527530    -0.0787140
  C        2.6794210     1.2541120    -0.5011060
  C       -2.6796530     1.2540600    -0.5011170
  C       -3.3579470    -1.1529030    -0.0785870
  C        0.0000190     0.0134100     0.2963400
  H        2.2751950     0.1248800     1.2880410
  H       -2.2750520     0.1249260     1.2879850
  H        4.3537060    -0.8600380     0.2666930
  H        3.0667940    -2.0744370     0.4299490
  H        3.4032550    -1.3462360    -1.1536500
  H        3.6582030     1.6290460    -0.1867860
  H        1.9279580     2.0093320    -0.2633690
  H        2.6983220     1.0899770    -1.5821290
  H       -3.6584150     1.6289180    -0.1866510
  H       -1.9282070     2.0093390    -0.2634970
  H       -2.6986940     1.0899190    -1.5821360
  H       -4.3535640    -0.8602980     0.2669170
  H       -3.0664820    -2.0745270     0.4300870
  H       -3.4032180    -1.3464490    -1.1535090
units angstrom
no_reorient  #important for SAPT in psi4, default
symmetry c1  #important for SAPT in psi4, default
}

set PROPERTIES_ORIGIN ["COM"]
properties('MP2/aug-cc-pvtz', properties = ['dipole'])
--------------------------------------------------------------------------

    Molecular point group: c1
  Charge       = 0
  Multiplicity = 1
  Basis Set: AUG-CC-PVTZ
    Blend: AUG-CC-PVTZ
  Basis Set: (AUG-CC-PVTZ AUX)
    Blend: AUG-CC-PVTZ-JKFIT

    Orbital Energies [Eh]
    ---------------------

    Doubly Occupied:

       1A    -20.607835     2A    -20.602015     3A    -20.544264
       4A    -11.428740     5A    -11.294569     6A    -11.291612
       7A    -11.222278     8A    -11.221104     9A    -11.219344
      10A    -11.219227    11A     -1.496516    12A     -1.392942
      13A     -1.357434    14A     -1.077812    15A     -1.047322
      16A     -0.947159    17A     -0.934283    18A     -0.875256
      19A     -0.815891    20A     -0.778126    21A     -0.747024
      22A     -0.701621    23A     -0.677435    24A     -0.636132
      25A     -0.621475    26A     -0.607093    27A     -0.582960
      28A     -0.576395    29A     -0.555962    30A     -0.549270
      31A     -0.546445    32A     -0.535824    33A     -0.526825
      34A     -0.522625    35A     -0.511157    36A     -0.493407
      37A     -0.480257    38A     -0.472370    39A     -0.456705
      40A     -0.436183

  @DF-RHF Final Energy:  -498.01324513967734

   => Energetics <=

    Nuclear Repulsion Energy =            577.5137600185413476
    One-Electron Energy =               -1825.8322205420838600
    Two-Electron Energy =                 750.3052153838650611
    Total Energy =                       -498.0132451396773376
  Basis Set: (AUG-CC-PVTZ AUX)
    Blend: AUG-CC-PVTZ-RI
    Molecular point group: c1

    Geometry (in Angstrom), charge = 0, multiplicity = 1:

       Center              X                  Y                   Z               Mass
    ------------   -----------------  -----------------  -----------------  -----------------
         O            1.075796701151    -0.556568960542    -0.287033825757    15.994914619570
         O           -1.088882298849    -0.556347960542    -0.287254825757    15.994914619570
         O           -0.006528298849     0.879091039458     1.133097174243    15.994914619570
         C            2.358040701151    -0.047170960542     0.188016174243    12.000000000000
         C           -2.291310898849     0.046254939458     0.278688874243    12.000000000000
         C            3.351529701151    -1.152663960542    -0.102455825757    12.000000000000
         C            2.672863701151     1.254201039458    -0.524847825757    12.000000000000
         C           -2.686210298849     1.254149039458    -0.524858825757    12.000000000000
         C           -3.364504298849    -1.152813960542    -0.102328825757    12.000000000000
         C           -0.006538298849     0.013499039458     0.272598174243    12.000000000000
         H            2.268637701151     0.124969039458     1.264299174243     1.007825032230
         H           -2.281609298849     0.125015039458     1.264243174243     1.007825032230
         H            4.347148701151    -0.859948960542     0.242951174243     1.007825032230
         H            3.060236701151    -2.074347960542     0.406207174243     1.007825032230
         H            3.396697701151    -1.346146960542    -1.177391825757     1.007825032230
         H            3.651645701151     1.629135039458    -0.210527825757     1.007825032230
         H            1.921400701151     2.009421039458    -0.287110825757     1.007825032230
         H            2.691764701151     1.090066039458    -1.605870825757     1.007825032230
         H           -3.664972298849     1.629007039458    -0.210392825757     1.007825032230
         H           -1.934764298849     2.009428039458    -0.287238825757     1.007825032230
         H           -2.705251298849     1.090008039458    -1.605877825757     1.007825032230
         H           -4.360121298849    -0.860208960542     0.243175174243     1.007825032230
         H           -3.073039298849    -2.074437960542     0.406345174243     1.007825032230
         H           -3.409775298849    -1.346359960542    -1.177250825757     1.007825032230

  Basis Set: AUG-CC-PVTZ
    Blend: AUG-CC-PVTZ
  Basis Set: (AUG-CC-PVTZ AUX)
    Blend: AUG-CC-PVTZ-JKFIT
	 Reference Energy          =    -498.0132451396773376 [Eh]
	 Singles Energy            =      -0.0000000000000000 [Eh]
	 Same-Spin Energy          =      -0.4946669039143990 [Eh]
	 Opposite-Spin Energy      =      -1.6267161618453514 [Eh]
	 Correlation Energy        =      -2.1213830657597503 [Eh]
	 Total Energy              =    -500.1346282054370818 [Eh]

	 ================> DF-SCS-MP2 Energies <==================
	-----------------------------------------------------------
	 SCS Same-Spin Scale       =       0.3333333333333333 [-]
	 SCS Opposite-Spin Scale   =       1.2000000000000000 [-]
	 SCS Same-Spin Energy      =      -0.1648889679714663 [Eh]
	 SCS Opposite-Spin Energy  =      -1.9520593942144215 [Eh]
	 SCS Correlation Energy    =      -2.1169483621858878 [Eh]
	 SCS Total Energy          =    -500.1301935018632321 [Eh]
	-----------------------------------------------------------

  Dipole Moment: [D]
     X:     0.2500      Y:     0.0408      Z:    -0.2281     Total:     0.3409

*** Psi4 exiting successfully. Buy a developer a beer!
