                               Psi4 1.3.2 release

  ==> Input File <==

--------------------------------------------------------------------------
#psi4
#
memory 32 gb

molecule  {
0 1
  O        1.0823540    -0.5566580    -0.2632920
  O       -1.0823250    -0.5564370    -0.2635130
  O        0.0000290     0.8790020     1.1568390
  C        2.3645980    -0.0472600     0.2117580
  C       -2.3645710    -0.0472670     0.2117220
  C        3.3580870    -1.1527530    -0.0787140
  C        2.6794210     1.2541120    -0.5011060
  C       -2.6796530     1.2540600    -0.5011170
  C       -3.3579470    -1.1529030    -0.0785870
  C        0.0000174    -0.1284280     0.1553365
  H        2.2751950     0.1248800     1.2880410
  H       -2.2750520     0.1249260     1.2879850
  H        4.3537060    -0.8600380     0.2666930
  H        3.0667940    -2.0744370     0.4299490
  H        3.4032550    -1.3462360    -1.1536500
  H        3.6582030     1.6290460    -0.1867860
  H        1.9279580     2.0093320    -0.2633690
  H        2.6983220     1.0899770    -1.5821290
  H       -3.6584150     1.6289180    -0.1866510
  H       -1.9282070     2.0093390    -0.2634970
  H       -2.6986940     1.0899190    -1.5821360
  H       -4.3535640    -0.8602980     0.2669170
  H       -3.0664820    -2.0745270     0.4300870
  H       -3.4032180    -1.3464490    -1.1535090
units angstrom
no_reorient  #important for SAPT in psi4, default
symmetry c1  #important for SAPT in psi4, default
}

set PROPERTIES_ORIGIN ["COM"]
properties('MP2/aug-cc-pvtz', properties = ['dipole'])
--------------------------------------------------------------------------

    Molecular point group: c1
  Charge       = 0
  Multiplicity = 1
  Basis Set: AUG-CC-PVTZ
    Blend: AUG-CC-PVTZ
  Basis Set: (AUG-CC-PVTZ AUX)
    Blend: AUG-CC-PVTZ-JKFIT

    Orbital Energies [Eh]
    ---------------------

    Doubly Occupied:

       1A    -20.619720     2A    -20.619695     3A    -20.483238
       4A    -11.425995     5A    -11.304746     6A    -11.304743
       7A    -11.227492     8A    -11.227491     9A    -11.219935
      10A    -11.219934    11A     -1.534801    12A     -1.446695
      13A     -1.219319    14A     -1.101043    15A     -1.071708
      16A     -0.949980    17A     -0.949891    18A     -0.906330
      19A     -0.832198    20A     -0.773016    21A     -0.765467
      22A     -0.710105    23A     -0.677077    24A     -0.642152
      25A     -0.628153    26A     -0.619809    27A     -0.581863
      28A     -0.566612    29A     -0.562852    30A     -0.552779
      31A     -0.547146    32A     -0.545503    33A     -0.525881
      34A     -0.511535    35A     -0.496712    36A     -0.492849
      37A     -0.475051    38A     -0.470480    39A     -0.406925
      40A     -0.397795

  @DF-RHF Final Energy:  -497.98527943482861

   => Energetics <=

    Nuclear Repulsion Energy =            577.6620023257136154
    One-Electron Energy =               -1826.0651255161617428
    Two-Electron Energy =                 750.4178437556196286
    Total Energy =                       -497.9852794348286125
  Basis Set: (AUG-CC-PVTZ AUX)
    Blend: AUG-CC-PVTZ-RI
    Molecular point group: c1

    Geometry (in Angstrom), charge = 0, multiplicity = 1:

       Center              X                  Y                   Z               Mass
    ------------   -----------------  -----------------  -----------------  -----------------
         O            1.082352932553    -0.537244107280    -0.268001279598    15.994914619570
         O           -1.082326067447    -0.537023107280    -0.268222279598    15.994914619570
         O            0.000027932553     0.898415892720     1.152129720402    15.994914619570
         C            2.364596932553    -0.027846107280     0.207048720402    12.000000000000
         C           -2.364572067447    -0.027853107280     0.207012720402    12.000000000000
         C            3.358085932553    -1.133339107280    -0.083423279598    12.000000000000
         C            2.679419932553     1.273525892720    -0.505815279598    12.000000000000
         C           -2.679654067447     1.273473892720    -0.505826279598    12.000000000000
         C           -3.357948067447    -1.133489107280    -0.083296279598    12.000000000000
         C            0.000016332553    -0.109014107280     0.150627220402    12.000000000000
         H            2.275193932553     0.144293892720     1.283331720402     1.007825032230
         H           -2.275053067447     0.144339892720     1.283275720402     1.007825032230
         H            4.353704932553    -0.840624107280     0.261983720402     1.007825032230
         H            3.066792932553    -2.055023107280     0.425239720402     1.007825032230
         H            3.403253932553    -1.326822107280    -1.158359279598     1.007825032230
         H            3.658201932553     1.648459892720    -0.191495279598     1.007825032230
         H            1.927956932553     2.028745892720    -0.268078279598     1.007825032230
         H            2.698320932553     1.109390892720    -1.586838279598     1.007825032230
         H           -3.658416067447     1.648331892720    -0.191360279598     1.007825032230
         H           -1.928208067447     2.028752892720    -0.268206279598     1.007825032230
         H           -2.698695067447     1.109332892720    -1.586845279598     1.007825032230
         H           -4.353565067447    -0.840884107280     0.262207720402     1.007825032230
         H           -3.066483067447    -2.055113107280     0.425377720402     1.007825032230
         H           -3.403219067447    -1.327035107280    -1.158218279598     1.007825032230

  Basis Set: AUG-CC-PVTZ
    Blend: AUG-CC-PVTZ
  Basis Set: (AUG-CC-PVTZ AUX)
    Blend: AUG-CC-PVTZ-JKFIT
	 Reference Energy          =    -497.9852794348286125 [Eh]
	 Singles Energy            =      -0.0000000000000000 [Eh]
	 Same-Spin Energy          =      -0.4941663522503831 [Eh]
	 Opposite-Spin Energy      =      -1.6236979471498398 [Eh]
	 Correlation Energy        =      -2.1178642994002228 [Eh]
	 Total Energy              =    -500.1031437342288086 [Eh]

	 ================> DF-SCS-MP2 Energies <==================
	-----------------------------------------------------------
	 SCS Same-Spin Scale       =       0.3333333333333333 [-]
	 SCS Opposite-Spin Scale   =       1.2000000000000000 [-]
	 SCS Same-Spin Energy      =      -0.1647221174167944 [Eh]
	 SCS Opposite-Spin Energy  =      -1.9484375365798077 [Eh]
	 SCS Correlation Energy    =      -2.1131596539966022 [Eh]
	 SCS Total Energy          =    -500.0984390888252165 [Eh]
	-----------------------------------------------------------

  Dipole Moment: [D]
     X:    -0.0000      Y:    -1.1154      Z:    -1.3848     Total:     1.7781

*** Psi4 exiting successfully. Buy a developer a beer!
