                               Psi4 1.4a3.dev225

  ==> Input File <==

--------------------------------------------------------------------------
#psi4
#
memory 32 gb

molecule  {
0 1
  O        1.0823660    -0.5568910    -0.2629560
  O       -1.0823640    -0.5568750    -0.2629780
  O       -0.0000050     0.8796030     1.1562750
  C        2.3645860    -0.0472710     0.2118040
  C       -2.3645830    -0.0472720     0.2117990
  C        3.3581450    -1.1527440    -0.0787380
  C        2.6794270     1.2540320    -0.5011890
  C       -2.6794360     1.2540300    -0.5011890
  C       -3.3581360    -1.1527540    -0.0787300
  C       -0.0160930     0.0049451     0.2880569
  H        2.2753340     0.1249760     1.2880770
  H       -2.2753170     0.1249770     1.2880710
  H        4.3539520    -0.8597410     0.2658680
  H        3.0673460    -2.0742840     0.4304720
  H        3.4026140    -1.3466350    -1.1536290
  H        3.6579950     1.6291330    -0.1863970
  H        1.9277540     2.0091980    -0.2639900
  H        2.6989690     1.0896910    -1.5821710
  H       -3.6580010     1.6291290    -0.1863860
  H       -1.9277600     2.0091950    -0.2639970
  H       -2.6989890     1.0896910    -1.5821710
  H       -4.3539420    -0.8597570     0.2658840
  H       -3.0673260    -2.0742900     0.4304790
  H       -3.4026140    -1.3466480    -1.1536200
units angstrom
no_reorient  #important for SAPT in psi4, default
symmetry c1  #important for SAPT in psi4, default
}

set PROPERTIES_ORIGIN ["COM"]
properties('MP2/aug-cc-pvtz', properties = ['dipole'])
--------------------------------------------------------------------------

    Molecular point group: c1
  Charge       = 0
  Multiplicity = 1
  Basis Set: AUG-CC-PVTZ
    Blend: AUG-CC-PVTZ
  Basis Set: (AUG-CC-PVTZ AUX)
    Blend: AUG-CC-PVTZ-JKFIT

    Orbital Energies [Eh]
    ---------------------

    Doubly Occupied:

       1A    -20.606167     2A    -20.598319     3A    -20.537762
       4A    -11.428291     5A    -11.296560     6A    -11.292316
       7A    -11.223412     8A    -11.220594     9A    -11.220074
      10A    -11.217108    11A     -1.493766    12A     -1.392276
      13A     -1.346150    14A     -1.083206    15A     -1.054945
      16A     -0.948194    17A     -0.944977    18A     -0.878831
      19A     -0.802126    20A     -0.769960    21A     -0.746251
      22A     -0.694865    23A     -0.673980    24A     -0.632932
      25A     -0.624809    26A     -0.615980    27A     -0.580441
      28A     -0.574349    29A     -0.559418    30A     -0.549979
      31A     -0.547304    32A     -0.534058    33A     -0.527056
      34A     -0.517441    35A     -0.504622    36A     -0.490227
      37A     -0.485587    38A     -0.467244    39A     -0.455183
      40A     -0.451100

  @DF-RHF Final Energy:  -498.03845866337082

   => Energetics <=

    Nuclear Repulsion Energy =            577.2837805162228051
    One-Electron Energy =               -1825.4687606939389752
    Two-Electron Energy =                 750.1465215143454088
    Total Energy =                       -498.0384586633707613
  Basis Set: (AUG-CC-PVTZ AUX)
    Blend: AUG-CC-PVTZ-RI
    Molecular point group: c1

    Geometry (in Angstrom), charge = 0, multiplicity = 1:

       Center              X                  Y                   Z               Mass
    ------------   -----------------  -----------------  -----------------  -----------------
         O            1.083687837162    -0.548429121375    -0.278573993459    15.994914619570
         O           -1.081042162838    -0.548413121375    -0.278595993459    15.994914619570
         O            0.001316837162     0.888064878625     1.140657006541    15.994914619570
         C            2.365907837162    -0.038809121375     0.196186006541    12.000000000000
         C           -2.363261162838    -0.038810121375     0.196181006541    12.000000000000
         C            3.359466837162    -1.144282121375    -0.094355993459    12.000000000000
         C            2.680748837162     1.262493878625    -0.516806993459    12.000000000000
         C           -2.678114162838     1.262491878625    -0.516806993459    12.000000000000
         C           -3.356814162838    -1.144292121375    -0.094347993459    12.000000000000
         C           -0.014771162838     0.013406978625     0.272438906541    12.000000000000
         H            2.276655837162     0.133437878625     1.272459006541     1.007825032230
         H           -2.273995162838     0.133438878625     1.272453006541     1.007825032230
         H            4.355273837162    -0.851279121375     0.250250006541     1.007825032230
         H            3.068667837162    -2.065822121375     0.414854006541     1.007825032230
         H            3.403935837162    -1.338173121375    -1.169246993459     1.007825032230
         H            3.659316837162     1.637594878625    -0.202014993459     1.007825032230
         H            1.929075837162     2.017659878625    -0.279607993459     1.007825032230
         H            2.700290837162     1.098152878625    -1.597788993459     1.007825032230
         H           -3.656679162838     1.637590878625    -0.202003993459     1.007825032230
         H           -1.926438162838     2.017656878625    -0.279614993459     1.007825032230
         H           -2.697667162838     1.098152878625    -1.597788993459     1.007825032230
         H           -4.352620162838    -0.851295121375     0.250266006541     1.007825032230
         H           -3.066004162838    -2.065828121375     0.414861006541     1.007825032230
         H           -3.401292162838    -1.338186121375    -1.169237993459     1.007825032230

  Basis Set: AUG-CC-PVTZ
    Blend: AUG-CC-PVTZ
  Basis Set: (AUG-CC-PVTZ AUX)
    Blend: AUG-CC-PVTZ-JKFIT
	 Reference Energy          =    -498.0384586633708182 [Eh]
	 Singles Energy            =      -0.0000000000000000 [Eh]
	 Same-Spin Energy          =      -0.4943558848958801 [Eh]
	 Opposite-Spin Energy      =      -1.6248077230213429 [Eh]
	 Correlation Energy        =      -2.1191636079172231 [Eh]
	 Total Energy              =    -500.1576222712880622 [Eh]

	 ================> DF-SCS-MP2 Energies <==================
	-----------------------------------------------------------
	 SCS Same-Spin Scale       =       0.3333333333333333 [-]
	 SCS Opposite-Spin Scale   =       1.2000000000000000 [-]
	 SCS Same-Spin Energy      =      -0.1647852949652934 [Eh]
	 SCS Opposite-Spin Energy  =      -1.9497692676256113 [Eh]
	 SCS Correlation Energy    =      -2.1145545625909046 [Eh]
	 SCS Total Energy          =    -500.1530132259617289 [Eh]
	-----------------------------------------------------------

  Dipole Moment: [D]
     X:    -0.2213      Y:    -0.1739      Z:    -0.3551     Total:     0.4532

*** Psi4 exiting successfully. Buy a developer a beer!
