                               Psi4 1.3.2 release

  ==> Input File <==

--------------------------------------------------------------------------
#psi4
#
memory 32 gb

molecule  {
0 1
  O        1.0823540    -0.5566580    -0.2632920
  O       -1.0823250    -0.5564370    -0.2635130
  O        0.0000290     0.8790020     1.1568390
  C        2.3645980    -0.0472600     0.2117580
  C       -2.3880937    -0.0797034     0.1802779
  C        3.3580870    -1.1527530    -0.0787140
  C        2.6794210     1.2541120    -0.5011060
  C       -2.6796530     1.2540600    -0.5011170
  C       -3.3579470    -1.1529030    -0.0785870
  C        0.0000190     0.0134100     0.2963400
  H        2.2751950     0.1248800     1.2880410
  H       -2.2750520     0.1249260     1.2879850
  H        4.3537060    -0.8600380     0.2666930
  H        3.0667940    -2.0744370     0.4299490
  H        3.4032550    -1.3462360    -1.1536500
  H        3.6582030     1.6290460    -0.1867860
  H        1.9279580     2.0093320    -0.2633690
  H        2.6983220     1.0899770    -1.5821290
  H       -3.6584150     1.6289180    -0.1866510
  H       -1.9282070     2.0093390    -0.2634970
  H       -2.6986940     1.0899190    -1.5821360
  H       -4.3535640    -0.8602980     0.2669170
  H       -3.0664820    -2.0745270     0.4300870
  H       -3.4032180    -1.3464490    -1.1535090
units angstrom
no_reorient  #important for SAPT in psi4, default
symmetry c1  #important for SAPT in psi4, default
}

set PROPERTIES_ORIGIN ["COM"]
properties('MP2/aug-cc-pvtz', properties = ['dipole'])
--------------------------------------------------------------------------

    Molecular point group: c1
  Charge       = 0
  Multiplicity = 1
  Basis Set: AUG-CC-PVTZ
    Blend: AUG-CC-PVTZ
  Basis Set: (AUG-CC-PVTZ AUX)
    Blend: AUG-CC-PVTZ-JKFIT

    Orbital Energies [Eh]
    ---------------------

    Doubly Occupied:

       1A    -20.600764     2A    -20.599142     3A    -20.540582
       4A    -11.428025     5A    -11.295688     6A    -11.293601
       7A    -11.221494     8A    -11.221344     9A    -11.219030
      10A    -11.218322    11A     -1.490796    12A     -1.388205
      13A     -1.353570    14A     -1.084849    15A     -1.056993
      16A     -0.949865    17A     -0.946192    18A     -0.877414
      19A     -0.798798    20A     -0.765499    21A     -0.744510
      22A     -0.694022    23A     -0.673704    24A     -0.633038
      25A     -0.627546    26A     -0.616638    27A     -0.581774
      28A     -0.575682    29A     -0.561520    30A     -0.548861
      31A     -0.548126    32A     -0.533675    33A     -0.526211
      34A     -0.518519    35A     -0.507861    36A     -0.491285
      37A     -0.481359    38A     -0.466858    39A     -0.456251
      40A     -0.447923

  @DF-RHF Final Energy:  -498.03585008688185

   => Energetics <=

    Nuclear Repulsion Energy =            577.2316334058432403
    One-Electron Energy =               -1825.3638887847118895
    Two-Electron Energy =                 750.0964052919867981
    Total Energy =                       -498.0358500868818510
  Basis Set: (AUG-CC-PVTZ AUX)
    Blend: AUG-CC-PVTZ-RI
    Molecular point group: c1

    Geometry (in Angstrom), charge = 0, multiplicity = 1:

       Center              X                  Y                   Z               Mass
    ------------   -----------------  -----------------  -----------------  -----------------
         O            1.084284925869    -0.546230215917    -0.277000349728    15.994914619570
         O           -1.080394074131    -0.546009215917    -0.277221349728    15.994914619570
         O            0.001959925869     0.889429784083     1.143130650272    15.994914619570
         C            2.366528925869    -0.036832215917     0.198049650272    12.000000000000
         C           -2.386162774131    -0.069275615917     0.166569550272    12.000000000000
         C            3.360017925869    -1.142325215917    -0.092422349728    12.000000000000
         C            2.681351925869     1.264539784083    -0.514814349728    12.000000000000
         C           -2.677722074131     1.264487784083    -0.514825349728    12.000000000000
         C           -3.356016074131    -1.142475215917    -0.092295349728    12.000000000000
         C            0.001949925869     0.023837784083     0.282631650272    12.000000000000
         H            2.277125925869     0.135307784083     1.274332650272     1.007825032230
         H           -2.273121074131     0.135353784083     1.274276650272     1.007825032230
         H            4.355636925869    -0.849610215917     0.252984650272     1.007825032230
         H            3.068724925869    -2.064009215917     0.416240650272     1.007825032230
         H            3.405185925869    -1.335808215917    -1.167358349728     1.007825032230
         H            3.660133925869     1.639473784083    -0.200494349728     1.007825032230
         H            1.929888925869     2.019759784083    -0.277077349728     1.007825032230
         H            2.700252925869     1.100404784083    -1.595837349728     1.007825032230
         H           -3.656484074131     1.639345784083    -0.200359349728     1.007825032230
         H           -1.926276074131     2.019766784083    -0.277205349728     1.007825032230
         H           -2.696763074131     1.100346784083    -1.595844349728     1.007825032230
         H           -4.351633074131    -0.849870215917     0.253208650272     1.007825032230
         H           -3.064551074131    -2.064099215917     0.416378650272     1.007825032230
         H           -3.401287074131    -1.336021215917    -1.167217349728     1.007825032230

  Basis Set: AUG-CC-PVTZ
    Blend: AUG-CC-PVTZ
  Basis Set: (AUG-CC-PVTZ AUX)
    Blend: AUG-CC-PVTZ-JKFIT
	 Reference Energy          =    -498.0358500868818510 [Eh]
	 Singles Energy            =      -0.0000000000000000 [Eh]
	 Same-Spin Energy          =      -0.4946034483507458 [Eh]
	 Opposite-Spin Energy      =      -1.6250753910125781 [Eh]
	 Correlation Energy        =      -2.1196788393633241 [Eh]
	 Total Energy              =    -500.1555289262451538 [Eh]

	 ================> DF-SCS-MP2 Energies <==================
	-----------------------------------------------------------
	 SCS Same-Spin Scale       =       0.3333333333333333 [-]
	 SCS Opposite-Spin Scale   =       1.2000000000000000 [-]
	 SCS Same-Spin Energy      =      -0.1648678161169153 [Eh]
	 SCS Opposite-Spin Energy  =      -1.9500904692150938 [Eh]
	 SCS Correlation Energy    =      -2.1149582853320092 [Eh]
	 SCS Total Energy          =    -500.1508083722138736 [Eh]
	-----------------------------------------------------------

  Dipole Moment: [D]
     X:    -0.0674      Y:    -0.1706      Z:    -0.3186     Total:     0.3677

*** Psi4 exiting successfully. Buy a developer a beer!
