                               Psi4 1.3.2 release

  ==> Input File <==

--------------------------------------------------------------------------
#psi4
#
memory 32 gb

molecule  {
0 1
  O        1.0823540    -0.5566580    -0.2632920
  O       -1.0787254    -0.5160523    -0.2943398
  O        0.0000290     0.8790020     1.1568390
  C        2.3645980    -0.0472600     0.2117580
  C       -2.3645710    -0.0472670     0.2117220
  C        3.3580870    -1.1527530    -0.0787140
  C        2.6794210     1.2541120    -0.5011060
  C       -2.6796530     1.2540600    -0.5011170
  C       -3.3579470    -1.1529030    -0.0785870
  C        0.0000190     0.0134100     0.2963400
  H        2.2751950     0.1248800     1.2880410
  H       -2.2750520     0.1249260     1.2879850
  H        4.3537060    -0.8600380     0.2666930
  H        3.0667940    -2.0744370     0.4299490
  H        3.4032550    -1.3462360    -1.1536500
  H        3.6582030     1.6290460    -0.1867860
  H        1.9279580     2.0093320    -0.2633690
  H        2.6983220     1.0899770    -1.5821290
  H       -3.6584150     1.6289180    -0.1866510
  H       -1.9282070     2.0093390    -0.2634970
  H       -2.6986940     1.0899190    -1.5821360
  H       -4.3535640    -0.8602980     0.2669170
  H       -3.0664820    -2.0745270     0.4300870
  H       -3.4032180    -1.3464490    -1.1535090
units angstrom
no_reorient  #important for SAPT in psi4, default
symmetry c1  #important for SAPT in psi4, default
}

set PROPERTIES_ORIGIN ["COM"]
properties('MP2/aug-cc-pvtz', properties = ['dipole'])
--------------------------------------------------------------------------

    Molecular point group: c1
  Charge       = 0
  Multiplicity = 1
  Basis Set: AUG-CC-PVTZ
    Blend: AUG-CC-PVTZ
  Basis Set: (AUG-CC-PVTZ AUX)
    Blend: AUG-CC-PVTZ-JKFIT

    Orbital Energies [Eh]
    ---------------------

    Doubly Occupied:

       1A    -20.600861     2A    -20.600473     3A    -20.540055
       4A    -11.427157     5A    -11.294356     6A    -11.293483
       7A    -11.222649     8A    -11.221457     9A    -11.218253
      10A    -11.217421    11A     -1.493111    12A     -1.389977
      13A     -1.353652    14A     -1.082132    15A     -1.054397
      16A     -0.946196    17A     -0.946106    18A     -0.877088
      19A     -0.801218    20A     -0.769698    21A     -0.746828
      22A     -0.695446    23A     -0.674320    24A     -0.631692
      25A     -0.625013    26A     -0.615491    27A     -0.581048
      28A     -0.575471    29A     -0.559614    30A     -0.548617
      31A     -0.548154    32A     -0.533739    33A     -0.526158
      34A     -0.516697    35A     -0.505955    36A     -0.489934
      37A     -0.486181    38A     -0.468634    39A     -0.455793
      40A     -0.451622

  @DF-RHF Final Energy:  -498.03922606686854

   => Energetics <=

    Nuclear Repulsion Energy =            577.5549912817355107
    One-Electron Energy =               -1826.0161443554197831
    Two-Electron Energy =                 750.4219270068157357
    Total Energy =                       -498.0392260668685367
  Basis Set: (AUG-CC-PVTZ AUX)
    Blend: AUG-CC-PVTZ-RI
    Molecular point group: c1

    Geometry (in Angstrom), charge = 0, multiplicity = 1:

       Center              X                  Y                   Z               Mass
    ------------   -----------------  -----------------  -----------------  -----------------
         O            1.081958704326    -0.553315958953    -0.276208102265    15.994914619570
         O           -1.079120695674    -0.512710258953    -0.307255902265    15.994914619570
         O           -0.000366295674     0.882344041047     1.143922897735    15.994914619570
         C            2.364202704326    -0.043917958953     0.198841897735    12.000000000000
         C           -2.364966295674    -0.043924958953     0.198805897735    12.000000000000
         C            3.357691704326    -1.149410958953    -0.091630102265    12.000000000000
         C            2.679025704326     1.257454041047    -0.514022102265    12.000000000000
         C           -2.680048295674     1.257402041047    -0.514033102265    12.000000000000
         C           -3.358342295674    -1.149560958953    -0.091503102265    12.000000000000
         C           -0.000376295674     0.016752041047     0.283423897735    12.000000000000
         H            2.274799704326     0.128222041047     1.275124897735     1.007825032230
         H           -2.275447295674     0.128268041047     1.275068897735     1.007825032230
         H            4.353310704326    -0.856695958953     0.253776897735     1.007825032230
         H            3.066398704326    -2.071094958953     0.417032897735     1.007825032230
         H            3.402859704326    -1.342893958953    -1.166566102265     1.007825032230
         H            3.657807704326     1.632388041047    -0.199702102265     1.007825032230
         H            1.927562704326     2.012674041047    -0.276285102265     1.007825032230
         H            2.697926704326     1.093319041047    -1.595045102265     1.007825032230
         H           -3.658810295674     1.632260041047    -0.199567102265     1.007825032230
         H           -1.928602295674     2.012681041047    -0.276413102265     1.007825032230
         H           -2.699089295674     1.093261041047    -1.595052102265     1.007825032230
         H           -4.353959295674    -0.856955958953     0.254000897735     1.007825032230
         H           -3.066877295674    -2.071184958953     0.417170897735     1.007825032230
         H           -3.403613295674    -1.343106958953    -1.166425102265     1.007825032230

  Basis Set: AUG-CC-PVTZ
    Blend: AUG-CC-PVTZ
  Basis Set: (AUG-CC-PVTZ AUX)
    Blend: AUG-CC-PVTZ-JKFIT
	 Reference Energy          =    -498.0392260668685367 [Eh]
	 Singles Energy            =      -0.0000000000000000 [Eh]
	 Same-Spin Energy          =      -0.4942264688374086 [Eh]
	 Opposite-Spin Energy      =      -1.6245986210328811 [Eh]
	 Correlation Energy        =      -2.1188250898702896 [Eh]
	 Total Energy              =    -500.1580511567388498 [Eh]

	 ================> DF-SCS-MP2 Energies <==================
	-----------------------------------------------------------
	 SCS Same-Spin Scale       =       0.3333333333333333 [-]
	 SCS Opposite-Spin Scale   =       1.2000000000000000 [-]
	 SCS Same-Spin Energy      =      -0.1647421562791362 [Eh]
	 SCS Opposite-Spin Energy  =      -1.9495183452394573 [Eh]
	 SCS Correlation Energy    =      -2.1142605015185936 [Eh]
	 SCS Total Energy          =    -500.1534865683871089 [Eh]
	-----------------------------------------------------------

  Dipole Moment: [D]
     X:    -0.0420      Y:    -0.1875      Z:    -0.2629     Total:     0.3257

*** Psi4 exiting successfully. Buy a developer a beer!
