                               Psi4 1.3.2 release

  ==> Input File <==

--------------------------------------------------------------------------
#psi4
#
memory 32 gb

molecule  {
0 1
  O        1.0823540    -0.5566580    -0.2632920
  O       -1.0847110    -0.5763998    -0.2478801
  O        0.0000290     0.8790020     1.1568390
  C        2.3645980    -0.0472600     0.2117580
  C       -2.3645710    -0.0472670     0.2117220
  C        3.3580870    -1.1527530    -0.0787140
  C        2.6794210     1.2541120    -0.5011060
  C       -2.6796530     1.2540600    -0.5011170
  C       -3.3579470    -1.1529030    -0.0785870
  C        0.0000190     0.0134100     0.2963400
  H        2.2751950     0.1248800     1.2880410
  H       -2.2750520     0.1249260     1.2879850
  H        4.3537060    -0.8600380     0.2666930
  H        3.0667940    -2.0744370     0.4299490
  H        3.4032550    -1.3462360    -1.1536500
  H        3.6582030     1.6290460    -0.1867860
  H        1.9279580     2.0093320    -0.2633690
  H        2.6983220     1.0899770    -1.5821290
  H       -3.6584150     1.6289180    -0.1866510
  H       -1.9282070     2.0093390    -0.2634970
  H       -2.6986940     1.0899190    -1.5821360
  H       -4.3535640    -0.8602980     0.2669170
  H       -3.0664820    -2.0745270     0.4300870
  H       -3.4032180    -1.3464490    -1.1535090
units angstrom
no_reorient  #important for SAPT in psi4, default
symmetry c1  #important for SAPT in psi4, default
}

set PROPERTIES_ORIGIN ["COM"]
properties('MP2/aug-cc-pvtz', properties = ['dipole'])
--------------------------------------------------------------------------

    Molecular point group: c1
  Charge       = 0
  Multiplicity = 1
  Basis Set: AUG-CC-PVTZ
    Blend: AUG-CC-PVTZ
  Basis Set: (AUG-CC-PVTZ AUX)
    Blend: AUG-CC-PVTZ-JKFIT

    Orbital Energies [Eh]
    ---------------------

    Doubly Occupied:

       1A    -20.601297     2A    -20.600905     3A    -20.541992
       4A    -11.428382     5A    -11.293956     6A    -11.293365
       7A    -11.221750     8A    -11.221055     9A    -11.219006
      10A    -11.218675    11A     -1.491184    12A     -1.388679
      13A     -1.354620    14A     -1.081489    15A     -1.054138
      16A     -0.946597    17A     -0.946346    18A     -0.876277
      19A     -0.800907    20A     -0.769026    21A     -0.744995
      22A     -0.695434    23A     -0.674216    24A     -0.632987
      25A     -0.624938    26A     -0.615451    27A     -0.581665
      28A     -0.574291    29A     -0.558630    30A     -0.548692
      31A     -0.548120    32A     -0.534585    33A     -0.525811
      34A     -0.517123    35A     -0.505877    36A     -0.490320
      37A     -0.485592    38A     -0.468846    39A     -0.457312
      40A     -0.452180

  @DF-RHF Final Energy:  -498.03863114986956

   => Energetics <=

    Nuclear Repulsion Energy =            577.1160335979515139
    One-Electron Energy =               -1825.1359072585514696
    Two-Electron Energy =                 749.9812425107303397
    Total Energy =                       -498.0386311498695022
  Basis Set: (AUG-CC-PVTZ AUX)
    Blend: AUG-CC-PVTZ-RI
    Molecular point group: c1

    Geometry (in Angstrom), charge = 0, multiplicity = 1:

       Center              X                  Y                   Z               Mass
    ------------   -----------------  -----------------  -----------------  -----------------
         O            1.082614028762    -0.546708903458    -0.281294672814    15.994914619570
         O           -1.084450971238    -0.566450703458    -0.265882772814    15.994914619570
         O            0.000289028762     0.888951096542     1.138836327186    15.994914619570
         C            2.364858028762    -0.037310903458     0.193755327186    12.000000000000
         C           -2.364310971238    -0.037317903458     0.193719327186    12.000000000000
         C            3.358347028762    -1.142803903458    -0.096716672814    12.000000000000
         C            2.679681028762     1.264061096542    -0.519108672814    12.000000000000
         C           -2.679392971238     1.264009096542    -0.519119672814    12.000000000000
         C           -3.357686971238    -1.142953903458    -0.096589672814    12.000000000000
         C            0.000279028762     0.023359096542     0.278337327186    12.000000000000
         H            2.275455028762     0.134829096542     1.270038327186     1.007825032230
         H           -2.274791971238     0.134875096542     1.269982327186     1.007825032230
         H            4.353966028762    -0.850088903458     0.248690327186     1.007825032230
         H            3.067054028762    -2.064487903458     0.411946327186     1.007825032230
         H            3.403515028762    -1.336286903458    -1.171652672814     1.007825032230
         H            3.658463028762     1.638995096542    -0.204788672814     1.007825032230
         H            1.928218028762     2.019281096542    -0.281371672814     1.007825032230
         H            2.698582028762     1.099926096542    -1.600131672814     1.007825032230
         H           -3.658154971238     1.638867096542    -0.204653672814     1.007825032230
         H           -1.927946971238     2.019288096542    -0.281499672814     1.007825032230
         H           -2.698433971238     1.099868096542    -1.600138672814     1.007825032230
         H           -4.353303971238    -0.850348903458     0.248914327186     1.007825032230
         H           -3.066221971238    -2.064577903458     0.412084327186     1.007825032230
         H           -3.402957971238    -1.336499903458    -1.171511672814     1.007825032230

  Basis Set: AUG-CC-PVTZ
    Blend: AUG-CC-PVTZ
  Basis Set: (AUG-CC-PVTZ AUX)
    Blend: AUG-CC-PVTZ-JKFIT
	 Reference Energy          =    -498.0386311498695591 [Eh]
	 Singles Energy            =      -0.0000000000000000 [Eh]
	 Same-Spin Energy          =      -0.4944007855253442 [Eh]
	 Opposite-Spin Energy      =      -1.6250594815373436 [Eh]
	 Correlation Energy        =      -2.1194602670626876 [Eh]
	 Total Energy              =    -500.1580914169322227 [Eh]

	 ================> DF-SCS-MP2 Energies <==================
	-----------------------------------------------------------
	 SCS Same-Spin Scale       =       0.3333333333333333 [-]
	 SCS Opposite-Spin Scale   =       1.2000000000000000 [-]
	 SCS Same-Spin Energy      =      -0.1648002618417814 [Eh]
	 SCS Opposite-Spin Energy  =      -1.9500713778448122 [Eh]
	 SCS Correlation Energy    =      -2.1148716396865934 [Eh]
	 SCS Total Energy          =    -500.1535027895561711 [Eh]
	-----------------------------------------------------------

  Dipole Moment: [D]
     X:     0.0296      Y:    -0.0762      Z:    -0.3039     Total:     0.3147

*** Psi4 exiting successfully. Buy a developer a beer!
