                               Psi4 1.4a3.dev225

  ==> Input File <==

--------------------------------------------------------------------------
#psi4
#
memory 32 gb

molecule  {
0 1
  O       -0.5498120     2.2556960    -0.2996080
  N       -3.0129360     1.7813540     0.8248620
  C        1.0008190     0.4908720    -0.0872200
  C       -1.5329590     0.0859130    -0.1428360
  C       -0.3878030     1.0286420    -0.1846270
  C        3.6793340    -0.3535020     0.1683990
  C       -2.8127890     0.5150010     0.2964470
  C        1.3212360    -0.6095270     0.7211930
  C        2.0273690     1.1786660    -0.7492360
  C        2.6489240    -1.0168440     0.8468500
  C        3.3454510     0.7479200    -0.6334830
  C       -1.3791480    -1.2185740    -0.6492330
  C       -3.8612840    -0.4227650     0.3079770
  C       -2.4390410    -2.1168890    -0.6711390
  C        5.1038640    -0.8322750     0.2664150
  C       -3.6857840    -1.7096250    -0.1856360
  H        0.5383950    -1.1258400     1.2710410
  H        1.7737210     2.0503190    -1.3473030
  H        2.8902070    -1.8603380     1.4919100
  H        4.1335430     1.2826870    -1.1615780
  H       -0.4095800    -1.5185310    -1.0371660
  H       -4.8387790    -0.1097830     0.6721110
  H       -2.3031150    -3.1155080    -1.0770870
  H        5.8460593    -0.0291150     0.2855233
  H        5.2850310    -1.3360150     1.2200590
  H        5.3367840    -1.5427250    -0.5345020
  H       -4.5250650    -2.4017370    -0.1822600
  H       -2.3845940     2.4838010     0.4485930
  H       -3.9825350     2.0742830     0.8527820
units angstrom
no_reorient  #important for SAPT in psi4, default
symmetry c1  #important for SAPT in psi4, default
}

set PROPERTIES_ORIGIN ["COM"]
properties('MP2/aug-cc-pvtz', properties = ['dipole'])
--------------------------------------------------------------------------

    Molecular point group: c1
  Charge       = 0
  Multiplicity = 1
  Basis Set: AUG-CC-PVTZ
    Blend: AUG-CC-PVTZ
  Basis Set: (AUG-CC-PVTZ AUX)
    Blend: AUG-CC-PVTZ-JKFIT

    Orbital Energies [Eh]
    ---------------------

    Doubly Occupied:

       1A    -20.538160     2A    -15.560087     3A    -11.338604
       4A    -11.296967     5A    -11.257749     6A    -11.252783
       7A    -11.252323     8A    -11.250602     9A    -11.246227
      10A    -11.243798    11A    -11.239464    12A    -11.239186
      13A    -11.237833    14A    -11.232796    15A    -11.232016
      16A    -11.228353    17A     -1.371199    18A     -1.226624
      19A     -1.165196    20A     -1.137160    21A     -1.069310
      22A     -1.034546    23A     -1.020583    24A     -0.996605
      25A     -0.954714    26A     -0.877307    27A     -0.838706
      28A     -0.836592    29A     -0.813411    30A     -0.766271
      31A     -0.712818    32A     -0.692067    33A     -0.686293
      34A     -0.661114    35A     -0.644919    36A     -0.636292
      37A     -0.614034    38A     -0.603758    39A     -0.600500
      40A     -0.592652    41A     -0.589659    42A     -0.584524
      43A     -0.553691    44A     -0.539464    45A     -0.530084
      46A     -0.519239    47A     -0.513495    48A     -0.504831
      49A     -0.492409    50A     -0.482814    51A     -0.452358
      52A     -0.419055    53A     -0.349779    54A     -0.343052
      55A     -0.334643    56A     -0.300423

  @DF-RHF Final Energy:  -667.27535546561910

   => Energetics <=

    Nuclear Repulsion Energy =            992.7710372413849882
    One-Electron Energy =               -2876.6745008578927809
    Two-Electron Energy =                1216.6281081508889201
    Total Energy =                       -667.2753554656189863
  Basis Set: (AUG-CC-PVTZ AUX)
    Blend: AUG-CC-PVTZ-RI
    Molecular point group: c1

    Geometry (in Angstrom), charge = 0, multiplicity = 1:

       Center              X                  Y                   Z               Mass
    ------------   -----------------  -----------------  -----------------  -----------------
         O           -0.515569278710     2.231823567739    -0.296358510492    15.994914619570
         N           -2.978693278710     1.757481567739     0.828111489508    14.003074004430
         C            1.035061721290     0.466999567739    -0.083970510492    12.000000000000
         C           -1.498716278710     0.062040567739    -0.139586510492    12.000000000000
         C           -0.353560278710     1.004769567739    -0.181377510492    12.000000000000
         C            3.713576721290    -0.377374432261     0.171648489508    12.000000000000
         C           -2.778546278710     0.491128567739     0.299696489508    12.000000000000
         C            1.355478721290    -0.633399432261     0.724442489508    12.000000000000
         C            2.061611721290     1.154793567739    -0.745986510492    12.000000000000
         C            2.683166721290    -1.040716432261     0.850099489508    12.000000000000
         C            3.379693721290     0.724047567739    -0.630233510492    12.000000000000
         C           -1.344905278710    -1.242446432261    -0.645983510492    12.000000000000
         C           -3.827041278710    -0.446637432261     0.311226489508    12.000000000000
         C           -2.404798278710    -2.140761432261    -0.667889510492    12.000000000000
         C            5.138106721290    -0.856147432261     0.269664489508    12.000000000000
         C           -3.651541278710    -1.733497432261    -0.182386510492    12.000000000000
         H            0.572637721290    -1.149712432261     1.274290489508     1.007825032230
         H            1.807963721290     2.026446567739    -1.344053510492     1.007825032230
         H            2.924449721290    -1.884210432261     1.495159489508     1.007825032230
         H            4.167785721290     1.258814567739    -1.158328510492     1.007825032230
         H           -0.375337278710    -1.542403432261    -1.033916510492     1.007825032230
         H           -4.804536278710    -0.133655432261     0.675360489508     1.007825032230
         H           -2.268872278710    -3.139380432261    -1.073837510492     1.007825032230
         H            5.880302021290    -0.052987432261     0.288772789508     1.007825032230
         H            5.319273721290    -1.359887432261     1.223308489508     1.007825032230
         H            5.371026721290    -1.566597432261    -0.531252510492     1.007825032230
         H           -4.490822278710    -2.425609432261    -0.179010510492     1.007825032230
         H           -2.350351278710     2.459928567739     0.451842489508     1.007825032230
         H           -3.948292278710     2.050410567739     0.856031489508     1.007825032230

  Basis Set: AUG-CC-PVTZ
    Blend: AUG-CC-PVTZ
  Basis Set: (AUG-CC-PVTZ AUX)
    Blend: AUG-CC-PVTZ-JKFIT
	 Reference Energy          =    -667.2753554656191000 [Eh]
	 Singles Energy            =      -0.0000000000000000 [Eh]
	 Same-Spin Energy          =      -0.7355393483860115 [Eh]
	 Opposite-Spin Energy      =      -2.2655671090693978 [Eh]
	 Correlation Energy        =      -3.0011064574554096 [Eh]
	 Total Energy              =    -670.2764619230745211 [Eh]

	 ================> DF-SCS-MP2 Energies <==================
	-----------------------------------------------------------
	 SCS Same-Spin Scale       =       0.3333333333333333 [-]
	 SCS Opposite-Spin Scale   =       1.2000000000000000 [-]
	 SCS Same-Spin Energy      =      -0.2451797827953372 [Eh]
	 SCS Opposite-Spin Energy  =      -2.7186805308832773 [Eh]
	 SCS Correlation Energy    =      -2.9638603136786146 [Eh]
	 SCS Total Energy          =    -670.2392157792977514 [Eh]
	-----------------------------------------------------------

  Dipole Moment: [D]
     X:     0.3475      Y:    -1.8034      Z:    -0.0729     Total:     1.8381

*** Psi4 exiting successfully. Buy a developer a beer!
