                               Psi4 1.4a3.dev225

  ==> Input File <==

--------------------------------------------------------------------------
#psi4
#
memory 32 gb

molecule  {
0 1
  O       -0.5498120     2.2556960    -0.2996080
  N       -3.0129360     1.7813540     0.8248620
  C        1.0008190     0.4908720    -0.0872200
  C       -1.5329590     0.0859130    -0.1428360
  C       -0.3878030     1.0286420    -0.1846270
  C        3.6793340    -0.3535020     0.1683990
  C       -2.8127890     0.5150010     0.2964470
  C        1.3212360    -0.6095270     0.7211930
  C        2.0273690     1.1786660    -0.7492360
  C        2.6489240    -1.0168440     0.8468500
  C        3.3454510     0.7479200    -0.6334830
  C       -1.3791480    -1.2185740    -0.6492330
  C       -3.8612840    -0.4227650     0.3079770
  C       -2.4390410    -2.1168890    -0.6711390
  C        5.1038640    -0.8322750     0.2664150
  C       -3.6857840    -1.7096250    -0.1856360
  H        0.3943692    -1.2208304     1.3722012
  H        1.7737210     2.0503190    -1.3473030
  H        2.8902070    -1.8603380     1.4919100
  H        4.1335430     1.2826870    -1.1615780
  H       -0.4095800    -1.5185310    -1.0371660
  H       -4.8387790    -0.1097830     0.6721110
  H       -2.3031150    -3.1155080    -1.0770870
  H        5.8059070     0.0022690     0.1830070
  H        5.2850310    -1.3360150     1.2200590
  H        5.3367840    -1.5427250    -0.5345020
  H       -4.5250650    -2.4017370    -0.1822600
  H       -2.3845940     2.4838010     0.4485930
  H       -3.9825350     2.0742830     0.8527820
units angstrom
no_reorient  #important for SAPT in psi4, default
symmetry c1  #important for SAPT in psi4, default
}

set PROPERTIES_ORIGIN ["COM"]
properties('MP2/aug-cc-pvtz', properties = ['dipole'])
--------------------------------------------------------------------------

    Molecular point group: c1
  Charge       = 0
  Multiplicity = 1
  Basis Set: AUG-CC-PVTZ
    Blend: AUG-CC-PVTZ
  Basis Set: (AUG-CC-PVTZ AUX)
    Blend: AUG-CC-PVTZ-JKFIT

    Orbital Energies [Eh]
    ---------------------

    Doubly Occupied:

       1A    -20.538253     2A    -15.559758     3A    -11.338769
       4A    -11.296519     5A    -11.270791     6A    -11.258665
       7A    -11.252365     8A    -11.251671     9A    -11.247888
      10A    -11.245699    11A    -11.240905    12A    -11.238603
      13A    -11.238537    14A    -11.234028    15A    -11.231512
      16A    -11.227771    17A     -1.371285    18A     -1.226248
      19A     -1.165535    20A     -1.136745    21A     -1.069424
      22A     -1.034618    23A     -1.017473    24A     -0.996130
      25A     -0.955411    26A     -0.876743    27A     -0.837582
      28A     -0.829084    29A     -0.812802    30A     -0.764410
      31A     -0.711473    32A     -0.689850    33A     -0.685785
      34A     -0.660145    35A     -0.643501    36A     -0.625582
      37A     -0.614154    38A     -0.603100    39A     -0.599971
      40A     -0.585494    41A     -0.584194    42A     -0.579840
      43A     -0.553138    44A     -0.544852    45A     -0.531796
      46A     -0.517608    47A     -0.512415    48A     -0.504763
      49A     -0.485498    50A     -0.481672    51A     -0.451081
      52A     -0.419067    53A     -0.349019    54A     -0.343630
      55A     -0.335127    56A     -0.300083

  @DF-RHF Final Energy:  -667.25373054372028

   => Energetics <=

    Nuclear Repulsion Energy =            992.0603853250831889
    One-Electron Energy =               -2875.2721065104269655
    Two-Electron Energy =                1215.9579906416233825
    Total Energy =                       -667.2537305437203941
  Basis Set: (AUG-CC-PVTZ AUX)
    Blend: AUG-CC-PVTZ-RI
    Molecular point group: c1

    Geometry (in Angstrom), charge = 0, multiplicity = 1:

       Center              X                  Y                   Z               Mass
    ------------   -----------------  -----------------  -----------------  -----------------
         O           -0.514689981926     2.232127235238    -0.296352036245    15.994914619570
         N           -2.977813981926     1.757785235238     0.828117963755    14.003074004430
         C            1.035941018074     0.467303235238    -0.083964036245    12.000000000000
         C           -1.497836981926     0.062344235238    -0.139580036245    12.000000000000
         C           -0.352680981926     1.005073235238    -0.181371036245    12.000000000000
         C            3.714456018074    -0.377070764762     0.171654963755    12.000000000000
         C           -2.777666981926     0.491432235238     0.299702963755    12.000000000000
         C            1.356358018074    -0.633095764762     0.724448963755    12.000000000000
         C            2.062491018074     1.155097235238    -0.745980036245    12.000000000000
         C            2.684046018074    -1.040412764762     0.850105963755    12.000000000000
         C            3.380573018074     0.724351235238    -0.630227036245    12.000000000000
         C           -1.344025981926    -1.242142764762    -0.645977036245    12.000000000000
         C           -3.826161981926    -0.446333764762     0.311232963755    12.000000000000
         C           -2.403918981926    -2.140457764762    -0.667883036245    12.000000000000
         C            5.138986018074    -0.855843764762     0.269670963755    12.000000000000
         C           -3.650661981926    -1.733193764762    -0.182380036245    12.000000000000
         H            0.429491218074    -1.244399164762     1.375457163755     1.007825032230
         H            1.808843018074     2.026750235238    -1.344047036245     1.007825032230
         H            2.925329018074    -1.883906764762     1.495165963755     1.007825032230
         H            4.168665018074     1.259118235238    -1.158322036245     1.007825032230
         H           -0.374457981926    -1.542099764762    -1.033910036245     1.007825032230
         H           -4.803656981926    -0.133351764762     0.675366963755     1.007825032230
         H           -2.267992981926    -3.139076764762    -1.073831036245     1.007825032230
         H            5.841029018074    -0.021299764762     0.186262963755     1.007825032230
         H            5.320153018074    -1.359583764762     1.223314963755     1.007825032230
         H            5.371906018074    -1.566293764762    -0.531246036245     1.007825032230
         H           -4.489942981926    -2.425305764762    -0.179004036245     1.007825032230
         H           -2.349471981926     2.460232235238     0.451848963755     1.007825032230
         H           -3.947412981926     2.050714235238     0.856037963755     1.007825032230

  Basis Set: AUG-CC-PVTZ
    Blend: AUG-CC-PVTZ
  Basis Set: (AUG-CC-PVTZ AUX)
    Blend: AUG-CC-PVTZ-JKFIT
	 Reference Energy          =    -667.2537305437202804 [Eh]
	 Singles Energy            =      -0.0000000000000000 [Eh]
	 Same-Spin Energy          =      -0.7363929151003775 [Eh]
	 Opposite-Spin Energy      =      -2.2682106010127803 [Eh]
	 Correlation Energy        =      -3.0046035161131579 [Eh]
	 Total Energy              =    -670.2583340598334871 [Eh]

	 ================> DF-SCS-MP2 Energies <==================
	-----------------------------------------------------------
	 SCS Same-Spin Scale       =       0.3333333333333333 [-]
	 SCS Opposite-Spin Scale   =       1.2000000000000000 [-]
	 SCS Same-Spin Energy      =      -0.2454643050334592 [Eh]
	 SCS Opposite-Spin Energy  =      -2.7218527212153361 [Eh]
	 SCS Correlation Energy    =      -2.9673170262487951 [Eh]
	 SCS Total Energy          =    -670.2210475699690733 [Eh]
	-----------------------------------------------------------

  Dipole Moment: [D]
     X:     0.4164      Y:    -1.7887      Z:    -0.1384     Total:     1.8418

*** Psi4 exiting successfully. Buy a developer a beer!
