                               Psi4 1.4a3.dev225

  ==> Input File <==

--------------------------------------------------------------------------
#psi4
#
memory 32 gb

molecule  {
0 1
  O       -0.5498120     2.2556960    -0.2996080
  N       -3.0129360     1.7813540     0.8248620
  C        1.0008190     0.4908720    -0.0872200
  C       -1.5329590     0.0859130    -0.1428360
  C       -0.3878030     1.0286420    -0.1846270
  C        3.6793340    -0.3535020     0.1683990
  C       -2.8127890     0.5150010     0.2964470
  C        1.4151933    -0.5949165     0.6979130
  C        2.0273690     1.1786660    -0.7492360
  C        2.6489240    -1.0168440     0.8468500
  C        3.3454510     0.7479200    -0.6334830
  C       -1.3791480    -1.2185740    -0.6492330
  C       -3.8612840    -0.4227650     0.3079770
  C       -2.4390410    -2.1168890    -0.6711390
  C        5.1038640    -0.8322750     0.2664150
  C       -3.6857840    -1.7096250    -0.1856360
  H        0.5383950    -1.1258400     1.2710410
  H        1.7737210     2.0503190    -1.3473030
  H        2.8902070    -1.8603380     1.4919100
  H        4.1335430     1.2826870    -1.1615780
  H       -0.4095800    -1.5185310    -1.0371660
  H       -4.8387790    -0.1097830     0.6721110
  H       -2.3031150    -3.1155080    -1.0770870
  H        5.8059070     0.0022690     0.1830070
  H        5.2850310    -1.3360150     1.2200590
  H        5.3367840    -1.5427250    -0.5345020
  H       -4.5250650    -2.4017370    -0.1822600
  H       -2.3845940     2.4838010     0.4485930
  H       -3.9825350     2.0742830     0.8527820
units angstrom
no_reorient  #important for SAPT in psi4, default
symmetry c1  #important for SAPT in psi4, default
}

set PROPERTIES_ORIGIN ["COM"]
properties('MP2/aug-cc-pvtz', properties = ['dipole'])
--------------------------------------------------------------------------

    Molecular point group: c1
  Charge       = 0
  Multiplicity = 1
  Basis Set: AUG-CC-PVTZ
    Blend: AUG-CC-PVTZ
  Basis Set: (AUG-CC-PVTZ AUX)
    Blend: AUG-CC-PVTZ-JKFIT

    Orbital Energies [Eh]
    ---------------------

    Doubly Occupied:

       1A    -20.538965     2A    -15.559957     3A    -11.340754
       4A    -11.296720     5A    -11.258612     6A    -11.252511
       7A    -11.252189     8A    -11.247335     9A    -11.246812
      10A    -11.241750    11A    -11.238994    12A    -11.235689
      13A    -11.233631    14A    -11.231700    15A    -11.229577
      16A    -11.228016    17A     -1.371846    18A     -1.226448
      19A     -1.173555    20A     -1.137090    21A     -1.068210
      22A     -1.035183    23A     -1.029439    24A     -0.996381
      25A     -0.957249    26A     -0.877250    27A     -0.837730
      28A     -0.829915    29A     -0.814353    30A     -0.769479
      31A     -0.713132    32A     -0.691822    33A     -0.686312
      34A     -0.666643    35A     -0.644579    36A     -0.628160
      37A     -0.616221    38A     -0.604199    39A     -0.602456
      40A     -0.587602    41A     -0.585344    42A     -0.583493
      43A     -0.554380    44A     -0.545647    45A     -0.532625
      46A     -0.519530    47A     -0.514820    48A     -0.506832
      49A     -0.487350    50A     -0.476280    51A     -0.451576
      52A     -0.421193    53A     -0.354118    54A     -0.347517
      55A     -0.331587    56A     -0.300117

  @DF-RHF Final Energy:  -667.26464782812275

   => Energetics <=

    Nuclear Repulsion Energy =            993.5475769331634410
    One-Electron Energy =               -2878.2027017273944693
    Two-Electron Energy =                1217.3904769661082810
    Total Energy =                       -667.2646478281228610
  Basis Set: (AUG-CC-PVTZ AUX)
    Blend: AUG-CC-PVTZ-RI
    Molecular point group: c1

    Geometry (in Angstrom), charge = 0, multiplicity = 1:

       Center              X                  Y                   Z               Mass
    ------------   -----------------  -----------------  -----------------  -----------------
         O           -0.520718604050     2.230843198904    -0.294545725026    15.994914619570
         N           -2.983842604050     1.756501198904     0.829924274974    14.003074004430
         C            1.029912395950     0.466019198904    -0.082157725026    12.000000000000
         C           -1.503865604050     0.061060198904    -0.137773725026    12.000000000000
         C           -0.358709604050     1.003789198904    -0.179564725026    12.000000000000
         C            3.708427395950    -0.378354801096     0.173461274974    12.000000000000
         C           -2.783695604050     0.490148198904     0.301509274974    12.000000000000
         C            1.444286695950    -0.619769301096     0.702975274974    12.000000000000
         C            2.056462395950     1.153813198904    -0.744173725026    12.000000000000
         C            2.678017395950    -1.041696801096     0.851912274974    12.000000000000
         C            3.374544395950     0.723067198904    -0.628420725026    12.000000000000
         C           -1.350054604050    -1.243426801096    -0.644170725026    12.000000000000
         C           -3.832190604050    -0.447617801096     0.313039274974    12.000000000000
         C           -2.409947604050    -2.141741801096    -0.666076725026    12.000000000000
         C            5.132957395950    -0.857127801096     0.271477274974    12.000000000000
         C           -3.656690604050    -1.734477801096    -0.180573725026    12.000000000000
         H            0.567488395950    -1.150692801096     1.276103274974     1.007825032230
         H            1.802814395950     2.025466198904    -1.342240725026     1.007825032230
         H            2.919300395950    -1.885190801096     1.496972274974     1.007825032230
         H            4.162636395950     1.257834198904    -1.156515725026     1.007825032230
         H           -0.380486604050    -1.543383801096    -1.032103725026     1.007825032230
         H           -4.809685604050    -0.134635801096     0.677173274974     1.007825032230
         H           -2.274021604050    -3.140360801096    -1.072024725026     1.007825032230
         H            5.835000395950    -0.022583801096     0.188069274974     1.007825032230
         H            5.314124395950    -1.360867801096     1.225121274974     1.007825032230
         H            5.365877395950    -1.567577801096    -0.529439725026     1.007825032230
         H           -4.495971604050    -2.426589801096    -0.177197725026     1.007825032230
         H           -2.355500604050     2.458948198904     0.453655274974     1.007825032230
         H           -3.953441604050     2.049430198904     0.857844274974     1.007825032230

  Basis Set: AUG-CC-PVTZ
    Blend: AUG-CC-PVTZ
  Basis Set: (AUG-CC-PVTZ AUX)
    Blend: AUG-CC-PVTZ-JKFIT
	 Reference Energy          =    -667.2646478281227473 [Eh]
	 Singles Energy            =      -0.0000000000000000 [Eh]
	 Same-Spin Energy          =      -0.7356225140028519 [Eh]
	 Opposite-Spin Energy      =      -2.2655546559818607 [Eh]
	 Correlation Energy        =      -3.0011771699847127 [Eh]
	 Total Energy              =    -670.2658249981074050 [Eh]

	 ================> DF-SCS-MP2 Energies <==================
	-----------------------------------------------------------
	 SCS Same-Spin Scale       =       0.3333333333333333 [-]
	 SCS Opposite-Spin Scale   =       1.2000000000000000 [-]
	 SCS Same-Spin Energy      =      -0.2452075046676173 [Eh]
	 SCS Opposite-Spin Energy  =      -2.7186655871782328 [Eh]
	 SCS Correlation Energy    =      -2.9638730918458500 [Eh]
	 SCS Total Energy          =    -670.2285209199685596 [Eh]
	-----------------------------------------------------------

  Dipole Moment: [D]
     X:     0.3560      Y:    -1.7954      Z:    -0.1302     Total:     1.8349

*** Psi4 exiting successfully. Buy a developer a beer!
