                               Psi4 1.4a3.dev225

  ==> Input File <==

--------------------------------------------------------------------------
#psi4
#
memory 32 gb

molecule  {
0 1
  O       -0.5498120     2.2556960    -0.2996080
  N       -3.0129360     1.7813540     0.8248620
  C        1.0008190     0.4908720    -0.0872200
  C       -1.5329590     0.0859130    -0.1428360
  C       -0.3878030     1.0286420    -0.1846270
  C        3.6793340    -0.3535020     0.1683990
  C       -2.8127890     0.5150010     0.2964470
  C        1.3212360    -0.6095270     0.7211930
  C        2.0273690     1.1786660    -0.7492360
  C        2.6652646    -1.0327336     0.8556913
  C        3.3454510     0.7479200    -0.6334830
  C       -1.3791480    -1.2185740    -0.6492330
  C       -3.8612840    -0.4227650     0.3079770
  C       -2.4390410    -2.1168890    -0.6711390
  C        5.1038640    -0.8322750     0.2664150
  C       -3.6857840    -1.7096250    -0.1856360
  H        0.5383950    -1.1258400     1.2710410
  H        1.7737210     2.0503190    -1.3473030
  H        2.8902070    -1.8603380     1.4919100
  H        4.1335430     1.2826870    -1.1615780
  H       -0.4095800    -1.5185310    -1.0371660
  H       -4.8387790    -0.1097830     0.6721110
  H       -2.3031150    -3.1155080    -1.0770870
  H        5.8059070     0.0022690     0.1830070
  H        5.2850310    -1.3360150     1.2200590
  H        5.3367840    -1.5427250    -0.5345020
  H       -4.5250650    -2.4017370    -0.1822600
  H       -2.3845940     2.4838010     0.4485930
  H       -3.9825350     2.0742830     0.8527820
units angstrom
no_reorient  #important for SAPT in psi4, default
symmetry c1  #important for SAPT in psi4, default
}

set PROPERTIES_ORIGIN ["COM"]
properties('MP2/aug-cc-pvtz', properties = ['dipole'])
--------------------------------------------------------------------------

    Molecular point group: c1
  Charge       = 0
  Multiplicity = 1
  Basis Set: AUG-CC-PVTZ
    Blend: AUG-CC-PVTZ
  Basis Set: (AUG-CC-PVTZ AUX)
    Blend: AUG-CC-PVTZ-JKFIT

    Orbital Energies [Eh]
    ---------------------

    Doubly Occupied:

       1A    -20.538161     2A    -15.560052     3A    -11.338711
       4A    -11.296921     5A    -11.257433     6A    -11.253209
       7A    -11.252739     8A    -11.252237     9A    -11.246716
      10A    -11.243810    11A    -11.239537    12A    -11.239141
      13A    -11.237918    14A    -11.232449    15A    -11.231966
      16A    -11.228286    17A     -1.371231    18A     -1.226586
      19A     -1.163519    20A     -1.137068    21A     -1.069757
      22A     -1.034780    23A     -1.018601    24A     -0.996536
      25A     -0.953834    26A     -0.876768    27A     -0.840369
      28A     -0.836016    29A     -0.813057    30A     -0.766699
      31A     -0.712933    32A     -0.691627    33A     -0.686311
      34A     -0.659986    35A     -0.645468    36A     -0.637914
      37A     -0.614177    38A     -0.603828    39A     -0.601241
      40A     -0.593422    41A     -0.584703    42A     -0.583495
      43A     -0.555975    44A     -0.544153    45A     -0.531821
      46A     -0.517085    47A     -0.511891    48A     -0.504039
      49A     -0.496524    50A     -0.481159    51A     -0.452280
      52A     -0.418957    53A     -0.349452    54A     -0.341292
      55A     -0.334746    56A     -0.300373

  @DF-RHF Final Energy:  -667.27571914866951

   => Energetics <=

    Nuclear Repulsion Energy =            992.4455632375604637
    One-Electron Energy =               -2876.0246445599323124
    Two-Electron Energy =                1216.3033621737022258
    Total Energy =                       -667.2757191486696229
  Basis Set: (AUG-CC-PVTZ AUX)
    Blend: AUG-CC-PVTZ-RI
    Molecular point group: c1

    Geometry (in Angstrom), charge = 0, multiplicity = 1:

       Center              X                  Y                   Z               Mass
    ------------   -----------------  -----------------  -----------------  -----------------
         O           -0.516306469225     2.232576982399    -0.296371665918    15.994914619570
         N           -2.979430469225     1.758234982399     0.828098334082    14.003074004430
         C            1.034324530775     0.467752982399    -0.083983665918    12.000000000000
         C           -1.499453469225     0.062793982399    -0.139599665918    12.000000000000
         C           -0.354297469225     1.005522982399    -0.181390665918    12.000000000000
         C            3.712839530775    -0.376621017601     0.171635334082    12.000000000000
         C           -2.779283469225     0.491881982399     0.299683334082    12.000000000000
         C            1.354741530775    -0.632646017601     0.724429334082    12.000000000000
         C            2.060874530775     1.155546982399    -0.745999665918    12.000000000000
         C            2.698770130775    -1.055852617601     0.858927634082    12.000000000000
         C            3.378956530775     0.724800982399    -0.630246665918    12.000000000000
         C           -1.345642469225    -1.241693017601    -0.645996665918    12.000000000000
         C           -3.827778469225    -0.445884017601     0.311213334082    12.000000000000
         C           -2.405535469225    -2.140008017601    -0.667902665918    12.000000000000
         C            5.137369530775    -0.855394017601     0.269651334082    12.000000000000
         C           -3.652278469225    -1.732744017601    -0.182399665918    12.000000000000
         H            0.571900530775    -1.148959017601     1.274277334082     1.007825032230
         H            1.807226530775     2.027199982399    -1.344066665918     1.007825032230
         H            2.923712530775    -1.883457017601     1.495146334082     1.007825032230
         H            4.167048530775     1.259567982399    -1.158341665918     1.007825032230
         H           -0.376074469225    -1.541650017601    -1.033929665918     1.007825032230
         H           -4.805273469225    -0.132902017601     0.675347334082     1.007825032230
         H           -2.269609469225    -3.138627017601    -1.073850665918     1.007825032230
         H            5.839412530775    -0.020850017601     0.186243334082     1.007825032230
         H            5.318536530775    -1.359134017601     1.223295334082     1.007825032230
         H            5.370289530775    -1.565844017601    -0.531265665918     1.007825032230
         H           -4.491559469225    -2.424856017601    -0.179023665918     1.007825032230
         H           -2.351088469225     2.460681982399     0.451829334082     1.007825032230
         H           -3.949029469225     2.051163982399     0.856018334082     1.007825032230

  Basis Set: AUG-CC-PVTZ
    Blend: AUG-CC-PVTZ
  Basis Set: (AUG-CC-PVTZ AUX)
    Blend: AUG-CC-PVTZ-JKFIT
	 Reference Energy          =    -667.2757191486695092 [Eh]
	 Singles Energy            =      -0.0000000000000000 [Eh]
	 Same-Spin Energy          =      -0.7354599818404509 [Eh]
	 Opposite-Spin Energy      =      -2.2656029528529968 [Eh]
	 Correlation Energy        =      -3.0010629346934476 [Eh]
	 Total Energy              =    -670.2767820833629457 [Eh]

	 ================> DF-SCS-MP2 Energies <==================
	-----------------------------------------------------------
	 SCS Same-Spin Scale       =       0.3333333333333333 [-]
	 SCS Opposite-Spin Scale   =       1.2000000000000000 [-]
	 SCS Same-Spin Energy      =      -0.2451533272801503 [Eh]
	 SCS Opposite-Spin Energy  =      -2.7187235434235961 [Eh]
	 SCS Correlation Energy    =      -2.9638768707037464 [Eh]
	 SCS Total Energy          =    -670.2395960193732662 [Eh]
	-----------------------------------------------------------

  Dipole Moment: [D]
     X:     0.3407      Y:    -1.8207      Z:    -0.0980     Total:     1.8549

*** Psi4 exiting successfully. Buy a developer a beer!
