                               Psi4 1.4a3.dev225

  ==> Input File <==

--------------------------------------------------------------------------
#psi4
#
memory 32 gb

molecule  {
0 1
  O       -0.5498120     2.2556960    -0.2996080
  N       -3.0129360     1.7813540     0.8248620
  C        1.0008190     0.4908720    -0.0872200
  C       -1.5329590     0.0859130    -0.1428360
  C       -0.3878030     1.0286420    -0.1846270
  C        3.7028937    -0.3503597     0.1625317
  C       -2.8127890     0.5150010     0.2964470
  C        1.3212360    -0.6095270     0.7211930
  C        2.0273690     1.1786660    -0.7492360
  C        2.6489240    -1.0168440     0.8468500
  C        3.3454510     0.7479200    -0.6334830
  C       -1.3791480    -1.2185740    -0.6492330
  C       -3.8612840    -0.4227650     0.3079770
  C       -2.4390410    -2.1168890    -0.6711390
  C        5.1038640    -0.8322750     0.2664150
  C       -3.6857840    -1.7096250    -0.1856360
  H        0.5383950    -1.1258400     1.2710410
  H        1.7737210     2.0503190    -1.3473030
  H        2.8902070    -1.8603380     1.4919100
  H        4.1335430     1.2826870    -1.1615780
  H       -0.4095800    -1.5185310    -1.0371660
  H       -4.8387790    -0.1097830     0.6721110
  H       -2.3031150    -3.1155080    -1.0770870
  H        5.8059070     0.0022690     0.1830070
  H        5.2850310    -1.3360150     1.2200590
  H        5.3367840    -1.5427250    -0.5345020
  H       -4.5250650    -2.4017370    -0.1822600
  H       -2.3845940     2.4838010     0.4485930
  H       -3.9825350     2.0742830     0.8527820
units angstrom
no_reorient  #important for SAPT in psi4, default
symmetry c1  #important for SAPT in psi4, default
}

set PROPERTIES_ORIGIN ["COM"]
properties('MP2/aug-cc-pvtz', properties = ['dipole'])
--------------------------------------------------------------------------

    Molecular point group: c1
  Charge       = 0
  Multiplicity = 1
  Basis Set: AUG-CC-PVTZ
    Blend: AUG-CC-PVTZ
  Basis Set: (AUG-CC-PVTZ AUX)
    Blend: AUG-CC-PVTZ-JKFIT

    Orbital Energies [Eh]
    ---------------------

    Doubly Occupied:

       1A    -20.537903     2A    -15.559951     3A    -11.338348
       4A    -11.296822     5A    -11.259013     6A    -11.252653
       7A    -11.252183     8A    -11.250183     9A    -11.246572
      10A    -11.243490    11A    -11.241126    12A    -11.239025
      13A    -11.237825    14A    -11.233016    15A    -11.231890
      16A    -11.228229    17A     -1.370953    18A     -1.226485
      19A     -1.163620    20A     -1.136978    21A     -1.071081
      22A     -1.035107    23A     -1.019599    24A     -0.996516
      25A     -0.956151    26A     -0.877003    27A     -0.838393
      28A     -0.834608    29A     -0.813281    30A     -0.765742
      31A     -0.712542    32A     -0.691755    33A     -0.686092
      34A     -0.661194    35A     -0.646051    36A     -0.636732
      37A     -0.614128    38A     -0.603718    39A     -0.599787
      40A     -0.590935    41A     -0.586343    42A     -0.584443
      43A     -0.556471    44A     -0.544850    45A     -0.531953
      46A     -0.519709    47A     -0.515139    48A     -0.505921
      49A     -0.490137    50A     -0.480909    51A     -0.452209
      52A     -0.418808    53A     -0.349706    54A     -0.343072
      55A     -0.331640    56A     -0.300277

  @DF-RHF Final Energy:  -667.27524119619284

   => Energetics <=

    Nuclear Repulsion Energy =            992.5866651563524101
    One-Electron Energy =               -2876.3072764511639434
    Two-Electron Energy =                1216.4453700986186959
    Total Energy =                       -667.2752411961928374
  Basis Set: (AUG-CC-PVTZ AUX)
    Blend: AUG-CC-PVTZ-RI
    Molecular point group: c1

    Geometry (in Angstrom), charge = 0, multiplicity = 1:

       Center              X                  Y                   Z               Mass
    ------------   -----------------  -----------------  -----------------  -----------------
         O           -0.516716840221     2.231495110730    -0.295535552990    15.994914619570
         N           -2.979840840221     1.757153110730     0.828934447010    14.003074004430
         C            1.033914159779     0.466671110730    -0.083147552990    12.000000000000
         C           -1.499863840221     0.061712110730    -0.138763552990    12.000000000000
         C           -0.354707840221     1.004441110730    -0.180554552990    12.000000000000
         C            3.735988859779    -0.374560589270     0.166604147010    12.000000000000
         C           -2.779693840221     0.490800110730     0.300519447010    12.000000000000
         C            1.354331159779    -0.633727889270     0.725265447010    12.000000000000
         C            2.060464159779     1.154465110730    -0.745163552990    12.000000000000
         C            2.682019159779    -1.041044889270     0.850922447010    12.000000000000
         C            3.378546159779     0.723719110730    -0.629410552990    12.000000000000
         C           -1.346052840221    -1.242774889270    -0.645160552990    12.000000000000
         C           -3.828188840221    -0.446965889270     0.312049447010    12.000000000000
         C           -2.405945840221    -2.141089889270    -0.667066552990    12.000000000000
         C            5.136959159779    -0.856475889270     0.270487447010    12.000000000000
         C           -3.652688840221    -1.733825889270    -0.181563552990    12.000000000000
         H            0.571490159779    -1.150040889270     1.275113447010     1.007825032230
         H            1.806816159779     2.026118110730    -1.343230552990     1.007825032230
         H            2.923302159779    -1.884538889270     1.495982447010     1.007825032230
         H            4.166638159779     1.258486110730    -1.157505552990     1.007825032230
         H           -0.376484840221    -1.542731889270    -1.033093552990     1.007825032230
         H           -4.805683840221    -0.133983889270     0.676183447010     1.007825032230
         H           -2.270019840221    -3.139708889270    -1.073014552990     1.007825032230
         H            5.839002159779    -0.021931889270     0.187079447010     1.007825032230
         H            5.318126159779    -1.360215889270     1.224131447010     1.007825032230
         H            5.369879159779    -1.566925889270    -0.530429552990     1.007825032230
         H           -4.491969840221    -2.425937889270    -0.178187552990     1.007825032230
         H           -2.351498840221     2.459600110730     0.452665447010     1.007825032230
         H           -3.949439840221     2.050082110730     0.856854447010     1.007825032230

  Basis Set: AUG-CC-PVTZ
    Blend: AUG-CC-PVTZ
  Basis Set: (AUG-CC-PVTZ AUX)
    Blend: AUG-CC-PVTZ-JKFIT
	 Reference Energy          =    -667.2752411961928374 [Eh]
	 Singles Energy            =      -0.0000000000000000 [Eh]
	 Same-Spin Energy          =      -0.7357601766392411 [Eh]
	 Opposite-Spin Energy      =      -2.2658652016074581 [Eh]
	 Correlation Energy        =      -3.0016253782466991 [Eh]
	 Total Energy              =    -670.2768665744395093 [Eh]

	 ================> DF-SCS-MP2 Energies <==================
	-----------------------------------------------------------
	 SCS Same-Spin Scale       =       0.3333333333333333 [-]
	 SCS Opposite-Spin Scale   =       1.2000000000000000 [-]
	 SCS Same-Spin Energy      =      -0.2452533922130803 [Eh]
	 SCS Opposite-Spin Energy  =      -2.7190382419289496 [Eh]
	 SCS Correlation Energy    =      -2.9642916341420298 [Eh]
	 SCS Total Energy          =    -670.2395328303348379 [Eh]
	-----------------------------------------------------------

  Dipole Moment: [D]
     X:     0.3883      Y:    -1.8308      Z:    -0.1022     Total:     1.8743

*** Psi4 exiting successfully. Buy a developer a beer!
