                               Psi4 1.4a3.dev225

  ==> Input File <==

--------------------------------------------------------------------------
#psi4
#
memory 32 gb

molecule  {
0 1
  O       -0.5498120     2.2556960    -0.2996080
  N       -3.0129360     1.7813540     0.8248620
  C        1.0008190     0.4908720    -0.0872200
  C       -1.5329590     0.0859130    -0.1428360
  C       -0.3878030     1.0286420    -0.1846270
  C        3.6793340    -0.3535020     0.1683990
  C       -2.8127890     0.5150010     0.2964470
  C        1.3212360    -0.6095270     0.7211930
  C        2.0273690     1.1786660    -0.7492360
  C        2.6489240    -1.0168440     0.8468500
  C        3.3302308     0.7117890    -0.6048132
  C       -1.3791480    -1.2185740    -0.6492330
  C       -3.8612840    -0.4227650     0.3079770
  C       -2.4390410    -2.1168890    -0.6711390
  C        5.1038640    -0.8322750     0.2664150
  C       -3.6857840    -1.7096250    -0.1856360
  H        0.5383950    -1.1258400     1.2710410
  H        1.7737210     2.0503190    -1.3473030
  H        2.8902070    -1.8603380     1.4919100
  H        4.1335430     1.2826870    -1.1615780
  H       -0.4095800    -1.5185310    -1.0371660
  H       -4.8387790    -0.1097830     0.6721110
  H       -2.3031150    -3.1155080    -1.0770870
  H        5.8059070     0.0022690     0.1830070
  H        5.2850310    -1.3360150     1.2200590
  H        5.3367840    -1.5427250    -0.5345020
  H       -4.5250650    -2.4017370    -0.1822600
  H       -2.3845940     2.4838010     0.4485930
  H       -3.9825350     2.0742830     0.8527820
units angstrom
no_reorient  #important for SAPT in psi4, default
symmetry c1  #important for SAPT in psi4, default
}

set PROPERTIES_ORIGIN ["COM"]
properties('MP2/aug-cc-pvtz', properties = ['dipole'])
--------------------------------------------------------------------------

    Molecular point group: c1
  Charge       = 0
  Multiplicity = 1
  Basis Set: AUG-CC-PVTZ
    Blend: AUG-CC-PVTZ
  Basis Set: (AUG-CC-PVTZ AUX)
    Blend: AUG-CC-PVTZ-JKFIT

    Orbital Energies [Eh]
    ---------------------

    Doubly Occupied:

       1A    -20.538598     2A    -15.560209     3A    -11.338658
       4A    -11.297059     5A    -11.252869     6A    -11.252441
       7A    -11.252031     8A    -11.249294     9A    -11.246636
      10A    -11.243834    11A    -11.239489    12A    -11.239229
      13A    -11.237040    14A    -11.233284    15A    -11.232094
      16A    -11.228441    17A     -1.371552    18A     -1.226739
      19A     -1.169444    20A     -1.137468    21A     -1.071917
      22A     -1.034931    23A     -1.019675    24A     -0.996705
      25A     -0.955340    26A     -0.878652    27A     -0.840135
      28A     -0.835385    29A     -0.815030    30A     -0.764723
      31A     -0.712251    32A     -0.692174    33A     -0.686245
      34A     -0.661846    35A     -0.647238    36A     -0.633987
      37A     -0.614483    38A     -0.603617    39A     -0.599270
      40A     -0.590123    41A     -0.585165    42A     -0.583705
      43A     -0.555903    44A     -0.543119    45A     -0.532602
      46A     -0.518226    47A     -0.514266    48A     -0.506665
      49A     -0.490651    50A     -0.483368    51A     -0.452430
      52A     -0.418808    53A     -0.350056    54A     -0.343616
      55A     -0.336305    56A     -0.300555

  @DF-RHF Final Energy:  -667.27364397124029

   => Energetics <=

    Nuclear Repulsion Energy =            993.7427184612563451
    One-Electron Energy =               -2878.6015719823149084
    Two-Electron Energy =                1217.5852095498182734
    Total Energy =                       -667.2736439712402898
  Basis Set: (AUG-CC-PVTZ AUX)
    Blend: AUG-CC-PVTZ-RI
    Molecular point group: c1

    Geometry (in Angstrom), charge = 0, multiplicity = 1:

       Center              X                  Y                   Z               Mass
    ------------   -----------------  -----------------  -----------------  -----------------
         O           -0.514512390054     2.233727608306    -0.297498820452    15.994914619570
         N           -2.977636390054     1.759385608306     0.826971179548    14.003074004430
         C            1.036118609946     0.468903608306    -0.085110820452    12.000000000000
         C           -1.497659390054     0.063944608306    -0.140726820452    12.000000000000
         C           -0.352503390054     1.006673608306    -0.182517820452    12.000000000000
         C            3.714633609946    -0.375470391694     0.170508179548    12.000000000000
         C           -2.777489390054     0.493032608306     0.298556179548    12.000000000000
         C            1.356535609946    -0.631495391694     0.723302179548    12.000000000000
         C            2.062668609946     1.156697608306    -0.747126820452    12.000000000000
         C            2.684223609946    -1.038812391694     0.848959179548    12.000000000000
         C            3.365530409946     0.689820608306    -0.602704020452    12.000000000000
         C           -1.343848390054    -1.240542391694    -0.647123820452    12.000000000000
         C           -3.825984390054    -0.444733391694     0.310086179548    12.000000000000
         C           -2.403741390054    -2.138857391694    -0.669029820452    12.000000000000
         C            5.139163609946    -0.854243391694     0.268524179548    12.000000000000
         C           -3.650484390054    -1.731593391694    -0.183526820452    12.000000000000
         H            0.573694609946    -1.147808391694     1.273150179548     1.007825032230
         H            1.809020609946     2.028350608306    -1.345193820452     1.007825032230
         H            2.925506609946    -1.882306391694     1.494019179548     1.007825032230
         H            4.168842609946     1.260718608306    -1.159468820452     1.007825032230
         H           -0.374280390054    -1.540499391694    -1.035056820452     1.007825032230
         H           -4.803479390054    -0.131751391694     0.674220179548     1.007825032230
         H           -2.267815390054    -3.137476391694    -1.074977820452     1.007825032230
         H            5.841206609946    -0.019699391694     0.185116179548     1.007825032230
         H            5.320330609946    -1.357983391694     1.222168179548     1.007825032230
         H            5.372083609946    -1.564693391694    -0.532392820452     1.007825032230
         H           -4.489765390054    -2.423705391694    -0.180150820452     1.007825032230
         H           -2.349294390054     2.461832608306     0.450702179548     1.007825032230
         H           -3.947235390054     2.052314608306     0.854891179548     1.007825032230

  Basis Set: AUG-CC-PVTZ
    Blend: AUG-CC-PVTZ
  Basis Set: (AUG-CC-PVTZ AUX)
    Blend: AUG-CC-PVTZ-JKFIT
	 Reference Energy          =    -667.2736439712402898 [Eh]
	 Singles Energy            =      -0.0000000000000000 [Eh]
	 Same-Spin Energy          =      -0.7356945706832125 [Eh]
	 Opposite-Spin Energy      =      -2.2656363996524371 [Eh]
	 Correlation Energy        =      -3.0013309703356494 [Eh]
	 Total Energy              =    -670.2749749415759197 [Eh]

	 ================> DF-SCS-MP2 Energies <==================
	-----------------------------------------------------------
	 SCS Same-Spin Scale       =       0.3333333333333333 [-]
	 SCS Opposite-Spin Scale   =       1.2000000000000000 [-]
	 SCS Same-Spin Energy      =      -0.2452315235610708 [Eh]
	 SCS Opposite-Spin Energy  =      -2.7187636795829246 [Eh]
	 SCS Correlation Energy    =      -2.9639952031439956 [Eh]
	 SCS Total Energy          =    -670.2376391743842987 [Eh]
	-----------------------------------------------------------

  Dipole Moment: [D]
     X:     0.3090      Y:    -1.8221      Z:    -0.0920     Total:     1.8504

*** Psi4 exiting successfully. Buy a developer a beer!
