                               Psi4 1.4a3.dev225

  ==> Input File <==

--------------------------------------------------------------------------
#psi4
#
memory 32 gb

molecule  {
0 1
  O       -0.5498120     2.2556960    -0.2996080
  N       -3.0129360     1.7813540     0.8248620
  C        1.0008190     0.4908720    -0.0872200
  C       -1.5329590     0.0859130    -0.1428360
  C       -0.3878030     1.0286420    -0.1846270
  C        3.6793340    -0.3535020     0.1683990
  C       -2.8127890     0.5150010     0.2964470
  C        1.3212360    -0.6095270     0.7211930
  C        2.0273690     1.1786660    -0.7492360
  C        2.6298814    -1.0110020     0.8450477
  C        3.3454510     0.7479200    -0.6334830
  C       -1.3791480    -1.2185740    -0.6492330
  C       -3.8612840    -0.4227650     0.3079770
  C       -2.4390410    -2.1168890    -0.6711390
  C        5.1038640    -0.8322750     0.2664150
  C       -3.6857840    -1.7096250    -0.1856360
  H        0.5383950    -1.1258400     1.2710410
  H        1.7737210     2.0503190    -1.3473030
  H        2.8902070    -1.8603380     1.4919100
  H        4.1335430     1.2826870    -1.1615780
  H       -0.4095800    -1.5185310    -1.0371660
  H       -4.8387790    -0.1097830     0.6721110
  H       -2.3031150    -3.1155080    -1.0770870
  H        5.8059070     0.0022690     0.1830070
  H        5.2850310    -1.3360150     1.2200590
  H        5.3367840    -1.5427250    -0.5345020
  H       -4.5250650    -2.4017370    -0.1822600
  H       -2.3845940     2.4838010     0.4485930
  H       -3.9825350     2.0742830     0.8527820
units angstrom
no_reorient  #important for SAPT in psi4, default
symmetry c1  #important for SAPT in psi4, default
}

set PROPERTIES_ORIGIN ["COM"]
properties('MP2/aug-cc-pvtz', properties = ['dipole'])
--------------------------------------------------------------------------

    Molecular point group: c1
  Charge       = 0
  Multiplicity = 1
  Basis Set: AUG-CC-PVTZ
    Blend: AUG-CC-PVTZ
  Basis Set: (AUG-CC-PVTZ AUX)
    Blend: AUG-CC-PVTZ-JKFIT

    Orbital Energies [Eh]
    ---------------------

    Doubly Occupied:

       1A    -20.537745     2A    -15.559923     3A    -11.338231
       4A    -11.296794     5A    -11.258637     6A    -11.252637
       7A    -11.252195     8A    -11.248013     9A    -11.246333
      10A    -11.243213    11A    -11.238993    12A    -11.238897
      13A    -11.237666    14A    -11.233993    15A    -11.231883
      16A    -11.228237    17A     -1.370819    18A     -1.226458
      19A     -1.165960    20A     -1.137015    21A     -1.068908
      22A     -1.034238    23A     -1.022947    24A     -0.996483
      25A     -0.955156    26A     -0.876981    27A     -0.837904
      28A     -0.835708    29A     -0.813254    30A     -0.766131
      31A     -0.712614    32A     -0.691870    33A     -0.686097
      34A     -0.661989    35A     -0.645411    36A     -0.635462
      37A     -0.614227    38A     -0.603593    39A     -0.598908
      40A     -0.592477    41A     -0.584820    42A     -0.583874
      43A     -0.555741    44A     -0.545341    45A     -0.531920
      46A     -0.518855    47A     -0.514106    48A     -0.505504
      49A     -0.490461    50A     -0.482426    51A     -0.452207
      52A     -0.418845    53A     -0.350222    54A     -0.344865
      55A     -0.332293    56A     -0.300263

  @DF-RHF Final Energy:  -667.27610690521533

   => Energetics <=

    Nuclear Repulsion Energy =            993.1206636056771231
    One-Electron Energy =               -2877.3820509584193132
    Two-Electron Energy =                1216.9852804475267476
    Total Energy =                       -667.2761069052153289
  Basis Set: (AUG-CC-PVTZ AUX)
    Blend: AUG-CC-PVTZ-RI
    Molecular point group: c1

    Geometry (in Angstrom), charge = 0, multiplicity = 1:

       Center              X                  Y                   Z               Mass
    ------------   -----------------  -----------------  -----------------  -----------------
         O           -0.514295105060     2.231341645813    -0.295766628622    15.994914619570
         N           -2.977419105060     1.756999645813     0.828703371378    14.003074004430
         C            1.036335894940     0.466517645813    -0.083378628622    12.000000000000
         C           -1.497442105060     0.061558645813    -0.138994628622    12.000000000000
         C           -0.352286105060     1.004287645813    -0.180785628622    12.000000000000
         C            3.714850894940    -0.377856354187     0.172240371378    12.000000000000
         C           -2.777272105060     0.490646645813     0.300288371378    12.000000000000
         C            1.356752894940    -0.633881354187     0.725034371378    12.000000000000
         C            2.062885894940     1.154311645813    -0.745394628622    12.000000000000
         C            2.665398294940    -1.035356354187     0.848889071378    12.000000000000
         C            3.380967894940     0.723565645813    -0.629641628622    12.000000000000
         C           -1.343631105060    -1.242928354187    -0.645391628622    12.000000000000
         C           -3.825767105060    -0.447119354187     0.311818371378    12.000000000000
         C           -2.403524105060    -2.141243354187    -0.667297628622    12.000000000000
         C            5.139380894940    -0.856629354187     0.270256371378    12.000000000000
         C           -3.650267105060    -1.733979354187    -0.181794628622    12.000000000000
         H            0.573911894940    -1.150194354187     1.274882371378     1.007825032230
         H            1.809237894940     2.025964645813    -1.343461628622     1.007825032230
         H            2.925723894940    -1.884692354187     1.495751371378     1.007825032230
         H            4.169059894940     1.258332645813    -1.157736628622     1.007825032230
         H           -0.374063105060    -1.542885354187    -1.033324628622     1.007825032230
         H           -4.803262105060    -0.134137354187     0.675952371378     1.007825032230
         H           -2.267598105060    -3.139862354187    -1.073245628622     1.007825032230
         H            5.841423894940    -0.022085354187     0.186848371378     1.007825032230
         H            5.320547894940    -1.360369354187     1.223900371378     1.007825032230
         H            5.372300894940    -1.567079354187    -0.530660628622     1.007825032230
         H           -4.489548105060    -2.426091354187    -0.178418628622     1.007825032230
         H           -2.349077105060     2.459446645813     0.452434371378     1.007825032230
         H           -3.947018105060     2.049928645813     0.856623371378     1.007825032230

  Basis Set: AUG-CC-PVTZ
    Blend: AUG-CC-PVTZ
  Basis Set: (AUG-CC-PVTZ AUX)
    Blend: AUG-CC-PVTZ-JKFIT
	 Reference Energy          =    -667.2761069052153289 [Eh]
	 Singles Energy            =      -0.0000000000000000 [Eh]
	 Same-Spin Energy          =      -0.7355547875830953 [Eh]
	 Opposite-Spin Energy      =      -2.2654884076741650 [Eh]
	 Correlation Energy        =      -3.0010431952572603 [Eh]
	 Total Energy              =    -670.2771501004725678 [Eh]

	 ================> DF-SCS-MP2 Energies <==================
	-----------------------------------------------------------
	 SCS Same-Spin Scale       =       0.3333333333333333 [-]
	 SCS Opposite-Spin Scale   =       1.2000000000000000 [-]
	 SCS Same-Spin Energy      =      -0.2451849291943651 [Eh]
	 SCS Opposite-Spin Energy  =      -2.7185860892089981 [Eh]
	 SCS Correlation Energy    =      -2.9637710184033632 [Eh]
	 SCS Total Energy          =    -670.2398779236186783 [Eh]
	-----------------------------------------------------------

  Dipole Moment: [D]
     X:     0.3706      Y:    -1.8124      Z:    -0.1099     Total:     1.8531

*** Psi4 exiting successfully. Buy a developer a beer!
