                               Psi4 1.4a3.dev225

  ==> Input File <==

--------------------------------------------------------------------------
#psi4
#
memory 32 gb

molecule  {
0 1
  O       -0.5498120     2.2556960    -0.2996080
  N       -3.0129360     1.7813540     0.8248620
  C        1.0008190     0.4908720    -0.0872200
  C       -1.5329590     0.0859130    -0.1428360
  C       -0.3878030     1.0286420    -0.1846270
  C        3.8189165    -0.3296530     0.1295963
  C       -2.8127890     0.5150010     0.2964470
  C        1.3212360    -0.6095270     0.7211930
  C        2.0273690     1.1786660    -0.7492360
  C        2.6489240    -1.0168440     0.8468500
  C        3.3454510     0.7479200    -0.6334830
  C       -1.3791480    -1.2185740    -0.6492330
  C       -3.8612840    -0.4227650     0.3079770
  C       -2.4390410    -2.1168890    -0.6711390
  C        5.1038640    -0.8322750     0.2664150
  C       -3.6857840    -1.7096250    -0.1856360
  H        0.5383950    -1.1258400     1.2710410
  H        1.7737210     2.0503190    -1.3473030
  H        2.8902070    -1.8603380     1.4919100
  H        4.1335430     1.2826870    -1.1615780
  H       -0.4095800    -1.5185310    -1.0371660
  H       -4.8387790    -0.1097830     0.6721110
  H       -2.3031150    -3.1155080    -1.0770870
  H        5.8059070     0.0022690     0.1830070
  H        5.2850310    -1.3360150     1.2200590
  H        5.3367840    -1.5427250    -0.5345020
  H       -4.5250650    -2.4017370    -0.1822600
  H       -2.3845940     2.4838010     0.4485930
  H       -3.9825350     2.0742830     0.8527820
units angstrom
no_reorient  #important for SAPT in psi4, default
symmetry c1  #important for SAPT in psi4, default
}

set PROPERTIES_ORIGIN ["COM"]
properties('MP2/aug-cc-pvtz', properties = ['dipole'])
--------------------------------------------------------------------------

    Molecular point group: c1
  Charge       = 0
  Multiplicity = 1
  Basis Set: AUG-CC-PVTZ
    Blend: AUG-CC-PVTZ
  Basis Set: (AUG-CC-PVTZ AUX)
    Blend: AUG-CC-PVTZ-JKFIT

    Orbital Energies [Eh]
    ---------------------

    Doubly Occupied:

       1A    -20.537261     2A    -15.559542     3A    -11.337607
       4A    -11.296385     5A    -11.267337     6A    -11.252248
       7A    -11.251772     8A    -11.249785     9A    -11.248004
      10A    -11.247748    11A    -11.242979    12A    -11.238571
      13A    -11.238533    14A    -11.231836    15A    -11.231490
      16A    -11.227839    17A     -1.370279    18A     -1.226064
      19A     -1.158268    20A     -1.136457    21A     -1.083409
      22A     -1.038150    23A     -1.015065    24A     -0.996270
      25A     -0.961655    26A     -0.877389    27A     -0.839248
      28A     -0.822863    29A     -0.813251    30A     -0.763547
      31A     -0.711519    32A     -0.691929    33A     -0.685499
      34A     -0.663665    35A     -0.650637    36A     -0.638708
      37A     -0.613842    38A     -0.604295    39A     -0.600119
      40A     -0.598317    41A     -0.585706    42A     -0.583260
      43A     -0.562240    44A     -0.545052    45A     -0.540196
      46A     -0.528407    47A     -0.514756    48A     -0.506019
      49A     -0.476207    50A     -0.465575    51A     -0.451478
      52A     -0.418003    53A     -0.349876    54A     -0.344386
      55A     -0.319239    56A     -0.299792

  @DF-RHF Final Energy:  -667.24712037354709

   => Energetics <=

    Nuclear Repulsion Energy =            991.2733514550541258
    One-Electron Energy =               -2873.6217941894119576
    Two-Electron Energy =                1215.1013223608106273
    Total Energy =                       -667.2471203735472045
  Basis Set: (AUG-CC-PVTZ AUX)
    Blend: AUG-CC-PVTZ-RI
    Molecular point group: c1

    Geometry (in Angstrom), charge = 0, multiplicity = 1:

       Center              X                  Y                   Z               Mass
    ------------   -----------------  -----------------  -----------------  -----------------
         O           -0.523312176488     2.230318034763    -0.293663334442    15.994914619570
         N           -2.986436176488     1.755976034763     0.830806665558    14.003074004430
         C            1.027318823512     0.465494034763    -0.081275334442    12.000000000000
         C           -1.506459176488     0.060535034763    -0.136891334442    12.000000000000
         C           -0.361303176488     1.003264034763    -0.178682334442    12.000000000000
         C            3.845416323512    -0.355030965237     0.135540965558    12.000000000000
         C           -2.786289176488     0.489623034763     0.302391665558    12.000000000000
         C            1.347735823512    -0.634904965237     0.727137665558    12.000000000000
         C            2.053868823512     1.153288034763    -0.743291334442    12.000000000000
         C            2.675423823512    -1.042221965237     0.852794665558    12.000000000000
         C            3.371950823512     0.722542034763    -0.627538334442    12.000000000000
         C           -1.352648176488    -1.243951965237    -0.643288334442    12.000000000000
         C           -3.834784176488    -0.448142965237     0.313921665558    12.000000000000
         C           -2.412541176488    -2.142266965237    -0.665194334442    12.000000000000
         C            5.130363823512    -0.857652965237     0.272359665558    12.000000000000
         C           -3.659284176488    -1.735002965237    -0.179691334442    12.000000000000
         H            0.564894823512    -1.151217965237     1.276985665558     1.007825032230
         H            1.800220823512     2.024941034763    -1.341358334442     1.007825032230
         H            2.916706823512    -1.885715965237     1.497854665558     1.007825032230
         H            4.160042823512     1.257309034763    -1.155633334442     1.007825032230
         H           -0.383080176488    -1.543908965237    -1.031221334442     1.007825032230
         H           -4.812279176488    -0.135160965237     0.678055665558     1.007825032230
         H           -2.276615176488    -3.140885965237    -1.071142334442     1.007825032230
         H            5.832406823512    -0.023108965237     0.188951665558     1.007825032230
         H            5.311530823512    -1.361392965237     1.226003665558     1.007825032230
         H            5.363283823512    -1.568102965237    -0.528557334442     1.007825032230
         H           -4.498565176488    -2.427114965237    -0.176315334442     1.007825032230
         H           -2.358094176488     2.458423034763     0.454537665558     1.007825032230
         H           -3.956035176488     2.048905034763     0.858726665558     1.007825032230

  Basis Set: AUG-CC-PVTZ
    Blend: AUG-CC-PVTZ
  Basis Set: (AUG-CC-PVTZ AUX)
    Blend: AUG-CC-PVTZ-JKFIT
	 Reference Energy          =    -667.2471203735470908 [Eh]
	 Singles Energy            =      -0.0000000000000000 [Eh]
	 Same-Spin Energy          =      -0.7374392077239846 [Eh]
	 Opposite-Spin Energy      =      -2.2690137234497505 [Eh]
	 Correlation Energy        =      -3.0064529311737349 [Eh]
	 Total Energy              =    -670.2535733047208169 [Eh]

	 ================> DF-SCS-MP2 Energies <==================
	-----------------------------------------------------------
	 SCS Same-Spin Scale       =       0.3333333333333333 [-]
	 SCS Opposite-Spin Scale   =       1.2000000000000000 [-]
	 SCS Same-Spin Energy      =      -0.2458130692413282 [Eh]
	 SCS Opposite-Spin Energy  =      -2.7228164681397007 [Eh]
	 SCS Correlation Energy    =      -2.9686295373810290 [Eh]
	 SCS Total Energy          =    -670.2157499109281389 [Eh]
	-----------------------------------------------------------

  Dipole Moment: [D]
     X:     0.5815      Y:    -1.9153      Z:    -0.0859     Total:     2.0035

*** Psi4 exiting successfully. Buy a developer a beer!
