                               Psi4 1.4a3.dev225

  ==> Input File <==

--------------------------------------------------------------------------
#psi4
#
memory 32 gb

molecule  {
0 1
  O       -0.5498120     2.2556960    -0.2996080
  N       -3.0129360     1.7813540     0.8248620
  C        1.0008190     0.4908720    -0.0872200
  C       -1.5329590     0.0859130    -0.1428360
  C       -0.3878030     1.0286420    -0.1846270
  C        3.6793340    -0.3535020     0.1683990
  C       -2.8127890     0.5150010     0.2964470
  C        1.3212360    -0.6095270     0.7211930
  C        2.0273690     1.1786660    -0.7492360
  C        2.5863719    -0.9529991     0.8072263
  C        3.3454510     0.7479200    -0.6334830
  C       -1.3791480    -1.2185740    -0.6492330
  C       -3.8612840    -0.4227650     0.3079770
  C       -2.4390410    -2.1168890    -0.6711390
  C        5.1038640    -0.8322750     0.2664150
  C       -3.6857840    -1.7096250    -0.1856360
  H        0.5383950    -1.1258400     1.2710410
  H        1.7737210     2.0503190    -1.3473030
  H        2.8902070    -1.8603380     1.4919100
  H        4.1335430     1.2826870    -1.1615780
  H       -0.4095800    -1.5185310    -1.0371660
  H       -4.8387790    -0.1097830     0.6721110
  H       -2.3031150    -3.1155080    -1.0770870
  H        5.8059070     0.0022690     0.1830070
  H        5.2850310    -1.3360150     1.2200590
  H        5.3367840    -1.5427250    -0.5345020
  H       -4.5250650    -2.4017370    -0.1822600
  H       -2.3845940     2.4838010     0.4485930
  H       -3.9825350     2.0742830     0.8527820
units angstrom
no_reorient  #important for SAPT in psi4, default
symmetry c1  #important for SAPT in psi4, default
}

set PROPERTIES_ORIGIN ["COM"]
properties('MP2/aug-cc-pvtz', properties = ['dipole'])
--------------------------------------------------------------------------

    Molecular point group: c1
  Charge       = 0
  Multiplicity = 1
  Basis Set: AUG-CC-PVTZ
    Blend: AUG-CC-PVTZ
  Basis Set: (AUG-CC-PVTZ AUX)
    Blend: AUG-CC-PVTZ-JKFIT

    Orbital Energies [Eh]
    ---------------------

    Doubly Occupied:

       1A    -20.537564     2A    -15.559997     3A    -11.337695
       4A    -11.296909     5A    -11.257807     6A    -11.252760
       7A    -11.252450     8A    -11.245114     9A    -11.243061
      10A    -11.239986    11A    -11.239116    12A    -11.237745
      13A    -11.237492    14A    -11.236391    15A    -11.232037
      16A    -11.228445    17A     -1.370582    18A     -1.226548
      19A     -1.173634    20A     -1.137335    21A     -1.069676
      22A     -1.034296    23A     -1.029179    24A     -0.996674
      25A     -0.957393    26A     -0.878324    27A     -0.839226
      28A     -0.833811    29A     -0.812671    30A     -0.764758
      31A     -0.712447    32A     -0.692944    33A     -0.686066
      34A     -0.666939    35A     -0.645798    36A     -0.633418
      37A     -0.614277    38A     -0.603847    39A     -0.598415
      40A     -0.586622    41A     -0.584273    42A     -0.582669
      43A     -0.554750    44A     -0.547503    45A     -0.532477
      46A     -0.524499    47A     -0.516673    48A     -0.507461
      49A     -0.486448    50A     -0.474745    51A     -0.452379
      52A     -0.418512    53A     -0.354174    54A     -0.347636
      55A     -0.331339    56A     -0.300385

  @DF-RHF Final Energy:  -667.26386297889906

   => Energetics <=

    Nuclear Repulsion Energy =            994.7186764471388187
    One-Electron Energy =               -2880.5343377609497111
    Two-Electron Energy =                1218.5517983349116093
    Total Energy =                       -667.2638629788991693
  Basis Set: (AUG-CC-PVTZ AUX)
    Blend: AUG-CC-PVTZ-RI
    Molecular point group: c1

    Geometry (in Angstrom), charge = 0, multiplicity = 1:

       Center              X                  Y                   Z               Mass
    ------------   -----------------  -----------------  -----------------  -----------------
         O           -0.511821799957     2.228044460864    -0.293616664554    15.994914619570
         N           -2.974945799957     1.753702460864     0.830853335446    14.003074004430
         C            1.038809200043     0.463220460864    -0.081228664554    12.000000000000
         C           -1.494968799957     0.058261460864    -0.136844664554    12.000000000000
         C           -0.349812799957     1.000990460864    -0.178635664554    12.000000000000
         C            3.717324200043    -0.381153539136     0.174390335446    12.000000000000
         C           -2.774798799957     0.487349460864     0.302438335446    12.000000000000
         C            1.359226200043    -0.637178539136     0.727184335446    12.000000000000
         C            2.065359200043     1.151014460864    -0.743244664554    12.000000000000
         C            2.624362100043    -0.980650639136     0.813217635446    12.000000000000
         C            3.383441200043     0.720268460864    -0.627491664554    12.000000000000
         C           -1.341157799957    -1.246225539136    -0.643241664554    12.000000000000
         C           -3.823293799957    -0.450416539136     0.313968335446    12.000000000000
         C           -2.401050799957    -2.144540539136    -0.665147664554    12.000000000000
         C            5.141854200043    -0.859926539136     0.272406335446    12.000000000000
         C           -3.647793799957    -1.737276539136    -0.179644664554    12.000000000000
         H            0.576385200043    -1.153491539136     1.277032335446     1.007825032230
         H            1.811711200043     2.022667460864    -1.341311664554     1.007825032230
         H            2.928197200043    -1.887989539136     1.497901335446     1.007825032230
         H            4.171533200043     1.255035460864    -1.155586664554     1.007825032230
         H           -0.371589799957    -1.546182539136    -1.031174664554     1.007825032230
         H           -4.800788799957    -0.137434539136     0.678102335446     1.007825032230
         H           -2.265124799957    -3.143159539136    -1.071095664554     1.007825032230
         H            5.843897200043    -0.025382539136     0.188998335446     1.007825032230
         H            5.323021200043    -1.363666539136     1.226050335446     1.007825032230
         H            5.374774200043    -1.570376539136    -0.528510664554     1.007825032230
         H           -4.487074799957    -2.429388539136    -0.176268664554     1.007825032230
         H           -2.346603799957     2.456149460864     0.454584335446     1.007825032230
         H           -3.944544799957     2.046631460864     0.858773335446     1.007825032230

  Basis Set: AUG-CC-PVTZ
    Blend: AUG-CC-PVTZ
  Basis Set: (AUG-CC-PVTZ AUX)
    Blend: AUG-CC-PVTZ-JKFIT
	 Reference Energy          =    -667.2638629788990556 [Eh]
	 Singles Energy            =      -0.0000000000000000 [Eh]
	 Same-Spin Energy          =      -0.7359553351681490 [Eh]
	 Opposite-Spin Energy      =      -2.2660264382715352 [Eh]
	 Correlation Energy        =      -3.0019817734396841 [Eh]
	 Total Energy              =    -670.2658447523386940 [Eh]

	 ================> DF-SCS-MP2 Energies <==================
	-----------------------------------------------------------
	 SCS Same-Spin Scale       =       0.3333333333333333 [-]
	 SCS Opposite-Spin Scale   =       1.2000000000000000 [-]
	 SCS Same-Spin Energy      =      -0.2453184450560497 [Eh]
	 SCS Opposite-Spin Energy  =      -2.7192317259258423 [Eh]
	 SCS Correlation Energy    =      -2.9645501709818918 [Eh]
	 SCS Total Energy          =    -670.2284131498809074 [Eh]
	-----------------------------------------------------------

  Dipole Moment: [D]
     X:     0.3831      Y:    -1.7629      Z:    -0.1550     Total:     1.8107

*** Psi4 exiting successfully. Buy a developer a beer!
