                               Psi4 1.4a3.dev225

  ==> Input File <==

--------------------------------------------------------------------------
#psi4
#
memory 32 gb

molecule  {
0 1
  O       -0.5498120     2.2556960    -0.2996080
  N       -3.0129360     1.7813540     0.8248620
  C        1.0008190     0.4908720    -0.0872200
  C       -1.5329590     0.0859130    -0.1428360
  C       -0.3878030     1.0286420    -0.1846270
  C        3.6793340    -0.3535020     0.1683990
  C       -2.9931071     0.5754562     0.3583386
  C        1.3212360    -0.6095270     0.7211930
  C        2.0273690     1.1786660    -0.7492360
  C        2.6489240    -1.0168440     0.8468500
  C        3.3454510     0.7479200    -0.6334830
  C       -1.3791480    -1.2185740    -0.6492330
  C       -3.8612840    -0.4227650     0.3079770
  C       -2.4390410    -2.1168890    -0.6711390
  C        5.1038640    -0.8322750     0.2664150
  C       -3.6857840    -1.7096250    -0.1856360
  H        0.5383950    -1.1258400     1.2710410
  H        1.7737210     2.0503190    -1.3473030
  H        2.8902070    -1.8603380     1.4919100
  H        4.1335430     1.2826870    -1.1615780
  H       -0.4095800    -1.5185310    -1.0371660
  H       -4.8387790    -0.1097830     0.6721110
  H       -2.3031150    -3.1155080    -1.0770870
  H        5.8059070     0.0022690     0.1830070
  H        5.2850310    -1.3360150     1.2200590
  H        5.3367840    -1.5427250    -0.5345020
  H       -4.5250650    -2.4017370    -0.1822600
  H       -2.3845940     2.4838010     0.4485930
  H       -3.9825350     2.0742830     0.8527820
units angstrom
no_reorient  #important for SAPT in psi4, default
symmetry c1  #important for SAPT in psi4, default
}

set PROPERTIES_ORIGIN ["COM"]
properties('MP2/aug-cc-pvtz', properties = ['dipole'])
--------------------------------------------------------------------------

    Molecular point group: c1
  Charge       = 0
  Multiplicity = 1
  Basis Set: AUG-CC-PVTZ
    Blend: AUG-CC-PVTZ
  Basis Set: (AUG-CC-PVTZ AUX)
    Blend: AUG-CC-PVTZ-JKFIT

    Orbital Energies [Eh]
    ---------------------

    Doubly Occupied:

       1A    -20.534106     2A    -15.572789     3A    -11.335318
       4A    -11.302336     5A    -11.256724     6A    -11.255540
       7A    -11.252192     8A    -11.248193     9A    -11.246525
      10A    -11.244370    11A    -11.241540    12A    -11.237256
      13A    -11.236189    14A    -11.232009    15A    -11.224157
      16A    -11.217389    17A     -1.367849    18A     -1.266712
      19A     -1.163177    20A     -1.135080    21A     -1.067595
      22A     -1.032423    23A     -1.018986    24A     -0.995777
      25A     -0.950086    26A     -0.881914    27A     -0.836374
      28A     -0.823268    29A     -0.813469    30A     -0.765037
      31A     -0.722202    32A     -0.703203    33A     -0.699508
      34A     -0.665185    35A     -0.645014    36A     -0.637583
      37A     -0.616005    38A     -0.598468    39A     -0.593380
      40A     -0.590414    41A     -0.582603    42A     -0.575489
      43A     -0.559712    44A     -0.548390    45A     -0.538355
      46A     -0.523573    47A     -0.509447    48A     -0.492038
      49A     -0.485578    50A     -0.469090    51A     -0.461017
      52A     -0.411797    53A     -0.350039    54A     -0.341329
      55A     -0.332122    56A     -0.289823

  @DF-RHF Final Energy:  -667.23240864986133

   => Energetics <=

    Nuclear Repulsion Energy =            990.8261610940277251
    One-Electron Energy =               -2872.7256499729342067
    Two-Electron Energy =                1214.6670802290452684
    Total Energy =                       -667.2324086498613269
  Basis Set: (AUG-CC-PVTZ AUX)
    Blend: AUG-CC-PVTZ-RI
    Molecular point group: c1

    Geometry (in Angstrom), charge = 0, multiplicity = 1:

       Center              X                  Y                   Z               Mass
    ------------   -----------------  -----------------  -----------------  -----------------
         O           -0.505127371182     2.228237148950    -0.299387319458    15.994914619570
         N           -2.968251371182     1.753895148950     0.825082680542    14.003074004430
         C            1.045503628818     0.463413148950    -0.086999319458    12.000000000000
         C           -1.488274371182     0.058454148950    -0.142615319458    12.000000000000
         C           -0.343118371182     1.001183148950    -0.184406319458    12.000000000000
         C            3.724018628818    -0.380960851050     0.168619680542    12.000000000000
         C           -2.948422471182     0.547997348950     0.358559280542    12.000000000000
         C            1.365920628818    -0.636985851050     0.721413680542    12.000000000000
         C            2.072053628818     1.151207148950    -0.749015319458    12.000000000000
         C            2.693608628818    -1.044302851050     0.847070680542    12.000000000000
         C            3.390135628818     0.720461148950    -0.633262319458    12.000000000000
         C           -1.334463371182    -1.246032851050    -0.649012319458    12.000000000000
         C           -3.816599371182    -0.450223851050     0.308197680542    12.000000000000
         C           -2.394356371182    -2.144347851050    -0.670918319458    12.000000000000
         C            5.148548628818    -0.859733851050     0.266635680542    12.000000000000
         C           -3.641099371182    -1.737083851050    -0.185415319458    12.000000000000
         H            0.583079628818    -1.153298851050     1.271261680542     1.007825032230
         H            1.818405628818     2.022860148950    -1.347082319458     1.007825032230
         H            2.934891628818    -1.887796851050     1.492130680542     1.007825032230
         H            4.178227628818     1.255228148950    -1.161357319458     1.007825032230
         H           -0.364895371182    -1.545989851050    -1.036945319458     1.007825032230
         H           -4.794094371182    -0.137241851050     0.672331680542     1.007825032230
         H           -2.258430371182    -3.142966851050    -1.076866319458     1.007825032230
         H            5.850591628818    -0.025189851050     0.183227680542     1.007825032230
         H            5.329715628818    -1.363473851050     1.220279680542     1.007825032230
         H            5.381468628818    -1.570183851050    -0.534281319458     1.007825032230
         H           -4.480380371182    -2.429195851050    -0.182039319458     1.007825032230
         H           -2.339909371182     2.456342148950     0.448813680542     1.007825032230
         H           -3.937850371182     2.046824148950     0.853002680542     1.007825032230

  Basis Set: AUG-CC-PVTZ
    Blend: AUG-CC-PVTZ
  Basis Set: (AUG-CC-PVTZ AUX)
    Blend: AUG-CC-PVTZ-JKFIT
	 Reference Energy          =    -667.2324086498613269 [Eh]
	 Singles Energy            =      -0.0000000000000000 [Eh]
	 Same-Spin Energy          =      -0.7367280596542296 [Eh]
	 Opposite-Spin Energy      =      -2.2679161303335929 [Eh]
	 Correlation Energy        =      -3.0046441899878227 [Eh]
	 Total Energy              =    -670.2370528398491842 [Eh]

	 ================> DF-SCS-MP2 Energies <==================
	-----------------------------------------------------------
	 SCS Same-Spin Scale       =       0.3333333333333333 [-]
	 SCS Opposite-Spin Scale   =       1.2000000000000000 [-]
	 SCS Same-Spin Energy      =      -0.2455760198847432 [Eh]
	 SCS Opposite-Spin Energy  =      -2.7214993564003112 [Eh]
	 SCS Correlation Energy    =      -2.9670753762850541 [Eh]
	 SCS Total Energy          =    -670.1994840261463651 [Eh]
	-----------------------------------------------------------

  Dipole Moment: [D]
     X:     0.1491      Y:    -1.3417      Z:     0.1083     Total:     1.3543

*** Psi4 exiting successfully. Buy a developer a beer!
