                               Psi4 1.4a3.dev225

  ==> Input File <==

--------------------------------------------------------------------------
#psi4
#
memory 32 gb

molecule  {
0 1
  O       -0.5498120     2.2556960    -0.2996080
  N       -3.0129360     1.7813540     0.8248620
  C        1.0008190     0.4908720    -0.0872200
  C       -1.5329590     0.0859130    -0.1428360
  C       -0.3878030     1.0286420    -0.1846270
  C        3.6793340    -0.3535020     0.1683990
  C       -2.8127890     0.5150010     0.2964470
  C        1.3212360    -0.6095270     0.7211930
  C        2.0273690     1.1786660    -0.7492360
  C        2.7441372    -1.0460542     0.8558613
  C        3.3454510     0.7479200    -0.6334830
  C       -1.3791480    -1.2185740    -0.6492330
  C       -3.8612840    -0.4227650     0.3079770
  C       -2.4390410    -2.1168890    -0.6711390
  C        5.1038640    -0.8322750     0.2664150
  C       -3.6857840    -1.7096250    -0.1856360
  H        0.5383950    -1.1258400     1.2710410
  H        1.7737210     2.0503190    -1.3473030
  H        2.8902070    -1.8603380     1.4919100
  H        4.1335430     1.2826870    -1.1615780
  H       -0.4095800    -1.5185310    -1.0371660
  H       -4.8387790    -0.1097830     0.6721110
  H       -2.3031150    -3.1155080    -1.0770870
  H        5.8059070     0.0022690     0.1830070
  H        5.2850310    -1.3360150     1.2200590
  H        5.3367840    -1.5427250    -0.5345020
  H       -4.5250650    -2.4017370    -0.1822600
  H       -2.3845940     2.4838010     0.4485930
  H       -3.9825350     2.0742830     0.8527820
units angstrom
no_reorient  #important for SAPT in psi4, default
symmetry c1  #important for SAPT in psi4, default
}

set PROPERTIES_ORIGIN ["COM"]
properties('MP2/aug-cc-pvtz', properties = ['dipole'])
--------------------------------------------------------------------------

    Molecular point group: c1
  Charge       = 0
  Multiplicity = 1
  Basis Set: AUG-CC-PVTZ
    Blend: AUG-CC-PVTZ
  Basis Set: (AUG-CC-PVTZ AUX)
    Blend: AUG-CC-PVTZ-JKFIT

    Orbital Energies [Eh]
    ---------------------

    Doubly Occupied:

       1A    -20.539153     2A    -15.560448     3A    -11.339565
       4A    -11.297338     5A    -11.261494     6A    -11.253098
       7A    -11.252515     8A    -11.251027     9A    -11.246648
      10A    -11.244988    11A    -11.239638    12A    -11.239627
      13A    -11.238505    14A    -11.232298    15A    -11.229520
      16A    -11.228566    17A     -1.372169    18A     -1.226990
      19A     -1.162773    20A     -1.137548    21A     -1.073543
      22A     -1.036271    23A     -1.010979    24A     -0.996759
      25A     -0.951305    26A     -0.876969    27A     -0.846694
      28A     -0.836158    29A     -0.812366    30A     -0.767086
      31A     -0.713580    32A     -0.691436    33A     -0.686807
      34A     -0.659202    35A     -0.646016    36A     -0.642512
      37A     -0.614190    38A     -0.605208    39A     -0.602868
      40A     -0.590869    41A     -0.585064    42A     -0.583033
      43A     -0.556168    44A     -0.542077    45A     -0.531722
      46A     -0.516645    47A     -0.509814    48A     -0.504885
      49A     -0.495419    50A     -0.480078    51A     -0.452579
      52A     -0.418782    53A     -0.349359    54A     -0.343138
      55A     -0.333639    56A     -0.300730

  @DF-RHF Final Energy:  -667.26503889348044

   => Energetics <=

    Nuclear Repulsion Energy =            991.7843573715510956
    One-Electron Energy =               -2874.6630705537181711
    Two-Electron Energy =                1215.6136742886867523
    Total Energy =                       -667.2650388934803232
  Basis Set: (AUG-CC-PVTZ AUX)
    Blend: AUG-CC-PVTZ-RI
    Molecular point group: c1

    Geometry (in Angstrom), charge = 0, multiplicity = 1:

       Center              X                  Y                   Z               Mass
    ------------   -----------------  -----------------  -----------------  -----------------
         O           -0.520789995905     2.233334194225    -0.296381329597    15.994914619570
         N           -2.983913995905     1.758992194225     0.828088670403    14.003074004430
         C            1.029841004095     0.468510194225    -0.083993329597    12.000000000000
         C           -1.503936995905     0.063551194225    -0.139609329597    12.000000000000
         C           -0.358780995905     1.006280194225    -0.181400329597    12.000000000000
         C            3.708356004095    -0.375863805775     0.171625670403    12.000000000000
         C           -2.783766995905     0.492639194225     0.299673670403    12.000000000000
         C            1.350258004095    -0.631888805775     0.724419670403    12.000000000000
         C            2.056391004095     1.156304194225    -0.746009329597    12.000000000000
         C            2.773159204095    -1.068416005775     0.859087970403    12.000000000000
         C            3.374473004095     0.725558194225    -0.630256329597    12.000000000000
         C           -1.350125995905    -1.240935805775    -0.646006329597    12.000000000000
         C           -3.832261995905    -0.445126805775     0.311203670403    12.000000000000
         C           -2.410018995905    -2.139250805775    -0.667912329597    12.000000000000
         C            5.132886004095    -0.854636805775     0.269641670403    12.000000000000
         C           -3.656761995905    -1.731986805775    -0.182409329597    12.000000000000
         H            0.567417004095    -1.148201805775     1.274267670403     1.007825032230
         H            1.802743004095     2.027957194225    -1.344076329597     1.007825032230
         H            2.919229004095    -1.882699805775     1.495136670403     1.007825032230
         H            4.162565004095     1.260325194225    -1.158351329597     1.007825032230
         H           -0.380557995905    -1.540892805775    -1.033939329597     1.007825032230
         H           -4.809756995905    -0.132144805775     0.675337670403     1.007825032230
         H           -2.274092995905    -3.137869805775    -1.073860329597     1.007825032230
         H            5.834929004095    -0.020092805775     0.186233670403     1.007825032230
         H            5.314053004095    -1.358376805775     1.223285670403     1.007825032230
         H            5.365806004095    -1.565086805775    -0.531275329597     1.007825032230
         H           -4.496042995905    -2.424098805775    -0.179033329597     1.007825032230
         H           -2.355571995905     2.461439194225     0.451819670403     1.007825032230
         H           -3.953512995905     2.051921194225     0.856008670403     1.007825032230

  Basis Set: AUG-CC-PVTZ
    Blend: AUG-CC-PVTZ
  Basis Set: (AUG-CC-PVTZ AUX)
    Blend: AUG-CC-PVTZ-JKFIT
	 Reference Energy          =    -667.2650388934804369 [Eh]
	 Singles Energy            =      -0.0000000000000000 [Eh]
	 Same-Spin Energy          =      -0.7352064440338830 [Eh]
	 Opposite-Spin Energy      =      -2.2662483762305401 [Eh]
	 Correlation Energy        =      -3.0014548202644233 [Eh]
	 Total Energy              =    -670.2664937137448078 [Eh]

	 ================> DF-SCS-MP2 Energies <==================
	-----------------------------------------------------------
	 SCS Same-Spin Scale       =       0.3333333333333333 [-]
	 SCS Opposite-Spin Scale   =       1.2000000000000000 [-]
	 SCS Same-Spin Energy      =      -0.2450688146779610 [Eh]
	 SCS Opposite-Spin Energy  =      -2.7194980514766480 [Eh]
	 SCS Correlation Energy    =      -2.9645668661546090 [Eh]
	 SCS Total Energy          =    -670.2296057596350920 [Eh]
	-----------------------------------------------------------

  Dipole Moment: [D]
     X:     0.2576      Y:    -1.8178      Z:    -0.0899     Total:     1.8381

*** Psi4 exiting successfully. Buy a developer a beer!
