                               Psi4 1.4a3.dev225

  ==> Input File <==

--------------------------------------------------------------------------
#psi4
#
memory 32 gb

molecule  {
0 1
  O       -0.5498120     2.2556960    -0.2996080
  N       -3.0129360     1.7813540     0.8248620
  C        1.0008190     0.4908720    -0.0872200
  C       -1.5329590     0.0859130    -0.1428360
  C       -0.3878030     1.0286420    -0.1846270
  C        3.6793340    -0.3535020     0.1683990
  C       -2.8127890     0.5150010     0.2964470
  C        1.3326589    -0.6487562     0.7500129
  C        2.0273690     1.1786660    -0.7492360
  C        2.6489240    -1.0168440     0.8468500
  C        3.3454510     0.7479200    -0.6334830
  C       -1.3791480    -1.2185740    -0.6492330
  C       -3.8612840    -0.4227650     0.3079770
  C       -2.4390410    -2.1168890    -0.6711390
  C        5.1038640    -0.8322750     0.2664150
  C       -3.6857840    -1.7096250    -0.1856360
  H        0.5383950    -1.1258400     1.2710410
  H        1.7737210     2.0503190    -1.3473030
  H        2.8902070    -1.8603380     1.4919100
  H        4.1335430     1.2826870    -1.1615780
  H       -0.4095800    -1.5185310    -1.0371660
  H       -4.8387790    -0.1097830     0.6721110
  H       -2.3031150    -3.1155080    -1.0770870
  H        5.8059070     0.0022690     0.1830070
  H        5.2850310    -1.3360150     1.2200590
  H        5.3367840    -1.5427250    -0.5345020
  H       -4.5250650    -2.4017370    -0.1822600
  H       -2.3845940     2.4838010     0.4485930
  H       -3.9825350     2.0742830     0.8527820
units angstrom
no_reorient  #important for SAPT in psi4, default
symmetry c1  #important for SAPT in psi4, default
}

set PROPERTIES_ORIGIN ["COM"]
properties('MP2/aug-cc-pvtz', properties = ['dipole'])
--------------------------------------------------------------------------

    Molecular point group: c1
  Charge       = 0
  Multiplicity = 1
  Basis Set: AUG-CC-PVTZ
    Blend: AUG-CC-PVTZ
  Basis Set: (AUG-CC-PVTZ AUX)
    Blend: AUG-CC-PVTZ-JKFIT

    Orbital Energies [Eh]
    ---------------------

    Doubly Occupied:

       1A    -20.537138     2A    -15.559827     3A    -11.337959
       4A    -11.296726     5A    -11.258272     6A    -11.252604
       7A    -11.252103     8A    -11.251161     9A    -11.247769
      10A    -11.246318    11A    -11.238960    12A    -11.238215
      13A    -11.237570    14A    -11.233739    15A    -11.231887
      16A    -11.228245    17A     -1.370275    18A     -1.226376
      19A     -1.163155    20A     -1.137012    21A     -1.066198
      22A     -1.034332    23A     -1.024455    24A     -0.996447
      25A     -0.954064    26A     -0.876831    27A     -0.838119
      28A     -0.837462    29A     -0.812642    30A     -0.764778
      31A     -0.712267    32A     -0.691897    33A     -0.685992
      34A     -0.663386    35A     -0.644322    36A     -0.639506
      37A     -0.613756    38A     -0.603049    39A     -0.598088
      40A     -0.595662    41A     -0.584715    42A     -0.583128
      43A     -0.555286    44A     -0.544311    45A     -0.531570
      46A     -0.519454    47A     -0.514056    48A     -0.505106
      49A     -0.489580    50A     -0.481309    51A     -0.452307
      52A     -0.418409    53A     -0.350770    54A     -0.345926
      55A     -0.329499    56A     -0.300129

  @DF-RHF Final Energy:  -667.27314935713628

   => Energetics <=

    Nuclear Repulsion Energy =            992.1615811881197260
    One-Electron Energy =               -2875.4612253515206248
    Two-Electron Energy =                1216.0264948062647363
    Total Energy =                       -667.2731493571361625
  Basis Set: (AUG-CC-PVTZ AUX)
    Blend: AUG-CC-PVTZ-RI
    Molecular point group: c1

    Geometry (in Angstrom), charge = 0, multiplicity = 1:

       Center              X                  Y                   Z               Mass
    ------------   -----------------  -----------------  -----------------  -----------------
         O           -0.516026921712     2.233903726025    -0.297507352913    15.994914619570
         N           -2.979150921712     1.759561726025     0.826962647087    14.003074004430
         C            1.034604078288     0.469079726025    -0.085119352913    12.000000000000
         C           -1.499173921712     0.064120726025    -0.140735352913    12.000000000000
         C           -0.354017921712     1.006849726025    -0.182526352913    12.000000000000
         C            3.713119078288    -0.375294273975     0.170499647087    12.000000000000
         C           -2.779003921712     0.493208726025     0.298547647087    12.000000000000
         C            1.366443978288    -0.670548473975     0.752113547087    12.000000000000
         C            2.061154078288     1.156873726025    -0.747135352913    12.000000000000
         C            2.682709078288    -1.038636273975     0.848950647087    12.000000000000
         C            3.379236078288     0.726127726025    -0.631382352913    12.000000000000
         C           -1.345362921712    -1.240366273975    -0.647132352913    12.000000000000
         C           -3.827498921712    -0.444557273975     0.310077647087    12.000000000000
         C           -2.405255921712    -2.138681273975    -0.669038352913    12.000000000000
         C            5.137649078288    -0.854067273975     0.268515647087    12.000000000000
         C           -3.651998921712    -1.731417273975    -0.183535352913    12.000000000000
         H            0.572180078288    -1.147632273975     1.273141647087     1.007825032230
         H            1.807506078288     2.028526726025    -1.345202352913     1.007825032230
         H            2.923992078288    -1.882130273975     1.494010647087     1.007825032230
         H            4.167328078288     1.260894726025    -1.159477352913     1.007825032230
         H           -0.375794921712    -1.540323273975    -1.035065352913     1.007825032230
         H           -4.804993921712    -0.131575273975     0.674211647087     1.007825032230
         H           -2.269329921712    -3.137300273975    -1.074986352913     1.007825032230
         H            5.839692078288    -0.019523273975     0.185107647087     1.007825032230
         H            5.318816078288    -1.357807273975     1.222159647087     1.007825032230
         H            5.370569078288    -1.564517273975    -0.532401352913     1.007825032230
         H           -4.491279921712    -2.423529273975    -0.180159352913     1.007825032230
         H           -2.350808921712     2.462008726025     0.450693647087     1.007825032230
         H           -3.948749921712     2.052490726025     0.854882647087     1.007825032230

  Basis Set: AUG-CC-PVTZ
    Blend: AUG-CC-PVTZ
  Basis Set: (AUG-CC-PVTZ AUX)
    Blend: AUG-CC-PVTZ-JKFIT
	 Reference Energy          =    -667.2731493571362762 [Eh]
	 Singles Energy            =      -0.0000000000000000 [Eh]
	 Same-Spin Energy          =      -0.7355828363699783 [Eh]
	 Opposite-Spin Energy      =      -2.2658857194571005 [Eh]
	 Correlation Energy        =      -3.0014685558270786 [Eh]
	 Total Energy              =    -670.2746179129633219 [Eh]

	 ================> DF-SCS-MP2 Energies <==================
	-----------------------------------------------------------
	 SCS Same-Spin Scale       =       0.3333333333333333 [-]
	 SCS Opposite-Spin Scale   =       1.2000000000000000 [-]
	 SCS Same-Spin Energy      =      -0.2451942787899928 [Eh]
	 SCS Opposite-Spin Energy  =      -2.7190628633485203 [Eh]
	 SCS Correlation Energy    =      -2.9642571421385129 [Eh]
	 SCS Total Energy          =    -670.2374064992748117 [Eh]
	-----------------------------------------------------------

  Dipole Moment: [D]
     X:     0.3772      Y:    -1.8107      Z:    -0.1109     Total:     1.8529

*** Psi4 exiting successfully. Buy a developer a beer!
