                               Psi4 1.4a3.dev225

  ==> Input File <==

--------------------------------------------------------------------------
#psi4
#
memory 32 gb

molecule  {
0 1
  O       -0.5498120     2.2556960    -0.2996080
  N       -3.0129360     1.7813540     0.8248620
  C        1.0008190     0.4908720    -0.0872200
  C       -1.5329590     0.0859130    -0.1428360
  C       -0.3878030     1.0286420    -0.1846270
  C        3.6793340    -0.3535020     0.1683990
  C       -2.8127890     0.5150010     0.2964470
  C        1.2755446    -0.4526102     0.6059133
  C        2.0273690     1.1786660    -0.7492360
  C        2.6489240    -1.0168440     0.8468500
  C        3.3454510     0.7479200    -0.6334830
  C       -1.3791480    -1.2185740    -0.6492330
  C       -3.8612840    -0.4227650     0.3079770
  C       -2.4390410    -2.1168890    -0.6711390
  C        5.1038640    -0.8322750     0.2664150
  C       -3.6857840    -1.7096250    -0.1856360
  H        0.5383950    -1.1258400     1.2710410
  H        1.7737210     2.0503190    -1.3473030
  H        2.8902070    -1.8603380     1.4919100
  H        4.1335430     1.2826870    -1.1615780
  H       -0.4095800    -1.5185310    -1.0371660
  H       -4.8387790    -0.1097830     0.6721110
  H       -2.3031150    -3.1155080    -1.0770870
  H        5.8059070     0.0022690     0.1830070
  H        5.2850310    -1.3360150     1.2200590
  H        5.3367840    -1.5427250    -0.5345020
  H       -4.5250650    -2.4017370    -0.1822600
  H       -2.3845940     2.4838010     0.4485930
  H       -3.9825350     2.0742830     0.8527820
units angstrom
no_reorient  #important for SAPT in psi4, default
symmetry c1  #important for SAPT in psi4, default
}

set PROPERTIES_ORIGIN ["COM"]
properties('MP2/aug-cc-pvtz', properties = ['dipole'])
--------------------------------------------------------------------------

    Molecular point group: c1
  Charge       = 0
  Multiplicity = 1
  Basis Set: AUG-CC-PVTZ
    Blend: AUG-CC-PVTZ
  Basis Set: (AUG-CC-PVTZ AUX)
    Blend: AUG-CC-PVTZ-JKFIT

    Orbital Energies [Eh]
    ---------------------

    Doubly Occupied:

       1A    -20.542357     2A    -15.560893     3A    -11.341036
       4A    -11.297621     5A    -11.253508     6A    -11.253207
       7A    -11.253029     8A    -11.245291     9A    -11.244978
      10A    -11.243823    11A    -11.239819    12A    -11.237144
      13A    -11.232276    14A    -11.231026    15A    -11.228553
      16A    -11.221759    17A     -1.374957    18A     -1.227369
      19A     -1.183426    20A     -1.137545    21A     -1.086959
      22A     -1.036852    23A     -1.008202    24A     -0.996931
      25A     -0.952730    26A     -0.879009    27A     -0.848209
      28A     -0.836171    29A     -0.809648    30A     -0.765688
      31A     -0.714399    32A     -0.692678    33A     -0.687286
      34A     -0.665555    35A     -0.646515    36A     -0.626793
      37A     -0.618803    38A     -0.608626    39A     -0.604097
      40A     -0.587139    41A     -0.582899    42A     -0.572173
      43A     -0.556648    44A     -0.546876    45A     -0.534277
      46A     -0.524304    47A     -0.511110    48A     -0.508123
      49A     -0.487440    50A     -0.476917    51A     -0.451572
      52A     -0.415282    53A     -0.364490    54A     -0.348016
      55A     -0.325434    56A     -0.301181

  @DF-RHF Final Energy:  -667.21673564256628

   => Energetics <=

    Nuclear Repulsion Energy =            996.1459740911070639
    One-Electron Energy =               -2883.2681196450785137
    Two-Electron Energy =                1219.9054099114050587
    Total Energy =                       -667.2167356425663911
  Basis Set: (AUG-CC-PVTZ AUX)
    Blend: AUG-CC-PVTZ-RI
    Molecular point group: c1

    Geometry (in Angstrom), charge = 0, multiplicity = 1:

       Center              X                  Y                   Z               Mass
    ------------   -----------------  -----------------  -----------------  -----------------
         O           -0.512780249384     2.222753772503    -0.289315986061    15.994914619570
         N           -2.975904249384     1.748411772503     0.835154013939    14.003074004430
         C            1.037850750616     0.457929772503    -0.076927986061    12.000000000000
         C           -1.495927249384     0.052970772503    -0.132543986061    12.000000000000
         C           -0.350771249384     0.995699772503    -0.174334986061    12.000000000000
         C            3.716365750616    -0.386444227497     0.178691013939    12.000000000000
         C           -2.775757249384     0.482058772503     0.306739013939    12.000000000000
         C            1.312576350616    -0.485552427497     0.616205313939    12.000000000000
         C            2.064400750616     1.145723772503    -0.738943986061    12.000000000000
         C            2.685955750616    -1.049786227497     0.857142013939    12.000000000000
         C            3.382482750616     0.714977772503    -0.623190986061    12.000000000000
         C           -1.342116249384    -1.251516227497    -0.638940986061    12.000000000000
         C           -3.824252249384    -0.455707227497     0.318269013939    12.000000000000
         C           -2.402009249384    -2.149831227497    -0.660846986061    12.000000000000
         C            5.140895750616    -0.865217227497     0.276707013939    12.000000000000
         C           -3.648752249384    -1.742567227497    -0.175343986061    12.000000000000
         H            0.575426750616    -1.158782227497     1.281333013939     1.007825032230
         H            1.810752750616     2.017376772503    -1.337010986061     1.007825032230
         H            2.927238750616    -1.893280227497     1.502202013939     1.007825032230
         H            4.170574750616     1.249744772503    -1.151285986061     1.007825032230
         H           -0.372548249384    -1.551473227497    -1.026873986061     1.007825032230
         H           -4.801747249384    -0.142725227497     0.682403013939     1.007825032230
         H           -2.266083249384    -3.148450227497    -1.066794986061     1.007825032230
         H            5.842938750616    -0.030673227497     0.193299013939     1.007825032230
         H            5.322062750616    -1.368957227497     1.230351013939     1.007825032230
         H            5.373815750616    -1.575667227497    -0.524209986061     1.007825032230
         H           -4.488033249384    -2.434679227497    -0.171967986061     1.007825032230
         H           -2.347562249384     2.450858772503     0.458885013939     1.007825032230
         H           -3.945503249384     2.041340772503     0.863074013939     1.007825032230

  Basis Set: AUG-CC-PVTZ
    Blend: AUG-CC-PVTZ
  Basis Set: (AUG-CC-PVTZ AUX)
    Blend: AUG-CC-PVTZ-JKFIT
	 Reference Energy          =    -667.2167356425662774 [Eh]
	 Singles Energy            =      -0.0000000000000000 [Eh]
	 Same-Spin Energy          =      -0.7347244770157417 [Eh]
	 Opposite-Spin Energy      =      -2.2669906234295008 [Eh]
	 Correlation Energy        =      -3.0017151004452423 [Eh]
	 Total Energy              =    -670.2184507430115445 [Eh]

	 ================> DF-SCS-MP2 Energies <==================
	-----------------------------------------------------------
	 SCS Same-Spin Scale       =       0.3333333333333333 [-]
	 SCS Opposite-Spin Scale   =       1.2000000000000000 [-]
	 SCS Same-Spin Energy      =      -0.2449081590052472 [Eh]
	 SCS Opposite-Spin Energy  =      -2.7203887481154010 [Eh]
	 SCS Correlation Energy    =      -2.9652969071206483 [Eh]
	 SCS Total Energy          =    -670.1820325496869373 [Eh]
	-----------------------------------------------------------

  Dipole Moment: [D]
     X:     0.2221      Y:    -1.7949      Z:    -0.1057     Total:     1.8117

*** Psi4 exiting successfully. Buy a developer a beer!
