                               Psi4 1.4a3.dev225

  ==> Input File <==

--------------------------------------------------------------------------
#psi4
#
memory 32 gb

molecule  {
0 1
  O       -0.5498120     2.2556960    -0.2996080
  N       -3.0129360     1.7813540     0.8248620
  C        1.0008190     0.4908720    -0.0872200
  C       -1.5329590     0.0859130    -0.1428360
  C       -0.3878030     1.0286420    -0.1846270
  C        3.6793340    -0.3535020     0.1683990
  C       -2.8127890     0.5150010     0.2964470
  C        1.3212360    -0.6095270     0.7211930
  C        2.0273690     1.1786660    -0.7492360
  C        2.6489240    -1.0168440     0.8468500
  C        3.3454510     0.7479200    -0.6334830
  C       -1.3791480    -1.2185740    -0.6492330
  C       -3.8612840    -0.4227650     0.3079770
  C       -2.4390410    -2.1168890    -0.6711390
  C        5.1038640    -0.8322750     0.2664150
  C       -3.6857840    -1.7096250    -0.1856360
  H        0.5383950    -1.1258400     1.2710410
  H        1.7737210     2.0503190    -1.3473030
  H        2.8902070    -1.8603380     1.4919100
  H        4.1335430     1.2826870    -1.1615780
  H       -0.4095800    -1.5185310    -1.0371660
  H       -4.8387790    -0.1097830     0.6721110
  H       -2.3031150    -3.1155080    -1.0770870
  H        5.8059070     0.0022690     0.1830070
  H        5.2518995    -1.2438919     1.0456582
  H        5.3367840    -1.5427250    -0.5345020
  H       -4.5250650    -2.4017370    -0.1822600
  H       -2.3845940     2.4838010     0.4485930
  H       -3.9825350     2.0742830     0.8527820
units angstrom
no_reorient  #important for SAPT in psi4, default
symmetry c1  #important for SAPT in psi4, default
}

set PROPERTIES_ORIGIN ["COM"]
properties('MP2/aug-cc-pvtz', properties = ['dipole'])
--------------------------------------------------------------------------

    Molecular point group: c1
  Charge       = 0
  Multiplicity = 1
  Basis Set: AUG-CC-PVTZ
    Blend: AUG-CC-PVTZ
  Basis Set: (AUG-CC-PVTZ AUX)
    Blend: AUG-CC-PVTZ-JKFIT

    Orbital Energies [Eh]
    ---------------------

    Doubly Occupied:

       1A    -20.537739     2A    -15.559874     3A    -11.338218
       4A    -11.296735     5A    -11.256097     6A    -11.252582
       7A    -11.252085     8A    -11.250448     9A    -11.245742
      10A    -11.243124    11A    -11.239002    12A    -11.238931
      13A    -11.236712    14A    -11.231821    15A    -11.228156
      16A    -11.208751    17A     -1.370808    18A     -1.226405
      19A     -1.165280    20A     -1.137000    21A     -1.073799
      22A     -1.036877    23A     -1.020187    24A     -0.996635
      25A     -0.969945    26A     -0.879983    27A     -0.839387
      28A     -0.837372    29A     -0.814972    30A     -0.766224
      31A     -0.713115    32A     -0.692868    33A     -0.686173
      34A     -0.661008    35A     -0.653357    36A     -0.636147
      37A     -0.615495    38A     -0.605066    39A     -0.602882
      40A     -0.593175    41A     -0.590651    42A     -0.584084
      43A     -0.567984    44A     -0.548317    45A     -0.532638
      46A     -0.517646    47A     -0.512783    48A     -0.504392
      49A     -0.494402    50A     -0.482062    51A     -0.452144
      52A     -0.418643    53A     -0.349508    54A     -0.342704
      55A     -0.333775    56A     -0.300205

  @DF-RHF Final Energy:  -667.24271084133261

   => Energetics <=

    Nuclear Repulsion Energy =            993.8811618505428669
    One-Electron Energy =               -2878.7635161277867155
    Two-Electron Energy =                1217.6396434359112391
    Total Energy =                       -667.2427108413326096
  Basis Set: (AUG-CC-PVTZ AUX)
    Blend: AUG-CC-PVTZ-RI
    Molecular point group: c1

    Geometry (in Angstrom), charge = 0, multiplicity = 1:

       Center              X                  Y                   Z               Mass
    ------------   -----------------  -----------------  -----------------  -----------------
         O           -0.515219409699     2.231233924368    -0.295036462347    15.994914619570
         N           -2.978343409699     1.756891924368     0.829433537653    14.003074004430
         C            1.035411590301     0.466409924368    -0.082648462347    12.000000000000
         C           -1.498366409699     0.061450924368    -0.138264462347    12.000000000000
         C           -0.353210409699     1.004179924368    -0.180055462347    12.000000000000
         C            3.713926590301    -0.377964075632     0.172970537653    12.000000000000
         C           -2.778196409699     0.490538924368     0.301018537653    12.000000000000
         C            1.355828590301    -0.633989075632     0.725764537653    12.000000000000
         C            2.061961590301     1.154203924368    -0.744664462347    12.000000000000
         C            2.683516590301    -1.041306075632     0.851421537653    12.000000000000
         C            3.380043590301     0.723457924368    -0.628911462347    12.000000000000
         C           -1.344555409699    -1.243036075632    -0.644661462347    12.000000000000
         C           -3.826691409699    -0.447227075632     0.312548537653    12.000000000000
         C           -2.404448409699    -2.141351075632    -0.666567462347    12.000000000000
         C            5.138456590301    -0.856737075632     0.270986537653    12.000000000000
         C           -3.651191409699    -1.734087075632    -0.181064462347    12.000000000000
         H            0.572987590301    -1.150302075632     1.275612537653     1.007825032230
         H            1.808313590301     2.025856924368    -1.342731462347     1.007825032230
         H            2.924799590301    -1.884800075632     1.496481537653     1.007825032230
         H            4.168135590301     1.258224924368    -1.157006462347     1.007825032230
         H           -0.374987409699    -1.542993075632    -1.032594462347     1.007825032230
         H           -4.804186409699    -0.134245075632     0.676682537653     1.007825032230
         H           -2.268522409699    -3.139970075632    -1.072515462347     1.007825032230
         H            5.840499590301    -0.022193075632     0.187578537653     1.007825032230
         H            5.286492090301    -1.268353975632     1.050229737653     1.007825032230
         H            5.371376590301    -1.567187075632    -0.529930462347     1.007825032230
         H           -4.490472409699    -2.426199075632    -0.177688462347     1.007825032230
         H           -2.350001409699     2.459338924368     0.453164537653     1.007825032230
         H           -3.947942409699     2.049820924368     0.857353537653     1.007825032230

  Basis Set: AUG-CC-PVTZ
    Blend: AUG-CC-PVTZ
  Basis Set: (AUG-CC-PVTZ AUX)
    Blend: AUG-CC-PVTZ-JKFIT
	 Reference Energy          =    -667.2427108413326096 [Eh]
	 Singles Energy            =      -0.0000000000000000 [Eh]
	 Same-Spin Energy          =      -0.7355786654913806 [Eh]
	 Opposite-Spin Energy      =      -2.2648263654746836 [Eh]
	 Correlation Energy        =      -3.0004050309660641 [Eh]
	 Total Energy              =    -670.2431158722986311 [Eh]

	 ================> DF-SCS-MP2 Energies <==================
	-----------------------------------------------------------
	 SCS Same-Spin Scale       =       0.3333333333333333 [-]
	 SCS Opposite-Spin Scale   =       1.2000000000000000 [-]
	 SCS Same-Spin Energy      =      -0.2451928884971269 [Eh]
	 SCS Opposite-Spin Energy  =      -2.7177916385696204 [Eh]
	 SCS Correlation Energy    =      -2.9629845270667472 [Eh]
	 SCS Total Energy          =    -670.2056953683993470 [Eh]
	-----------------------------------------------------------

  Dipole Moment: [D]
     X:     0.4089      Y:    -1.8540      Z:    -0.0568     Total:     1.8994

*** Psi4 exiting successfully. Buy a developer a beer!
