                               Psi4 1.4a3.dev225

  ==> Input File <==

--------------------------------------------------------------------------
#psi4
#
memory 32 gb

molecule  {
0 1
  O       -0.5498120     2.2556960    -0.2996080
  N       -3.0129360     1.7813540     0.8248620
  C        1.0008190     0.4908720    -0.0872200
  C       -1.5329590     0.0859130    -0.1428360
  C       -0.3878030     1.0286420    -0.1846270
  C        3.6793340    -0.3535020     0.1683990
  C       -2.8127890     0.5150010     0.2964470
  C        1.3448897    -0.6063746     0.7157381
  C        2.0273690     1.1786660    -0.7492360
  C        2.6489240    -1.0168440     0.8468500
  C        3.3454510     0.7479200    -0.6334830
  C       -1.3791480    -1.2185740    -0.6492330
  C       -3.8612840    -0.4227650     0.3079770
  C       -2.4390410    -2.1168890    -0.6711390
  C        5.1038640    -0.8322750     0.2664150
  C       -3.6857840    -1.7096250    -0.1856360
  H        0.5383950    -1.1258400     1.2710410
  H        1.7737210     2.0503190    -1.3473030
  H        2.8902070    -1.8603380     1.4919100
  H        4.1335430     1.2826870    -1.1615780
  H       -0.4095800    -1.5185310    -1.0371660
  H       -4.8387790    -0.1097830     0.6721110
  H       -2.3031150    -3.1155080    -1.0770870
  H        5.8059070     0.0022690     0.1830070
  H        5.2850310    -1.3360150     1.2200590
  H        5.3367840    -1.5427250    -0.5345020
  H       -4.5250650    -2.4017370    -0.1822600
  H       -2.3845940     2.4838010     0.4485930
  H       -3.9825350     2.0742830     0.8527820
units angstrom
no_reorient  #important for SAPT in psi4, default
symmetry c1  #important for SAPT in psi4, default
}

set PROPERTIES_ORIGIN ["COM"]
properties('MP2/aug-cc-pvtz', properties = ['dipole'])
--------------------------------------------------------------------------

    Molecular point group: c1
  Charge       = 0
  Multiplicity = 1
  Basis Set: AUG-CC-PVTZ
    Blend: AUG-CC-PVTZ
  Basis Set: (AUG-CC-PVTZ AUX)
    Blend: AUG-CC-PVTZ-JKFIT

    Orbital Energies [Eh]
    ---------------------

    Doubly Occupied:

       1A    -20.538255     2A    -15.560017     3A    -11.339041
       4A    -11.296866     5A    -11.257609     6A    -11.252685
       7A    -11.252253     8A    -11.249719     9A    -11.246391
      10A    -11.242970    11A    -11.239093    12A    -11.237233
      13A    -11.236737    14A    -11.233305    15A    -11.231911
      16A    -11.228246    17A     -1.371264    18A     -1.226543
      19A     -1.167009    20A     -1.137121    21A     -1.069148
      22A     -1.034657    23A     -1.022645    24A     -0.996524
      25A     -0.955325    26A     -0.877057    27A     -0.837872
      28A     -0.835375    29A     -0.813376    30A     -0.766886
      31A     -0.712797    32A     -0.691722    33A     -0.686245
      34A     -0.662390    35A     -0.644525    36A     -0.634407
      37A     -0.614638    38A     -0.603585    39A     -0.600321
      40A     -0.591803    41A     -0.584859    42A     -0.584030
      43A     -0.555512    44A     -0.544945    45A     -0.532088
      46A     -0.518384    47A     -0.513587    48A     -0.505397
      49A     -0.490401    50A     -0.482888    51A     -0.452192
      52A     -0.419557    53A     -0.350035    54A     -0.344846
      55A     -0.333366    56A     -0.300311

  @DF-RHF Final Energy:  -667.27607688293631

   => Energetics <=

    Nuclear Repulsion Energy =            993.0297504261459380
    One-Electron Energy =               -2877.1957319215512143
    Two-Electron Energy =                1216.8899046124690813
    Total Energy =                       -667.2760768829361950
  Basis Set: (AUG-CC-PVTZ AUX)
    Blend: AUG-CC-PVTZ-RI
    Molecular point group: c1

    Geometry (in Angstrom), charge = 0, multiplicity = 1:

       Center              X                  Y                   Z               Mass
    ------------   -----------------  -----------------  -----------------  -----------------
         O           -0.516722183668     2.231494536594    -0.295558995939    15.994914619570
         N           -2.979846183668     1.757152536594     0.828911004061    14.003074004430
         C            1.033908816332     0.466670536594    -0.083170995939    12.000000000000
         C           -1.499869183668     0.061711536594    -0.138786995939    12.000000000000
         C           -0.354713183668     1.004440536594    -0.180577995939    12.000000000000
         C            3.712423816332    -0.377703463406     0.172448004061    12.000000000000
         C           -2.779699183668     0.490799536594     0.300496004061    12.000000000000
         C            1.377979516332    -0.630576063406     0.719787104061    12.000000000000
         C            2.060458816332     1.154464536594    -0.745186995939    12.000000000000
         C            2.682013816332    -1.041045463406     0.850899004061    12.000000000000
         C            3.378540816332     0.723718536594    -0.629433995939    12.000000000000
         C           -1.346058183668    -1.242775463406    -0.645183995939    12.000000000000
         C           -3.828194183668    -0.446966463406     0.312026004061    12.000000000000
         C           -2.405951183668    -2.141090463406    -0.667089995939    12.000000000000
         C            5.136953816332    -0.856476463406     0.270464004061    12.000000000000
         C           -3.652694183668    -1.733826463406    -0.181586995939    12.000000000000
         H            0.571484816332    -1.150041463406     1.275090004061     1.007825032230
         H            1.806810816332     2.026117536594    -1.343253995939     1.007825032230
         H            2.923296816332    -1.884539463406     1.495959004061     1.007825032230
         H            4.166632816332     1.258485536594    -1.157528995939     1.007825032230
         H           -0.376490183668    -1.542732463406    -1.033116995939     1.007825032230
         H           -4.805689183668    -0.133984463406     0.676160004061     1.007825032230
         H           -2.270025183668    -3.139709463406    -1.073037995939     1.007825032230
         H            5.838996816332    -0.021932463406     0.187056004061     1.007825032230
         H            5.318120816332    -1.360216463406     1.224108004061     1.007825032230
         H            5.369873816332    -1.566926463406    -0.530452995939     1.007825032230
         H           -4.491975183668    -2.425938463406    -0.178210995939     1.007825032230
         H           -2.351504183668     2.459599536594     0.452642004061     1.007825032230
         H           -3.949445183668     2.050081536594     0.856831004061     1.007825032230

  Basis Set: AUG-CC-PVTZ
    Blend: AUG-CC-PVTZ
  Basis Set: (AUG-CC-PVTZ AUX)
    Blend: AUG-CC-PVTZ-JKFIT
	 Reference Energy          =    -667.2760768829363087 [Eh]
	 Singles Energy            =      -0.0000000000000000 [Eh]
	 Same-Spin Energy          =      -0.7355148803108658 [Eh]
	 Opposite-Spin Energy      =      -2.2653864223279969 [Eh]
	 Correlation Energy        =      -3.0009013026388627 [Eh]
	 Total Energy              =    -670.2769781855752171 [Eh]

	 ================> DF-SCS-MP2 Energies <==================
	-----------------------------------------------------------
	 SCS Same-Spin Scale       =       0.3333333333333333 [-]
	 SCS Opposite-Spin Scale   =       1.2000000000000000 [-]
	 SCS Same-Spin Energy      =      -0.2451716267702886 [Eh]
	 SCS Opposite-Spin Energy  =      -2.7184637067935964 [Eh]
	 SCS Correlation Energy    =      -2.9636353335638850 [Eh]
	 SCS Total Energy          =    -670.2397122165001520 [Eh]
	-----------------------------------------------------------

  Dipole Moment: [D]
     X:     0.3500      Y:    -1.8116      Z:    -0.1094     Total:     1.8484

*** Psi4 exiting successfully. Buy a developer a beer!
