                               Psi4 1.4a3.dev225

  ==> Input File <==

--------------------------------------------------------------------------
#psi4
#
memory 32 gb

molecule  {
0 1
  O       -0.5498120     2.2556960    -0.2996080
  N       -3.0129360     1.7813540     0.8248620
  C        1.0008190     0.4908720    -0.0872200
  C       -1.5329590     0.0859130    -0.1428360
  C       -0.3878030     1.0286420    -0.1846270
  C        3.6793340    -0.3535020     0.1683990
  C       -2.8127890     0.5150010     0.2964470
  C        1.3212360    -0.6095270     0.7211930
  C        2.0273690     1.1786660    -0.7492360
  C        2.6489240    -1.0168440     0.8468500
  C        3.3454510     0.7479200    -0.6334830
  C       -1.3791480    -1.2185740    -0.6492330
  C       -3.8612840    -0.4227650     0.3079770
  C       -2.4390410    -2.1168890    -0.6711390
  C        5.1038640    -0.8322750     0.2664150
  C       -3.7036131    -1.7038009    -0.1786931
  H        0.5383950    -1.1258400     1.2710410
  H        1.7737210     2.0503190    -1.3473030
  H        2.8902070    -1.8603380     1.4919100
  H        4.1335430     1.2826870    -1.1615780
  H       -0.4095800    -1.5185310    -1.0371660
  H       -4.8387790    -0.1097830     0.6721110
  H       -2.3031150    -3.1155080    -1.0770870
  H        5.8059070     0.0022690     0.1830070
  H        5.2850310    -1.3360150     1.2200590
  H        5.3367840    -1.5427250    -0.5345020
  H       -4.5250650    -2.4017370    -0.1822600
  H       -2.3845940     2.4838010     0.4485930
  H       -3.9825350     2.0742830     0.8527820
units angstrom
no_reorient  #important for SAPT in psi4, default
symmetry c1  #important for SAPT in psi4, default
}

set PROPERTIES_ORIGIN ["COM"]
properties('MP2/aug-cc-pvtz', properties = ['dipole'])
--------------------------------------------------------------------------

    Molecular point group: c1
  Charge       = 0
  Multiplicity = 1
  Basis Set: AUG-CC-PVTZ
    Blend: AUG-CC-PVTZ
  Basis Set: (AUG-CC-PVTZ AUX)
    Blend: AUG-CC-PVTZ-JKFIT

    Orbital Energies [Eh]
    ---------------------

    Doubly Occupied:

       1A    -20.537726     2A    -15.560755     3A    -11.338192
       4A    -11.297776     5A    -11.257183     6A    -11.253183
       7A    -11.251454     8A    -11.250419     9A    -11.246160
      10A    -11.243366    11A    -11.238952    12A    -11.238512
      13A    -11.237657    14A    -11.233115    15A    -11.232019
      16A    -11.229853    17A     -1.370819    18A     -1.227064
      19A     -1.165018    20A     -1.135896    21A     -1.069433
      22A     -1.035210    23A     -1.020548    24A     -0.995437
      25A     -0.954489    26A     -0.877275    27A     -0.838523
      28A     -0.835766    29A     -0.813633    30A     -0.766119
      31A     -0.712440    32A     -0.692742    33A     -0.686995
      34A     -0.661074    35A     -0.644987    36A     -0.636272
      37A     -0.613575    38A     -0.603942    39A     -0.599793
      40A     -0.592441    41A     -0.584624    42A     -0.583744
      43A     -0.555745    44A     -0.545215    45A     -0.534709
      46A     -0.518185    47A     -0.512029    48A     -0.503176
      49A     -0.493336    50A     -0.481812    51A     -0.451301
      52A     -0.418762    53A     -0.350914    54A     -0.343129
      55A     -0.333813    56A     -0.299239

  @DF-RHF Final Energy:  -667.27608758745225

   => Energetics <=

    Nuclear Repulsion Energy =            992.6676429661321208
    One-Electron Energy =               -2876.4763662532654962
    Two-Electron Energy =                1216.5326356996811228
    Total Energy =                       -667.2760875874523663
  Basis Set: (AUG-CC-PVTZ AUX)
    Blend: AUG-CC-PVTZ-RI
    Molecular point group: c1

    Geometry (in Angstrom), charge = 0, multiplicity = 1:

       Center              X                  Y                   Z               Mass
    ------------   -----------------  -----------------  -----------------  -----------------
         O           -0.514364086679     2.231342663342    -0.296263751039    15.994914619570
         N           -2.977488086679     1.757000663342     0.828206248961    14.003074004430
         C            1.036266913321     0.466518663342    -0.083875751039    12.000000000000
         C           -1.497511086679     0.061559663342    -0.139491751039    12.000000000000
         C           -0.352355086679     1.004288663342    -0.181282751039    12.000000000000
         C            3.714781913321    -0.377855336658     0.171743248961    12.000000000000
         C           -2.777341086679     0.490647663342     0.299791248961    12.000000000000
         C            1.356683913321    -0.633880336658     0.724537248961    12.000000000000
         C            2.062816913321     1.154312663342    -0.745891751039    12.000000000000
         C            2.684371913321    -1.041197336658     0.850194248961    12.000000000000
         C            3.380898913321     0.723566663342    -0.630138751039    12.000000000000
         C           -1.343700086679    -1.242927336658    -0.645888751039    12.000000000000
         C           -3.825836086679    -0.447118336658     0.311321248961    12.000000000000
         C           -2.403593086679    -2.141242336658    -0.667794751039    12.000000000000
         C            5.139311913321    -0.856628336658     0.269759248961    12.000000000000
         C           -3.668165186679    -1.728154236658    -0.175348851039    12.000000000000
         H            0.573842913321    -1.150193336658     1.274385248961     1.007825032230
         H            1.809168913321     2.025965663342    -1.343958751039     1.007825032230
         H            2.925654913321    -1.884691336658     1.495254248961     1.007825032230
         H            4.168990913321     1.258333663342    -1.158233751039     1.007825032230
         H           -0.374132086679    -1.542884336658    -1.033821751039     1.007825032230
         H           -4.803331086679    -0.134136336658     0.675455248961     1.007825032230
         H           -2.267667086679    -3.139861336658    -1.073742751039     1.007825032230
         H            5.841354913321    -0.022084336658     0.186351248961     1.007825032230
         H            5.320478913321    -1.360368336658     1.223403248961     1.007825032230
         H            5.372231913321    -1.567078336658    -0.531157751039     1.007825032230
         H           -4.489617086679    -2.426090336658    -0.178915751039     1.007825032230
         H           -2.349146086679     2.459447663342     0.451937248961     1.007825032230
         H           -3.947087086679     2.049929663342     0.856126248961     1.007825032230

  Basis Set: AUG-CC-PVTZ
    Blend: AUG-CC-PVTZ
  Basis Set: (AUG-CC-PVTZ AUX)
    Blend: AUG-CC-PVTZ-JKFIT
	 Reference Energy          =    -667.2760875874522526 [Eh]
	 Singles Energy            =      -0.0000000000000000 [Eh]
	 Same-Spin Energy          =      -0.7354731460136422 [Eh]
	 Opposite-Spin Energy      =      -2.2655714764780672 [Eh]
	 Correlation Energy        =      -3.0010446224917096 [Eh]
	 Total Energy              =    -670.2771322099439431 [Eh]

	 ================> DF-SCS-MP2 Energies <==================
	-----------------------------------------------------------
	 SCS Same-Spin Scale       =       0.3333333333333333 [-]
	 SCS Opposite-Spin Scale   =       1.2000000000000000 [-]
	 SCS Same-Spin Energy      =      -0.2451577153378807 [Eh]
	 SCS Opposite-Spin Energy  =      -2.7186857717736808 [Eh]
	 SCS Correlation Energy    =      -2.9638434871115615 [Eh]
	 SCS Total Energy          =    -670.2399310745638559 [Eh]
	-----------------------------------------------------------

  Dipole Moment: [D]
     X:     0.3272      Y:    -1.8119      Z:    -0.0981     Total:     1.8438

*** Psi4 exiting successfully. Buy a developer a beer!
