                               Psi4 1.4a3.dev225

  ==> Input File <==

--------------------------------------------------------------------------
#psi4
#
memory 32 gb

molecule  {
0 1
  O       -0.5498120     2.2556960    -0.2996080
  N       -3.0129360     1.7813540     0.8248620
  C        1.0008190     0.4908720    -0.0872200
  C       -1.5329590     0.0859130    -0.1428360
  C       -0.3878030     1.0286420    -0.1846270
  C        3.6793340    -0.3535020     0.1683990
  C       -2.8127890     0.5150010     0.2964470
  C        1.3212360    -0.6095270     0.7211930
  C        2.0273690     1.1786660    -0.7492360
  C        2.5753620    -1.0642007     0.8952853
  C        3.3454510     0.7479200    -0.6334830
  C       -1.3791480    -1.2185740    -0.6492330
  C       -3.8612840    -0.4227650     0.3079770
  C       -2.4390410    -2.1168890    -0.6711390
  C        5.1038640    -0.8322750     0.2664150
  C       -3.6857840    -1.7096250    -0.1856360
  H        0.5383950    -1.1258400     1.2710410
  H        1.7737210     2.0503190    -1.3473030
  H        2.8902070    -1.8603380     1.4919100
  H        4.1335430     1.2826870    -1.1615780
  H       -0.4095800    -1.5185310    -1.0371660
  H       -4.8387790    -0.1097830     0.6721110
  H       -2.3031150    -3.1155080    -1.0770870
  H        5.8059070     0.0022690     0.1830070
  H        5.2850310    -1.3360150     1.2200590
  H        5.3367840    -1.5427250    -0.5345020
  H       -4.5250650    -2.4017370    -0.1822600
  H       -2.3845940     2.4838010     0.4485930
  H       -3.9825350     2.0742830     0.8527820
units angstrom
no_reorient  #important for SAPT in psi4, default
symmetry c1  #important for SAPT in psi4, default
}

set PROPERTIES_ORIGIN ["COM"]
properties('MP2/aug-cc-pvtz', properties = ['dipole'])
--------------------------------------------------------------------------

    Molecular point group: c1
  Charge       = 0
  Multiplicity = 1
  Basis Set: AUG-CC-PVTZ
    Blend: AUG-CC-PVTZ
  Basis Set: (AUG-CC-PVTZ AUX)
    Blend: AUG-CC-PVTZ-JKFIT

    Orbital Energies [Eh]
    ---------------------

    Doubly Occupied:

       1A    -20.536502     2A    -15.559266     3A    -11.337651
       4A    -11.296048     5A    -11.268436     6A    -11.251972
       7A    -11.251534     8A    -11.249119     9A    -11.244432
      10A    -11.242023    11A    -11.239833    12A    -11.238160
      13A    -11.237078    14A    -11.235161    15A    -11.231236
      16A    -11.227614    17A     -1.369770    18A     -1.225772
      19A     -1.161333    20A     -1.136009    21A     -1.065023
      22A     -1.032791    23A     -1.028780    24A     -0.995830
      25A     -0.955193    26A     -0.875491    27A     -0.838625
      28A     -0.828988    29A     -0.813743    30A     -0.768045
      31A     -0.712462    32A     -0.691660    33A     -0.685722
      34A     -0.661530    35A     -0.649183    36A     -0.633923
      37A     -0.614516    38A     -0.602906    39A     -0.601593
      40A     -0.596770    41A     -0.584285    42A     -0.583115
      43A     -0.556828    44A     -0.546226    45A     -0.531522
      46A     -0.518492    47A     -0.514937    48A     -0.506057
      49A     -0.482459    50A     -0.478683    51A     -0.451316
      52A     -0.418476    53A     -0.354176    54A     -0.346674
      55A     -0.323976    56A     -0.299536

  @DF-RHF Final Energy:  -667.26533035231250

   => Energetics <=

    Nuclear Repulsion Energy =            992.2228900404893466
    One-Electron Energy =               -2875.5994768403697890
    Two-Electron Energy =                1216.1112564475679392
    Total Energy =                       -667.2653303523125032
  Basis Set: (AUG-CC-PVTZ AUX)
    Blend: AUG-CC-PVTZ-RI
    Molecular point group: c1

    Geometry (in Angstrom), charge = 0, multiplicity = 1:

       Center              X                  Y                   Z               Mass
    ------------   -----------------  -----------------  -----------------  -----------------
         O           -0.511195940275     2.234365735177    -0.298622393741    15.994914619570
         N           -2.974319940275     1.760023735177     0.825847606259    14.003074004430
         C            1.039435059725     0.469541735177    -0.086234393741    12.000000000000
         C           -1.494342940275     0.064582735177    -0.141850393741    12.000000000000
         C           -0.349186940275     1.007311735177    -0.183641393741    12.000000000000
         C            3.717950059725    -0.374832264823     0.169384606259    12.000000000000
         C           -2.774172940275     0.493670735177     0.297432606259    12.000000000000
         C            1.359852059725    -0.630857264823     0.722178606259    12.000000000000
         C            2.065985059725     1.157335735177    -0.748250393741    12.000000000000
         C            2.613978059725    -1.085530964823     0.896270906259    12.000000000000
         C            3.384067059725     0.726589735177    -0.632497393741    12.000000000000
         C           -1.340531940275    -1.239904264823    -0.648247393741    12.000000000000
         C           -3.822667940275    -0.444095264823     0.308962606259    12.000000000000
         C           -2.400424940275    -2.138219264823    -0.670153393741    12.000000000000
         C            5.142480059725    -0.853605264823     0.267400606259    12.000000000000
         C           -3.647167940275    -1.730955264823    -0.184650393741    12.000000000000
         H            0.577011059725    -1.147170264823     1.272026606259     1.007825032230
         H            1.812337059725     2.028988735177    -1.346317393741     1.007825032230
         H            2.928823059725    -1.881668264823     1.492895606259     1.007825032230
         H            4.172159059725     1.261356735177    -1.160592393741     1.007825032230
         H           -0.370963940275    -1.539861264823    -1.036180393741     1.007825032230
         H           -4.800162940275    -0.131113264823     0.673096606259     1.007825032230
         H           -2.264498940275    -3.136838264823    -1.076101393741     1.007825032230
         H            5.844523059725    -0.019061264823     0.183992606259     1.007825032230
         H            5.323647059725    -1.357345264823     1.221044606259     1.007825032230
         H            5.375400059725    -1.564055264823    -0.533516393741     1.007825032230
         H           -4.486448940275    -2.423067264823    -0.181274393741     1.007825032230
         H           -2.345977940275     2.462470735177     0.449578606259     1.007825032230
         H           -3.943918940275     2.052952735177     0.853767606259     1.007825032230

  Basis Set: AUG-CC-PVTZ
    Blend: AUG-CC-PVTZ
  Basis Set: (AUG-CC-PVTZ AUX)
    Blend: AUG-CC-PVTZ-JKFIT
	 Reference Energy          =    -667.2653303523125032 [Eh]
	 Singles Energy            =      -0.0000000000000000 [Eh]
	 Same-Spin Energy          =      -0.7352641817200765 [Eh]
	 Opposite-Spin Energy      =      -2.2659130627052178 [Eh]
	 Correlation Energy        =      -3.0011772444252944 [Eh]
	 Total Energy              =    -670.2665075967378243 [Eh]

	 ================> DF-SCS-MP2 Energies <==================
	-----------------------------------------------------------
	 SCS Same-Spin Scale       =       0.3333333333333333 [-]
	 SCS Opposite-Spin Scale   =       1.2000000000000000 [-]
	 SCS Same-Spin Energy      =      -0.2450880605733588 [Eh]
	 SCS Opposite-Spin Energy  =      -2.7190956752462614 [Eh]
	 SCS Correlation Energy    =      -2.9641837358196201 [Eh]
	 SCS Total Energy          =    -670.2295140881320776 [Eh]
	-----------------------------------------------------------

  Dipole Moment: [D]
     X:     0.4429      Y:    -1.8400      Z:    -0.0946     Total:     1.8949

*** Psi4 exiting successfully. Buy a developer a beer!
