                               Psi4 1.4a3.dev225

  ==> Input File <==

--------------------------------------------------------------------------
#psi4
#
memory 32 gb

molecule  {
0 1
  O       -0.5498120     2.2556960    -0.2996080
  N       -3.0129360     1.7813540     0.8248620
  C        1.0008190     0.4908720    -0.0872200
  C       -1.5329590     0.0859130    -0.1428360
  C       -0.3878030     1.0286420    -0.1846270
  C        3.6793340    -0.3535020     0.1683990
  C       -2.8127890     0.5150010     0.2964470
  C        1.3212360    -0.6095270     0.7211930
  C        2.0273690     1.1786660    -0.7492360
  C        2.6489240    -1.0168440     0.8468500
  C        3.3454510     0.7479200    -0.6334830
  C       -1.3791480    -1.2185740    -0.6492330
  C       -3.8612840    -0.4227650     0.3079770
  C       -2.4390410    -2.1168890    -0.6711390
  C        5.1038640    -0.8322750     0.2664150
  C       -3.6857840    -1.7096250    -0.1856360
  H        0.5383950    -1.1258400     1.2710410
  H        1.7737210     2.0503190    -1.3473030
  H        2.8902070    -1.8603380     1.4919100
  H        4.1335430     1.2826870    -1.1615780
  H       -0.4095800    -1.5185310    -1.0371660
  H       -4.8387790    -0.1097830     0.6721110
  H       -2.3031150    -3.1155080    -1.0770870
  H        5.8700939     0.0785703     0.1753811
  H        5.2850310    -1.3360150     1.2200590
  H        5.3367840    -1.5427250    -0.5345020
  H       -4.5250650    -2.4017370    -0.1822600
  H       -2.3845940     2.4838010     0.4485930
  H       -3.9825350     2.0742830     0.8527820
units angstrom
no_reorient  #important for SAPT in psi4, default
symmetry c1  #important for SAPT in psi4, default
}

set PROPERTIES_ORIGIN ["COM"]
properties('MP2/aug-cc-pvtz', properties = ['dipole'])
--------------------------------------------------------------------------

    Molecular point group: c1
  Charge       = 0
  Multiplicity = 1
  Basis Set: AUG-CC-PVTZ
    Blend: AUG-CC-PVTZ
  Basis Set: (AUG-CC-PVTZ AUX)
    Blend: AUG-CC-PVTZ-JKFIT

    Orbital Energies [Eh]
    ---------------------

    Doubly Occupied:

       1A    -20.538250     2A    -15.560170     3A    -11.338717
       4A    -11.297065     5A    -11.258244     6A    -11.252881
       7A    -11.252436     8A    -11.251015     9A    -11.246507
      10A    -11.244890    11A    -11.243939    12A    -11.239916
      13A    -11.239295    14A    -11.238018    15A    -11.232114
      16A    -11.228460    17A     -1.371298    18A     -1.226713
      19A     -1.165485    20A     -1.137266    21A     -1.068892
      22A     -1.034269    23A     -1.020863    24A     -0.996667
      25A     -0.950133    26A     -0.876212    27A     -0.839089
      28A     -0.835496    29A     -0.812898    30A     -0.766339
      31A     -0.712937    32A     -0.691792    33A     -0.686360
      34A     -0.660040    35A     -0.645576    36A     -0.635974
      37A     -0.614165    38A     -0.603923    39A     -0.600137
      40A     -0.593025    41A     -0.585099    42A     -0.580152
      43A     -0.554493    44A     -0.538013    45A     -0.529581
      46A     -0.515913    47A     -0.513402    48A     -0.505250
      49A     -0.493282    50A     -0.481643    51A     -0.452439
      52A     -0.419158    53A     -0.349905    54A     -0.343356
      55A     -0.334216    56A     -0.300514

  @DF-RHF Final Energy:  -667.26998734968402

   => Energetics <=

    Nuclear Repulsion Energy =            992.4606952353561837
    One-Electron Energy =               -2876.0536036656321812
    Two-Electron Energy =                1216.3229210805920957
    Total Energy =                       -667.2699873496840155
  Basis Set: (AUG-CC-PVTZ AUX)
    Blend: AUG-CC-PVTZ-RI
    Molecular point group: c1

    Geometry (in Angstrom), charge = 0, multiplicity = 1:

       Center              X                  Y                   Z               Mass
    ------------   -----------------  -----------------  -----------------  -----------------
         O           -0.515684023875     2.231309460265    -0.295832673369    15.994914619570
         N           -2.978808023875     1.756967460265     0.828637326631    14.003074004430
         C            1.034946976125     0.466485460265    -0.083444673369    12.000000000000
         C           -1.498831023875     0.061526460265    -0.139060673369    12.000000000000
         C           -0.353675023875     1.004255460265    -0.180851673369    12.000000000000
         C            3.713461976125    -0.377888539735     0.172174326631    12.000000000000
         C           -2.778661023875     0.490614460265     0.300222326631    12.000000000000
         C            1.355363976125    -0.633913539735     0.724968326631    12.000000000000
         C            2.061496976125     1.154279460265    -0.745460673369    12.000000000000
         C            2.683051976125    -1.041230539735     0.850625326631    12.000000000000
         C            3.379578976125     0.723533460265    -0.629707673369    12.000000000000
         C           -1.345020023875    -1.242960539735    -0.645457673369    12.000000000000
         C           -3.827156023875    -0.447151539735     0.311752326631    12.000000000000
         C           -2.404913023875    -2.141275539735    -0.667363673369    12.000000000000
         C            5.137991976125    -0.856661539735     0.270190326631    12.000000000000
         C           -3.651656023875    -1.734011539735    -0.181860673369    12.000000000000
         H            0.572522976125    -1.150226539735     1.274816326631     1.007825032230
         H            1.807848976125     2.025932460265    -1.343527673369     1.007825032230
         H            2.924334976125    -1.884724539735     1.495685326631     1.007825032230
         H            4.167670976125     1.258300460265    -1.157802673369     1.007825032230
         H           -0.375452023875    -1.542917539735    -1.033390673369     1.007825032230
         H           -4.804651023875    -0.134169539735     0.675886326631     1.007825032230
         H           -2.268987023875    -3.139894539735    -1.073311673369     1.007825032230
         H            5.904221876125     0.054183760265     0.179156426631     1.007825032230
         H            5.319158976125    -1.360401539735     1.223834326631     1.007825032230
         H            5.370911976125    -1.567111539735    -0.530726673369     1.007825032230
         H           -4.490937023875    -2.426123539735    -0.178484673369     1.007825032230
         H           -2.350466023875     2.459414460265     0.452368326631     1.007825032230
         H           -3.948407023875     2.049896460265     0.856557326631     1.007825032230

  Basis Set: AUG-CC-PVTZ
    Blend: AUG-CC-PVTZ
  Basis Set: (AUG-CC-PVTZ AUX)
    Blend: AUG-CC-PVTZ-JKFIT
	 Reference Energy          =    -667.2699873496840155 [Eh]
	 Singles Energy            =      -0.0000000000000000 [Eh]
	 Same-Spin Energy          =      -0.7355530720723172 [Eh]
	 Opposite-Spin Energy      =      -2.2662786732082760 [Eh]
	 Correlation Energy        =      -3.0018317452805934 [Eh]
	 Total Energy              =    -670.2718190949645987 [Eh]

	 ================> DF-SCS-MP2 Energies <==================
	-----------------------------------------------------------
	 SCS Same-Spin Scale       =       0.3333333333333333 [-]
	 SCS Opposite-Spin Scale   =       1.2000000000000000 [-]
	 SCS Same-Spin Energy      =      -0.2451843573574391 [Eh]
	 SCS Opposite-Spin Energy  =      -2.7195344078499311 [Eh]
	 SCS Correlation Energy    =      -2.9647187652073703 [Eh]
	 SCS Total Energy          =    -670.2347061148914236 [Eh]
	-----------------------------------------------------------

  Dipole Moment: [D]
     X:     0.2879      Y:    -1.8381      Z:    -0.1037     Total:     1.8634

*** Psi4 exiting successfully. Buy a developer a beer!
