                               Psi4 1.4a3.dev225

  ==> Input File <==

--------------------------------------------------------------------------
#psi4
#
memory 32 gb

molecule  {
0 1
  O       -0.5498120     2.2556960    -0.2996080
  N       -3.0129360     1.7813540     0.8248620
  C        1.0008190     0.4908720    -0.0872200
  C       -1.5329590     0.0859130    -0.1428360
  C       -0.3878030     1.0286420    -0.1846270
  C        3.6793340    -0.3535020     0.1683990
  C       -2.8127890     0.5150010     0.2964470
  C        1.3212360    -0.6095270     0.7211930
  C        2.0273690     1.1786660    -0.7492360
  C        2.6328973    -1.0007523     0.8378020
  C        3.3454510     0.7479200    -0.6334830
  C       -1.3791480    -1.2185740    -0.6492330
  C       -3.8612840    -0.4227650     0.3079770
  C       -2.4390410    -2.1168890    -0.6711390
  C        5.1038640    -0.8322750     0.2664150
  C       -3.6857840    -1.7096250    -0.1856360
  H        0.5383950    -1.1258400     1.2710410
  H        1.7737210     2.0503190    -1.3473030
  H        2.8902070    -1.8603380     1.4919100
  H        4.1335430     1.2826870    -1.1615780
  H       -0.4095800    -1.5185310    -1.0371660
  H       -4.8387790    -0.1097830     0.6721110
  H       -2.3031150    -3.1155080    -1.0770870
  H        5.8059070     0.0022690     0.1830070
  H        5.2850310    -1.3360150     1.2200590
  H        5.3367840    -1.5427250    -0.5345020
  H       -4.5250650    -2.4017370    -0.1822600
  H       -2.3845940     2.4838010     0.4485930
  H       -3.9825350     2.0742830     0.8527820
units angstrom
no_reorient  #important for SAPT in psi4, default
symmetry c1  #important for SAPT in psi4, default
}

set PROPERTIES_ORIGIN ["COM"]
properties('MP2/aug-cc-pvtz', properties = ['dipole'])
--------------------------------------------------------------------------

    Molecular point group: c1
  Charge       = 0
  Multiplicity = 1
  Basis Set: AUG-CC-PVTZ
    Blend: AUG-CC-PVTZ
  Basis Set: (AUG-CC-PVTZ AUX)
    Blend: AUG-CC-PVTZ-JKFIT

    Orbital Energies [Eh]
    ---------------------

    Doubly Occupied:

       1A    -20.537870     2A    -15.559998     3A    -11.338260
       4A    -11.296881     5A    -11.257327     6A    -11.252717
       7A    -11.252283     8A    -11.247946     9A    -11.245961
      10A    -11.243310    11A    -11.239090    12A    -11.238699
      13A    -11.237733    14A    -11.234018    15A    -11.231963
      16A    -11.228318    17A     -1.370920    18A     -1.226538
      19A     -1.167040    20A     -1.137148    21A     -1.069449
      22A     -1.034387    23A     -1.022713    24A     -0.996566
      25A     -0.955340    26A     -0.877261    27A     -0.837748
      28A     -0.836670    29A     -0.813086    30A     -0.765723
      31A     -0.712596    32A     -0.691973    33A     -0.686134
      34A     -0.662575    35A     -0.645215    36A     -0.635313
      37A     -0.614247    38A     -0.603683    39A     -0.598827
      40A     -0.591083    41A     -0.584906    42A     -0.584019
      43A     -0.555618    44A     -0.545266    45A     -0.531990
      46A     -0.519434    47A     -0.514326    48A     -0.505623
      49A     -0.489824    50A     -0.482882    51A     -0.452307
      52A     -0.418858    53A     -0.350199    54A     -0.344751
      55A     -0.333235    56A     -0.300347

  @DF-RHF Final Energy:  -667.27585515875512

   => Energetics <=

    Nuclear Repulsion Energy =            993.3276166388646971
    One-Electron Energy =               -2877.7905634935236776
    Two-Electron Energy =                1217.1870916959039732
    Total Energy =                       -667.2758551587551210
  Basis Set: (AUG-CC-PVTZ AUX)
    Blend: AUG-CC-PVTZ-RI
    Molecular point group: c1

    Geometry (in Angstrom), charge = 0, multiplicity = 1:

       Center              X                  Y                   Z               Mass
    ------------   -----------------  -----------------  -----------------  -----------------
         O           -0.514466544421     2.230758999832    -0.295354745544    15.994914619570
         N           -2.977590544421     1.756416999832     0.829115254456    14.003074004430
         C            1.036164455579     0.465934999832    -0.082966745544    12.000000000000
         C           -1.497613544421     0.060975999832    -0.138582745544    12.000000000000
         C           -0.352457544421     1.003704999832    -0.180373745544    12.000000000000
         C            3.714679455579    -0.378439000168     0.172652254456    12.000000000000
         C           -2.777443544421     0.490063999832     0.300700254456    12.000000000000
         C            1.356581455579    -0.634464000168     0.725446254456    12.000000000000
         C            2.062714455579     1.153728999832    -0.744982745544    12.000000000000
         C            2.668242755579    -1.025689300168     0.842055254456    12.000000000000
         C            3.380796455579     0.722982999832    -0.629229745544    12.000000000000
         C           -1.343802544421    -1.243511000168    -0.644979745544    12.000000000000
         C           -3.825938544421    -0.447702000168     0.312230254456    12.000000000000
         C           -2.403695544421    -2.141826000168    -0.666885745544    12.000000000000
         C            5.139209455579    -0.857212000168     0.270668254456    12.000000000000
         C           -3.650438544421    -1.734562000168    -0.181382745544    12.000000000000
         H            0.573740455579    -1.150777000168     1.275294254456     1.007825032230
         H            1.809066455579     2.025381999832    -1.343049745544     1.007825032230
         H            2.925552455579    -1.885275000168     1.496163254456     1.007825032230
         H            4.168888455579     1.257749999832    -1.157324745544     1.007825032230
         H           -0.374234544421    -1.543468000168    -1.032912745544     1.007825032230
         H           -4.803433544421    -0.134720000168     0.676364254456     1.007825032230
         H           -2.267769544421    -3.140445000168    -1.072833745544     1.007825032230
         H            5.841252455579    -0.022668000168     0.187260254456     1.007825032230
         H            5.320376455579    -1.360952000168     1.224312254456     1.007825032230
         H            5.372129455579    -1.567662000168    -0.530248745544     1.007825032230
         H           -4.489719544421    -2.426674000168    -0.178006745544     1.007825032230
         H           -2.349248544421     2.458863999832     0.452846254456     1.007825032230
         H           -3.947189544421     2.049345999832     0.857035254456     1.007825032230

  Basis Set: AUG-CC-PVTZ
    Blend: AUG-CC-PVTZ
  Basis Set: (AUG-CC-PVTZ AUX)
    Blend: AUG-CC-PVTZ-JKFIT
	 Reference Energy          =    -667.2758551587551210 [Eh]
	 Singles Energy            =      -0.0000000000000000 [Eh]
	 Same-Spin Energy          =      -0.7356021997383799 [Eh]
	 Opposite-Spin Energy      =      -2.2655079607873332 [Eh]
	 Correlation Energy        =      -3.0011101605257133 [Eh]
	 Total Energy              =    -670.2769653192808619 [Eh]

	 ================> DF-SCS-MP2 Energies <==================
	-----------------------------------------------------------
	 SCS Same-Spin Scale       =       0.3333333333333333 [-]
	 SCS Opposite-Spin Scale   =       1.2000000000000000 [-]
	 SCS Same-Spin Energy      =      -0.2452007332461266 [Eh]
	 SCS Opposite-Spin Energy  =      -2.7186095529447996 [Eh]
	 SCS Correlation Energy    =      -2.9638102861909261 [Eh]
	 SCS Total Energy          =    -670.2396654449460129 [Eh]
	-----------------------------------------------------------

  Dipole Moment: [D]
     X:     0.3627      Y:    -1.8061      Z:    -0.1149     Total:     1.8458

*** Psi4 exiting successfully. Buy a developer a beer!
