                               Psi4 1.4a3.dev225

  ==> Input File <==

--------------------------------------------------------------------------
#psi4
#
memory 32 gb

molecule  {
0 1
  O       -0.5498120     2.2556960    -0.2996080
  N       -3.0129360     1.7813540     0.8248620
  C        1.0008190     0.4908720    -0.0872200
  C       -1.5329590     0.0859130    -0.1428360
  C       -0.3878030     1.0286420    -0.1846270
  C        3.6793340    -0.3535020     0.1683990
  C       -2.8127890     0.5150010     0.2964470
  C        1.3212360    -0.6095270     0.7211930
  C        2.0273690     1.1786660    -0.7492360
  C        2.6489240    -1.0168440     0.8468500
  C        3.3454510     0.7479200    -0.6334830
  C       -1.3791480    -1.2185740    -0.6492330
  C       -3.8612840    -0.4227650     0.3079770
  C       -2.4390410    -2.1168890    -0.6711390
  C        5.1038640    -0.8322750     0.2664150
  C       -3.6857840    -1.7096250    -0.1856360
  H        0.5383950    -1.1258400     1.2710410
  H        1.7737210     2.0503190    -1.3473030
  H        2.8902070    -1.8603380     1.4919100
  H        4.1335430     1.2826870    -1.1615780
  H       -0.4095800    -1.5185310    -1.0371660
  H       -4.8387790    -0.1097830     0.6721110
  H       -2.3031150    -3.1155080    -1.0770870
  H        5.8059070     0.0022690     0.1830070
  H        5.2767481    -1.3129842     1.1764588
  H        5.3367840    -1.5427250    -0.5345020
  H       -4.5250650    -2.4017370    -0.1822600
  H       -2.3845940     2.4838010     0.4485930
  H       -3.9825350     2.0742830     0.8527820
units angstrom
no_reorient  #important for SAPT in psi4, default
symmetry c1  #important for SAPT in psi4, default
}

set PROPERTIES_ORIGIN ["COM"]
properties('MP2/aug-cc-pvtz', properties = ['dipole'])
--------------------------------------------------------------------------

    Molecular point group: c1
  Charge       = 0
  Multiplicity = 1
  Basis Set: AUG-CC-PVTZ
    Blend: AUG-CC-PVTZ
  Basis Set: (AUG-CC-PVTZ AUX)
    Blend: AUG-CC-PVTZ-JKFIT

    Orbital Energies [Eh]
    ---------------------

    Doubly Occupied:

       1A    -20.537916     2A    -15.559971     3A    -11.338390
       4A    -11.296841     5A    -11.256950     6A    -11.252675
       7A    -11.252196     8A    -11.250529     9A    -11.246142
      10A    -11.243405    11A    -11.239049    12A    -11.239041
      13A    -11.237465    14A    -11.231912    15A    -11.228249
      16A    -11.227142    17A     -1.370979    18A     -1.226505
      19A     -1.165132    20A     -1.137057    21A     -1.070170
      22A     -1.034940    23A     -1.020463    24A     -0.996530
      25A     -0.957598    26A     -0.877618    27A     -0.838831
      28A     -0.836707    29A     -0.813510    30A     -0.766146
      31A     -0.712769    32A     -0.691913    33A     -0.686176
      34A     -0.661119    35A     -0.646598    36A     -0.636369
      37A     -0.614353    38A     -0.603669    39A     -0.600253
      40A     -0.592604    41A     -0.585664    42A     -0.584127
      43A     -0.559419    44A     -0.546646    45A     -0.532271
      46A     -0.517917    47A     -0.513093    48A     -0.504703
      49A     -0.493829    50A     -0.482066    51A     -0.452241
      52A     -0.418826    53A     -0.349651    54A     -0.342959
      55A     -0.333884    56A     -0.300304

  @DF-RHF Final Energy:  -667.27565799492118

   => Energetics <=

    Nuclear Repulsion Energy =            993.1073384967621678
    One-Electron Energy =               -2877.3390245097134539
    Two-Electron Energy =                1216.9560280180301106
    Total Energy =                       -667.2756579949211755
  Basis Set: (AUG-CC-PVTZ AUX)
    Blend: AUG-CC-PVTZ-RI
    Molecular point group: c1

    Geometry (in Angstrom), charge = 0, multiplicity = 1:

       Center              X                  Y                   Z               Mass
    ------------   -----------------  -----------------  -----------------  -----------------
         O           -0.515338041035     2.231563782463    -0.295660926097    15.994914619570
         N           -2.978462041035     1.757221782463     0.828809073903    14.003074004430
         C            1.035292958965     0.466739782463    -0.083272926097    12.000000000000
         C           -1.498485041035     0.061780782463    -0.138888926097    12.000000000000
         C           -0.353329041035     1.004509782463    -0.180679926097    12.000000000000
         C            3.713807958965    -0.377634217537     0.172346073903    12.000000000000
         C           -2.778315041035     0.490868782463     0.300394073903    12.000000000000
         C            1.355709958965    -0.633659217537     0.725140073903    12.000000000000
         C            2.061842958965     1.154533782463    -0.745288926097    12.000000000000
         C            2.683397958965    -1.040976217537     0.850797073903    12.000000000000
         C            3.379924958965     0.723787782463    -0.629535926097    12.000000000000
         C           -1.344674041035    -1.242706217537    -0.645285926097    12.000000000000
         C           -3.826810041035    -0.446897217537     0.311924073903    12.000000000000
         C           -2.404567041035    -2.141021217537    -0.667191926097    12.000000000000
         C            5.138337958965    -0.856407217537     0.270362073903    12.000000000000
         C           -3.651310041035    -1.733757217537    -0.181688926097    12.000000000000
         H            0.572868958965    -1.149972217537     1.274988073903     1.007825032230
         H            1.808194958965     2.026186782463    -1.343355926097     1.007825032230
         H            2.924680958965    -1.884470217537     1.495857073903     1.007825032230
         H            4.168016958965     1.258554782463    -1.157630926097     1.007825032230
         H           -0.375106041035    -1.542663217537    -1.033218926097     1.007825032230
         H           -4.804305041035    -0.133915217537     0.676058073903     1.007825032230
         H           -2.268641041035    -3.139640217537    -1.073139926097     1.007825032230
         H            5.840380958965    -0.021863217537     0.186954073903     1.007825032230
         H            5.311222058965    -1.337116417537     1.180405873903     1.007825032230
         H            5.371257958965    -1.566857217537    -0.530554926097     1.007825032230
         H           -4.490591041035    -2.425869217537    -0.178312926097     1.007825032230
         H           -2.350120041035     2.459668782463     0.452540073903     1.007825032230
         H           -3.948061041035     2.050150782463     0.856729073903     1.007825032230

  Basis Set: AUG-CC-PVTZ
    Blend: AUG-CC-PVTZ
  Basis Set: (AUG-CC-PVTZ AUX)
    Blend: AUG-CC-PVTZ-JKFIT
	 Reference Energy          =    -667.2756579949211755 [Eh]
	 Singles Energy            =      -0.0000000000000000 [Eh]
	 Same-Spin Energy          =      -0.7355144238862151 [Eh]
	 Opposite-Spin Energy      =      -2.2652109525374478 [Eh]
	 Correlation Energy        =      -3.0007253764236630 [Eh]
	 Total Energy              =    -670.2763833713448776 [Eh]

	 ================> DF-SCS-MP2 Energies <==================
	-----------------------------------------------------------
	 SCS Same-Spin Scale       =       0.3333333333333333 [-]
	 SCS Opposite-Spin Scale   =       1.2000000000000000 [-]
	 SCS Same-Spin Energy      =      -0.2451714746287384 [Eh]
	 SCS Opposite-Spin Energy  =      -2.7182531430449370 [Eh]
	 SCS Correlation Energy    =      -2.9634246176736756 [Eh]
	 SCS Total Energy          =    -670.2390826125948706 [Eh]
	-----------------------------------------------------------

  Dipole Moment: [D]
     X:     0.3703      Y:    -1.8273      Z:    -0.0890     Total:     1.8665

*** Psi4 exiting successfully. Buy a developer a beer!
