                               Psi4 1.4a3.dev225

  ==> Input File <==

--------------------------------------------------------------------------
#psi4
#
memory 32 gb

molecule  {
0 1
  O       -0.5498120     2.2556960    -0.2996080
  N       -3.0129360     1.7813540     0.8248620
  C        1.0008190     0.4908720    -0.0872200
  C       -1.5329590     0.0859130    -0.1428360
  C       -0.3878030     1.0286420    -0.1846270
  C        3.6793340    -0.3535020     0.1683990
  C       -2.8127890     0.5150010     0.2964470
  C        1.3212360    -0.6095270     0.7211930
  C        2.0273690     1.1786660    -0.7492360
  C        2.5570746    -0.9199614     0.7862346
  C        3.3454510     0.7479200    -0.6334830
  C       -1.3791480    -1.2185740    -0.6492330
  C       -3.8612840    -0.4227650     0.3079770
  C       -2.4390410    -2.1168890    -0.6711390
  C        5.1038640    -0.8322750     0.2664150
  C       -3.6857840    -1.7096250    -0.1856360
  H        0.5383950    -1.1258400     1.2710410
  H        1.7737210     2.0503190    -1.3473030
  H        2.8902070    -1.8603380     1.4919100
  H        4.1335430     1.2826870    -1.1615780
  H       -0.4095800    -1.5185310    -1.0371660
  H       -4.8387790    -0.1097830     0.6721110
  H       -2.3031150    -3.1155080    -1.0770870
  H        5.8059070     0.0022690     0.1830070
  H        5.2850310    -1.3360150     1.2200590
  H        5.3367840    -1.5427250    -0.5345020
  H       -4.5250650    -2.4017370    -0.1822600
  H       -2.3845940     2.4838010     0.4485930
  H       -3.9825350     2.0742830     0.8527820
units angstrom
no_reorient  #important for SAPT in psi4, default
symmetry c1  #important for SAPT in psi4, default
}

set PROPERTIES_ORIGIN ["COM"]
properties('MP2/aug-cc-pvtz', properties = ['dipole'])
--------------------------------------------------------------------------

    Molecular point group: c1
  Charge       = 0
  Multiplicity = 1
  Basis Set: AUG-CC-PVTZ
    Blend: AUG-CC-PVTZ
  Basis Set: (AUG-CC-PVTZ AUX)
    Blend: AUG-CC-PVTZ-JKFIT

    Orbital Energies [Eh]
    ---------------------

    Doubly Occupied:

       1A    -20.537487     2A    -15.560067     3A    -11.337440
       4A    -11.297005     5A    -11.258565     6A    -11.252856
       7A    -11.252647     8A    -11.244750     9A    -11.242984
      10A    -11.239224    11A    -11.238040    12A    -11.237987
      13A    -11.237941    14A    -11.234044    15A    -11.232155
      16A    -11.228601    17A     -1.370482    18A     -1.226627
      19A     -1.178999    20A     -1.137524    21A     -1.070488
      22A     -1.035995    23A     -1.031922    24A     -0.996812
      25A     -0.958643    26A     -0.879288    27A     -0.840840
      28A     -0.832330    29A     -0.812041    30A     -0.764358
      31A     -0.712584    32A     -0.693977    33A     -0.686152
      34A     -0.669931    35A     -0.646399    36A     -0.633026
      37A     -0.614349    38A     -0.604093    39A     -0.598991
      40A     -0.587436    41A     -0.584420    42A     -0.577964
      43A     -0.554057    44A     -0.549057    45A     -0.533103
      46A     -0.527240    47A     -0.518500    48A     -0.508499
      49A     -0.488426    50A     -0.462917    51A     -0.452388
      52A     -0.418050    53A     -0.358411    54A     -0.348269
      55A     -0.330382    56A     -0.300480

  @DF-RHF Final Energy:  -667.24775044407875

   => Energetics <=

    Nuclear Repulsion Energy =            995.6835955283099793
    One-Electron Energy =               -2882.4082102572087933
    Two-Electron Energy =                1219.4768642848200670
    Total Energy =                       -667.2477504440787470
  Basis Set: (AUG-CC-PVTZ AUX)
    Blend: AUG-CC-PVTZ-RI
    Molecular point group: c1

    Geometry (in Angstrom), charge = 0, multiplicity = 1:

       Center              X                  Y                   Z               Mass
    ------------   -----------------  -----------------  -----------------  -----------------
         O           -0.510156389837     2.226166427055    -0.292423387713    15.994914619570
         N           -2.973280389837     1.751824427055     0.832046612287    14.003074004430
         C            1.040474610163     0.461342427055    -0.080035387713    12.000000000000
         C           -1.493303389837     0.056383427055    -0.135651387713    12.000000000000
         C           -0.348147389837     0.999112427055    -0.177442387713    12.000000000000
         C            3.718989610163    -0.383031572945     0.175583612287    12.000000000000
         C           -2.773133389837     0.485471427055     0.303631612287    12.000000000000
         C            1.360891610163    -0.639056572945     0.728377612287    12.000000000000
         C            2.067024610163     1.149136427055    -0.742051387713    12.000000000000
         C            2.596730210163    -0.949490972945     0.793419212287    12.000000000000
         C            3.385106610163     0.718390427055    -0.626298387713    12.000000000000
         C           -1.339492389837    -1.248103572945    -0.642048387713    12.000000000000
         C           -3.821628389837    -0.452294572945     0.315161612287    12.000000000000
         C           -2.399385389837    -2.146418572945    -0.663954387713    12.000000000000
         C            5.143519610163    -0.861804572945     0.273599612287    12.000000000000
         C           -3.646128389837    -1.739154572945    -0.178451387713    12.000000000000
         H            0.578050610163    -1.155369572945     1.278225612287     1.007825032230
         H            1.813376610163     2.020789427055    -1.340118387713     1.007825032230
         H            2.929862610163    -1.889867572945     1.499094612287     1.007825032230
         H            4.173198610163     1.253157427055    -1.154393387713     1.007825032230
         H           -0.369924389837    -1.548060572945    -1.029981387713     1.007825032230
         H           -4.799123389837    -0.139312572945     0.679295612287     1.007825032230
         H           -2.263459389837    -3.145037572945    -1.069902387713     1.007825032230
         H            5.845562610163    -0.027260572945     0.190191612287     1.007825032230
         H            5.324686610163    -1.365544572945     1.227243612287     1.007825032230
         H            5.376439610163    -1.572254572945    -0.527317387713     1.007825032230
         H           -4.485409389837    -2.431266572945    -0.175075387713     1.007825032230
         H           -2.344938389837     2.454271427055     0.455777612287     1.007825032230
         H           -3.942879389837     2.044753427055     0.859966612287     1.007825032230

  Basis Set: AUG-CC-PVTZ
    Blend: AUG-CC-PVTZ
  Basis Set: (AUG-CC-PVTZ AUX)
    Blend: AUG-CC-PVTZ-JKFIT
	 Reference Energy          =    -667.2477504440787470 [Eh]
	 Singles Energy            =      -0.0000000000000000 [Eh]
	 Same-Spin Energy          =      -0.7362890082934461 [Eh]
	 Opposite-Spin Energy      =      -2.2667716774165689 [Eh]
	 Correlation Energy        =      -3.0030606857100151 [Eh]
	 Total Energy              =    -670.2508111297887581 [Eh]

	 ================> DF-SCS-MP2 Energies <==================
	-----------------------------------------------------------
	 SCS Same-Spin Scale       =       0.3333333333333333 [-]
	 SCS Opposite-Spin Scale   =       1.2000000000000000 [-]
	 SCS Same-Spin Energy      =      -0.2454296694311487 [Eh]
	 SCS Opposite-Spin Energy  =      -2.7201260128998825 [Eh]
	 SCS Correlation Energy    =      -2.9655556823310314 [Eh]
	 SCS Total Energy          =    -670.2133061264097478 [Eh]
	-----------------------------------------------------------

  Dipole Moment: [D]
     X:     0.3855      Y:    -1.7180      Z:    -0.1940     Total:     1.7714

*** Psi4 exiting successfully. Buy a developer a beer!
