                               Psi4 1.4a3.dev225

  ==> Input File <==

--------------------------------------------------------------------------
#psi4
#
memory 32 gb

molecule  {
0 1
  O       -0.5498120     2.2556960    -0.2996080
  N       -3.0129360     1.7813540     0.8248620
  C        1.0008190     0.4908720    -0.0872200
  C       -1.5329590     0.0859130    -0.1428360
  C       -0.3878030     1.0286420    -0.1846270
  C        3.6793340    -0.3535020     0.1683990
  C       -2.8127890     0.5150010     0.2964470
  C        1.3212360    -0.6095270     0.7211930
  C        2.0273690     1.1786660    -0.7492360
  C        2.6636364    -1.0073727     0.8371629
  C        3.3454510     0.7479200    -0.6334830
  C       -1.3791480    -1.2185740    -0.6492330
  C       -3.8612840    -0.4227650     0.3079770
  C       -2.4390410    -2.1168890    -0.6711390
  C        5.1038640    -0.8322750     0.2664150
  C       -3.6857840    -1.7096250    -0.1856360
  H        0.5383950    -1.1258400     1.2710410
  H        1.7737210     2.0503190    -1.3473030
  H        2.8902070    -1.8603380     1.4919100
  H        4.1335430     1.2826870    -1.1615780
  H       -0.4095800    -1.5185310    -1.0371660
  H       -4.8387790    -0.1097830     0.6721110
  H       -2.3031150    -3.1155080    -1.0770870
  H        5.8059070     0.0022690     0.1830070
  H        5.2850310    -1.3360150     1.2200590
  H        5.3367840    -1.5427250    -0.5345020
  H       -4.5250650    -2.4017370    -0.1822600
  H       -2.3845940     2.4838010     0.4485930
  H       -3.9825350     2.0742830     0.8527820
units angstrom
no_reorient  #important for SAPT in psi4, default
symmetry c1  #important for SAPT in psi4, default
}

set PROPERTIES_ORIGIN ["COM"]
properties('MP2/aug-cc-pvtz', properties = ['dipole'])
--------------------------------------------------------------------------

    Molecular point group: c1
  Charge       = 0
  Multiplicity = 1
  Basis Set: AUG-CC-PVTZ
    Blend: AUG-CC-PVTZ
  Basis Set: (AUG-CC-PVTZ AUX)
    Blend: AUG-CC-PVTZ-JKFIT

    Orbital Energies [Eh]
    ---------------------

    Doubly Occupied:

       1A    -20.538311     2A    -15.560171     3A    -11.338646
       4A    -11.297064     5A    -11.254690     6A    -11.252872
       7A    -11.252396     8A    -11.251890     9A    -11.245846
      10A    -11.243834    11A    -11.239299    12A    -11.238853
      13A    -11.237959    14A    -11.232817    15A    -11.232103
      16A    -11.228432    17A     -1.371331    18A     -1.226713
      19A     -1.166262    20A     -1.137333    21A     -1.070717
      22A     -1.034950    23A     -1.018997    24A     -0.996687
      25A     -0.954515    26A     -0.877359    27A     -0.840019
      28A     -0.837191    29A     -0.812788    30A     -0.765600
      31A     -0.712765    32A     -0.691834    33A     -0.686310
      34A     -0.661643    35A     -0.644800    36A     -0.636801
      37A     -0.614267    38A     -0.603881    39A     -0.600033
      40A     -0.591164    41A     -0.584811    42A     -0.583975
      43A     -0.555745    44A     -0.544128    45A     -0.531952
      46A     -0.518328    47A     -0.513147    48A     -0.504593
      49A     -0.494051    50A     -0.482467    51A     -0.452461
      52A     -0.418958    53A     -0.349641    54A     -0.341864
      55A     -0.336187    56A     -0.300511

  @DF-RHF Final Energy:  -667.27613452933463

   => Energetics <=

    Nuclear Repulsion Energy =            993.0284570652786442
    One-Electron Energy =               -2877.1852616701448824
    Two-Electron Energy =                1216.8806700755317252
    Total Energy =                       -667.2761345293345130
  Basis Set: (AUG-CC-PVTZ AUX)
    Blend: AUG-CC-PVTZ-RI
    Molecular point group: c1

    Geometry (in Angstrom), charge = 0, multiplicity = 1:

       Center              X                  Y                   Z               Mass
    ------------   -----------------  -----------------  -----------------  -----------------
         O           -0.516213913912     2.231135337623    -0.295318415794    15.994914619570
         N           -2.979337913912     1.756793337623     0.829151584206    14.003074004430
         C            1.034417086088     0.466311337623    -0.082930415794    12.000000000000
         C           -1.499360913912     0.061352337623    -0.138546415794    12.000000000000
         C           -0.354204913912     1.004081337623    -0.180337415794    12.000000000000
         C            3.712932086088    -0.378062662377     0.172688584206    12.000000000000
         C           -2.779190913912     0.490440337623     0.300736584206    12.000000000000
         C            1.354834086088    -0.634087662377     0.725482584206    12.000000000000
         C            2.060967086088     1.154105337623    -0.744946415794    12.000000000000
         C            2.697234486088    -1.031933362377     0.841452484206    12.000000000000
         C            3.379049086088     0.723359337623    -0.629193415794    12.000000000000
         C           -1.345549913912    -1.243134662377    -0.644943415794    12.000000000000
         C           -3.827685913912    -0.447325662377     0.312266584206    12.000000000000
         C           -2.405442913912    -2.141449662377    -0.666849415794    12.000000000000
         C            5.137462086088    -0.856835662377     0.270704584206    12.000000000000
         C           -3.652185913912    -1.734185662377    -0.181346415794    12.000000000000
         H            0.571993086088    -1.150400662377     1.275330584206     1.007825032230
         H            1.807319086088     2.025758337623    -1.343013415794     1.007825032230
         H            2.923805086088    -1.884898662377     1.496199584206     1.007825032230
         H            4.167141086088     1.258126337623    -1.157288415794     1.007825032230
         H           -0.375981913912    -1.543091662377    -1.032876415794     1.007825032230
         H           -4.805180913912    -0.134343662377     0.676400584206     1.007825032230
         H           -2.269516913912    -3.140068662377    -1.072797415794     1.007825032230
         H            5.839505086088    -0.022291662377     0.187296584206     1.007825032230
         H            5.318629086088    -1.360575662377     1.224348584206     1.007825032230
         H            5.370382086088    -1.567285662377    -0.530212415794     1.007825032230
         H           -4.491466913912    -2.426297662377    -0.177970415794     1.007825032230
         H           -2.350995913912     2.459240337623     0.452882584206     1.007825032230
         H           -3.948936913912     2.049722337623     0.857071584206     1.007825032230

  Basis Set: AUG-CC-PVTZ
    Blend: AUG-CC-PVTZ
  Basis Set: (AUG-CC-PVTZ AUX)
    Blend: AUG-CC-PVTZ-JKFIT
	 Reference Energy          =    -667.2761345293346267 [Eh]
	 Singles Energy            =      -0.0000000000000000 [Eh]
	 Same-Spin Energy          =      -0.7355341292899460 [Eh]
	 Opposite-Spin Energy      =      -2.2655495711054598 [Eh]
	 Correlation Energy        =      -3.0010837003954061 [Eh]
	 Total Energy              =    -670.2772182297300105 [Eh]

	 ================> DF-SCS-MP2 Energies <==================
	-----------------------------------------------------------
	 SCS Same-Spin Scale       =       0.3333333333333333 [-]
	 SCS Opposite-Spin Scale   =       1.2000000000000000 [-]
	 SCS Same-Spin Energy      =      -0.2451780430966486 [Eh]
	 SCS Opposite-Spin Energy  =      -2.7186594853265516 [Eh]
	 SCS Correlation Energy    =      -2.9638375284232001 [Eh]
	 SCS Total Energy          =    -670.2399720577578819 [Eh]
	-----------------------------------------------------------

  Dipole Moment: [D]
     X:     0.3308      Y:    -1.8079      Z:    -0.1087     Total:     1.8411

*** Psi4 exiting successfully. Buy a developer a beer!
