                               Psi4 1.4a3.dev225

  ==> Input File <==

--------------------------------------------------------------------------
#psi4
#
memory 32 gb

molecule  {
0 1
  O       -0.5498120     2.2556960    -0.2996080
  N       -3.0129360     1.7813540     0.8248620
  C        1.0008190     0.4908720    -0.0872200
  C       -1.5329590     0.0859130    -0.1428360
  C       -0.3878030     1.0286420    -0.1846270
  C        3.6793340    -0.3535020     0.1683990
  C       -2.8127890     0.5150010     0.2964470
  C        1.3212360    -0.6095270     0.7211930
  C        2.0273690     1.1786660    -0.7492360
  C        2.6489240    -1.0168440     0.8468500
  C        3.3454510     0.7479200    -0.6334830
  C       -1.3791480    -1.2185740    -0.6492330
  C       -3.8612840    -0.4227650     0.3079770
  C       -2.4390410    -2.1168890    -0.6711390
  C        5.1038640    -0.8322750     0.2664150
  C       -3.6857840    -1.7096250    -0.1856360
  H        0.5383950    -1.1258400     1.2710410
  H        1.7737210     2.0503190    -1.3473030
  H        2.8902070    -1.8603380     1.4919100
  H        4.1335430     1.2826870    -1.1615780
  H       -0.4095800    -1.5185310    -1.0371660
  H       -4.8387790    -0.1097830     0.6721110
  H       -2.3031150    -3.1155080    -1.0770870
  H        5.8059070     0.0022690     0.1830070
  H        5.2850310    -1.3360150     1.2200590
  H        5.3793010    -1.6724100    -0.6807008
  H       -4.5250650    -2.4017370    -0.1822600
  H       -2.3845940     2.4838010     0.4485930
  H       -3.9825350     2.0742830     0.8527820
units angstrom
no_reorient  #important for SAPT in psi4, default
symmetry c1  #important for SAPT in psi4, default
}

set PROPERTIES_ORIGIN ["COM"]
properties('MP2/aug-cc-pvtz', properties = ['dipole'])
--------------------------------------------------------------------------

    Molecular point group: c1
  Charge       = 0
  Multiplicity = 1
  Basis Set: AUG-CC-PVTZ
    Blend: AUG-CC-PVTZ
  Basis Set: (AUG-CC-PVTZ AUX)
    Blend: AUG-CC-PVTZ-JKFIT

    Orbital Energies [Eh]
    ---------------------

    Doubly Occupied:

       1A    -20.538677     2A    -15.560375     3A    -11.339111
       4A    -11.297267     5A    -11.258931     6A    -11.255465
       7A    -11.253045     8A    -11.252621     9A    -11.251290
      10A    -11.247018    11A    -11.244673    12A    -11.240410
      13A    -11.239517    14A    -11.239041    15A    -11.232278
      16A    -11.228610    17A     -1.371698    18A     -1.226918
      19A     -1.165960    20A     -1.137456    21A     -1.068769
      22A     -1.034147    23A     -1.021416    24A     -0.996820
      25A     -0.947245    26A     -0.875604    27A     -0.839674
      28A     -0.835503    29A     -0.812555    30A     -0.766692
      31A     -0.713103    32A     -0.691823    33A     -0.686533
      34A     -0.661660    35A     -0.646023    36A     -0.637219
      37A     -0.614640    38A     -0.603857    39A     -0.600444
      40A     -0.593408    41A     -0.584958    42A     -0.558807
      43A     -0.552551    44A     -0.546007    45A     -0.532258
      46A     -0.519061    47A     -0.512337    48A     -0.501943
      49A     -0.494251    50A     -0.477833    51A     -0.452630
      52A     -0.419557    53A     -0.350146    54A     -0.343767
      55A     -0.333060    56A     -0.300688

  @DF-RHF Final Energy:  -667.25684369276189

   => Energetics <=

    Nuclear Repulsion Energy =            992.0901408442852016
    One-Electron Energy =               -2875.2792702886526968
    Two-Electron Energy =                1215.9322857516056047
    Total Energy =                       -667.2568436927620041
  Basis Set: (AUG-CC-PVTZ AUX)
    Blend: AUG-CC-PVTZ-RI
    Molecular point group: c1

    Geometry (in Angstrom), charge = 0, multiplicity = 1:

       Center              X                  Y                   Z               Mass
    ------------   -----------------  -----------------  -----------------  -----------------
         O           -0.515580568179     2.232292873010    -0.295171103371    15.994914619570
         N           -2.978704568179     1.757950873010     0.829298896629    14.003074004430
         C            1.035050431821     0.467468873010    -0.082783103371    12.000000000000
         C           -1.498727568179     0.062509873010    -0.138399103371    12.000000000000
         C           -0.353571568179     1.005238873010    -0.180190103371    12.000000000000
         C            3.713565431821    -0.376905126990     0.172835896629    12.000000000000
         C           -2.778557568179     0.491597873010     0.300883896629    12.000000000000
         C            1.355467431821    -0.632930126990     0.725629896629    12.000000000000
         C            2.061600431821     1.155262873010    -0.744799103371    12.000000000000
         C            2.683155431821    -1.040247126990     0.851286896629    12.000000000000
         C            3.379682431821     0.724516873010    -0.629046103371    12.000000000000
         C           -1.344916568179    -1.241977126990    -0.644796103371    12.000000000000
         C           -3.827052568179    -0.446168126990     0.312413896629    12.000000000000
         C           -2.404809568179    -2.140292126990    -0.666702103371    12.000000000000
         C            5.138095431821    -0.855678126990     0.270851896629    12.000000000000
         C           -3.651552568179    -1.733028126990    -0.181199103371    12.000000000000
         H            0.572626431821    -1.149243126990     1.275477896629     1.007825032230
         H            1.807952431821     2.026915873010    -1.342866103371     1.007825032230
         H            2.924438431821    -1.883741126990     1.496346896629     1.007825032230
         H            4.167774431821     1.259283873010    -1.157141103371     1.007825032230
         H           -0.375348568179    -1.541934126990    -1.032729103371     1.007825032230
         H           -4.804547568179    -0.133186126990     0.676547896629     1.007825032230
         H           -2.268883568179    -3.138911126990    -1.072650103371     1.007825032230
         H            5.840138431821    -0.021134126990     0.187443896629     1.007825032230
         H            5.319262431821    -1.359418126990     1.224495896629     1.007825032230
         H            5.413532431821    -1.695813126990    -0.676263903371     1.007825032230
         H           -4.490833568179    -2.425140126990    -0.177823103371     1.007825032230
         H           -2.350362568179     2.460397873010     0.453029896629     1.007825032230
         H           -3.948303568179     2.050879873010     0.857218896629     1.007825032230

  Basis Set: AUG-CC-PVTZ
    Blend: AUG-CC-PVTZ
  Basis Set: (AUG-CC-PVTZ AUX)
    Blend: AUG-CC-PVTZ-JKFIT
	 Reference Energy          =    -667.2568436927618905 [Eh]
	 Singles Energy            =      -0.0000000000000000 [Eh]
	 Same-Spin Energy          =      -0.7355325527936007 [Eh]
	 Opposite-Spin Energy      =      -2.2670473181103796 [Eh]
	 Correlation Energy        =      -3.0025798709039804 [Eh]
	 Total Energy              =    -670.2594235636659050 [Eh]

	 ================> DF-SCS-MP2 Energies <==================
	-----------------------------------------------------------
	 SCS Same-Spin Scale       =       0.3333333333333333 [-]
	 SCS Opposite-Spin Scale   =       1.2000000000000000 [-]
	 SCS Same-Spin Energy      =      -0.2451775175978669 [Eh]
	 SCS Opposite-Spin Energy  =      -2.7204567817324556 [Eh]
	 SCS Correlation Energy    =      -2.9656342993303224 [Eh]
	 SCS Total Energy          =    -670.2224779920921947 [Eh]
	-----------------------------------------------------------

  Dipole Moment: [D]
     X:     0.2408      Y:    -1.7294      Z:    -0.0417     Total:     1.7466

*** Psi4 exiting successfully. Buy a developer a beer!
