                               Psi4 1.4a3.dev225

  ==> Input File <==

--------------------------------------------------------------------------
#psi4
#
memory 32 gb

molecule  {
0 1
  O       -0.5498120     2.2556960    -0.2996080
  N       -3.0129360     1.7813540     0.8248620
  C        1.0008190     0.4908720    -0.0872200
  C       -1.6269194     0.0639379    -0.1243000
  C       -0.3878030     1.0286420    -0.1846270
  C        3.6793340    -0.3535020     0.1683990
  C       -2.8127890     0.5150010     0.2964470
  C        1.3212360    -0.6095270     0.7211930
  C        2.0273690     1.1786660    -0.7492360
  C        2.6489240    -1.0168440     0.8468500
  C        3.3454510     0.7479200    -0.6334830
  C       -1.3791480    -1.2185740    -0.6492330
  C       -3.8612840    -0.4227650     0.3079770
  C       -2.4390410    -2.1168890    -0.6711390
  C        5.1038640    -0.8322750     0.2664150
  C       -3.6857840    -1.7096250    -0.1856360
  H        0.5383950    -1.1258400     1.2710410
  H        1.7737210     2.0503190    -1.3473030
  H        2.8902070    -1.8603380     1.4919100
  H        4.1335430     1.2826870    -1.1615780
  H       -0.4095800    -1.5185310    -1.0371660
  H       -4.8387790    -0.1097830     0.6721110
  H       -2.3031150    -3.1155080    -1.0770870
  H        5.8059070     0.0022690     0.1830070
  H        5.2850310    -1.3360150     1.2200590
  H        5.3367840    -1.5427250    -0.5345020
  H       -4.5250650    -2.4017370    -0.1822600
  H       -2.3845940     2.4838010     0.4485930
  H       -3.9825350     2.0742830     0.8527820
units angstrom
no_reorient  #important for SAPT in psi4, default
symmetry c1  #important for SAPT in psi4, default
}

set PROPERTIES_ORIGIN ["COM"]
properties('MP2/aug-cc-pvtz', properties = ['dipole'])
--------------------------------------------------------------------------

    Molecular point group: c1
  Charge       = 0
  Multiplicity = 1
  Basis Set: AUG-CC-PVTZ
    Blend: AUG-CC-PVTZ
  Basis Set: (AUG-CC-PVTZ AUX)
    Blend: AUG-CC-PVTZ-JKFIT

    Orbital Energies [Eh]
    ---------------------

    Doubly Occupied:

       1A    -20.541774     2A    -15.555751     3A    -11.343788
       4A    -11.282177     5A    -11.258789     6A    -11.252217
       7A    -11.248490     8A    -11.248248     9A    -11.247136
      10A    -11.246125    11A    -11.240391    12A    -11.239138
      13A    -11.237249    14A    -11.234210    15A    -11.232542
      16A    -11.228646    17A     -1.372019    18A     -1.228092
      19A     -1.166358    20A     -1.138775    21A     -1.068224
      22A     -1.030410    23A     -1.021454    24A     -1.001547
      25A     -0.956400    26A     -0.866790    27A     -0.844527
      28A     -0.839224    29A     -0.812089    30A     -0.764857
      31A     -0.713256    32A     -0.687242    33A     -0.682558
      34A     -0.660406    35A     -0.645974    36A     -0.637148
      37A     -0.620014    38A     -0.603062    39A     -0.598762
      40A     -0.594049    41A     -0.585449    42A     -0.582726
      43A     -0.557025    44A     -0.546510    45A     -0.527009
      46A     -0.520531    47A     -0.515730    48A     -0.509542
      49A     -0.494716    50A     -0.483177    51A     -0.450387
      52A     -0.411424    53A     -0.348137    54A     -0.343497
      55A     -0.335319    56A     -0.304957

  @DF-RHF Final Energy:  -667.26639387035289

   => Energetics <=

    Nuclear Repulsion Energy =            992.7977636658170013
    One-Electron Energy =               -2876.7162286177690476
    Two-Electron Energy =                1216.6520710815991606
    Total Energy =                       -667.2663938703528856
  Basis Set: (AUG-CC-PVTZ AUX)
    Blend: AUG-CC-PVTZ-RI
    Molecular point group: c1

    Geometry (in Angstrom), charge = 0, multiplicity = 1:

       Center              X                  Y                   Z               Mass
    ------------   -----------------  -----------------  -----------------  -----------------
         O           -0.510036389675     2.232922913706    -0.296922762827    15.994914619570
         N           -2.973160389675     1.758580913706     0.827547237173    14.003074004430
         C            1.040594610325     0.468098913706    -0.084534762827    12.000000000000
         C           -1.587143789675     0.041164813706    -0.121614762827    12.000000000000
         C           -0.348027389675     1.005868913706    -0.181941762827    12.000000000000
         C            3.719109610325    -0.376275086294     0.171084237173    12.000000000000
         C           -2.773013389675     0.492227913706     0.299132237173    12.000000000000
         C            1.361011610325    -0.632300086294     0.723878237173    12.000000000000
         C            2.067144610325     1.155892913706    -0.746550762827    12.000000000000
         C            2.688699610325    -1.039617086294     0.849535237173    12.000000000000
         C            3.385226610325     0.725146913706    -0.630797762827    12.000000000000
         C           -1.339372389675    -1.241347086294    -0.646547762827    12.000000000000
         C           -3.821508389675    -0.445538086294     0.310662237173    12.000000000000
         C           -2.399265389675    -2.139662086294    -0.668453762827    12.000000000000
         C            5.143639610325    -0.855048086294     0.269100237173    12.000000000000
         C           -3.646008389675    -1.732398086294    -0.182950762827    12.000000000000
         H            0.578170610325    -1.148613086294     1.273726237173     1.007825032230
         H            1.813496610325     2.027545913706    -1.344617762827     1.007825032230
         H            2.929982610325    -1.883111086294     1.494595237173     1.007825032230
         H            4.173318610325     1.259913913706    -1.158892762827     1.007825032230
         H           -0.369804389675    -1.541304086294    -1.034480762827     1.007825032230
         H           -4.799003389675    -0.132556086294     0.674796237173     1.007825032230
         H           -2.263339389675    -3.138281086294    -1.074401762827     1.007825032230
         H            5.845682610325    -0.020504086294     0.185692237173     1.007825032230
         H            5.324806610325    -1.358788086294     1.222744237173     1.007825032230
         H            5.376559610325    -1.565498086294    -0.531816762827     1.007825032230
         H           -4.485289389675    -2.424510086294    -0.179574762827     1.007825032230
         H           -2.344818389675     2.461027913706     0.451278237173     1.007825032230
         H           -3.942759389675     2.051509913706     0.855467237173     1.007825032230

  Basis Set: AUG-CC-PVTZ
    Blend: AUG-CC-PVTZ
  Basis Set: (AUG-CC-PVTZ AUX)
    Blend: AUG-CC-PVTZ-JKFIT
	 Reference Energy          =    -667.2663938703528856 [Eh]
	 Singles Energy            =      -0.0000000000000000 [Eh]
	 Same-Spin Energy          =      -0.7352246780415117 [Eh]
	 Opposite-Spin Energy      =      -2.2655450479629113 [Eh]
	 Correlation Energy        =      -3.0007697260044228 [Eh]
	 Total Energy              =    -670.2671635963573635 [Eh]

	 ================> DF-SCS-MP2 Energies <==================
	-----------------------------------------------------------
	 SCS Same-Spin Scale       =       0.3333333333333333 [-]
	 SCS Opposite-Spin Scale   =       1.2000000000000000 [-]
	 SCS Same-Spin Energy      =      -0.2450748926805039 [Eh]
	 SCS Opposite-Spin Energy  =      -2.7186540575554936 [Eh]
	 SCS Correlation Energy    =      -2.9637289502359976 [Eh]
	 SCS Total Energy          =    -670.2301228205889174 [Eh]
	-----------------------------------------------------------

  Dipole Moment: [D]
     X:     0.6776      Y:    -1.7720      Z:    -0.1632     Total:     1.9041

*** Psi4 exiting successfully. Buy a developer a beer!
