                               Psi4 1.4a3.dev225

  ==> Input File <==

--------------------------------------------------------------------------
#psi4
#
memory 32 gb

molecule  {
0 1
  O       -0.5498120     2.2556960    -0.2996080
  N       -3.0129360     1.7813540     0.8248620
  C        1.0008190     0.4908720    -0.0872200
  C       -1.5329590     0.0859130    -0.1428360
  C       -0.3878030     1.0286420    -0.1846270
  C        3.6793340    -0.3535020     0.1683990
  C       -2.8127890     0.5150010     0.2964470
  C        1.3212360    -0.6095270     0.7211930
  C        2.0273690     1.1786660    -0.7492360
  C        2.6489240    -1.0168440     0.8468500
  C        3.3454510     0.7479200    -0.6334830
  C       -1.3791480    -1.2185740    -0.6492330
  C       -3.8612840    -0.4227650     0.3079770
  C       -2.4390410    -2.1168890    -0.6711390
  C        5.1038640    -0.8322750     0.2664150
  C       -3.6857840    -1.7096250    -0.1856360
  H        0.5383950    -1.1258400     1.2710410
  H        1.7737210     2.0503190    -1.3473030
  H        2.8902070    -1.8603380     1.4919100
  H        4.1335430     1.2826870    -1.1615780
  H       -0.4095800    -1.5185310    -1.0371660
  H       -4.8387790    -0.1097830     0.6721110
  H       -2.3031150    -3.1155080    -1.0770870
  H        5.8059070     0.0022690     0.1830070
  H        5.2850310    -1.3360150     1.2200590
  H        5.3261547    -1.5103037    -0.4979523
  H       -4.5250650    -2.4017370    -0.1822600
  H       -2.3845940     2.4838010     0.4485930
  H       -3.9825350     2.0742830     0.8527820
units angstrom
no_reorient  #important for SAPT in psi4, default
symmetry c1  #important for SAPT in psi4, default
}

set PROPERTIES_ORIGIN ["COM"]
properties('MP2/aug-cc-pvtz', properties = ['dipole'])
--------------------------------------------------------------------------

    Molecular point group: c1
  Charge       = 0
  Multiplicity = 1
  Basis Set: AUG-CC-PVTZ
    Blend: AUG-CC-PVTZ
  Basis Set: (AUG-CC-PVTZ AUX)
    Blend: AUG-CC-PVTZ-JKFIT

    Orbital Energies [Eh]
    ---------------------

    Doubly Occupied:

       1A    -20.537921     2A    -15.559973     3A    -11.338396
       4A    -11.296847     5A    -11.257032     6A    -11.252680
       7A    -11.252205     8A    -11.250479     9A    -11.246222
      10A    -11.243403    11A    -11.239055    12A    -11.238913
      13A    -11.237634    14A    -11.231917    15A    -11.228255
      16A    -11.227179    17A     -1.370985    18A     -1.226509
      19A     -1.165148    20A     -1.137064    21A     -1.070187
      22A     -1.034912    23A     -1.020499    24A     -0.996536
      25A     -0.957619    26A     -0.877586    27A     -0.838727
      28A     -0.836902    29A     -0.813374    30A     -0.766134
      31A     -0.712732    32A     -0.691916    33A     -0.686185
      34A     -0.661351    35A     -0.645197    36A     -0.636416
      37A     -0.614245    38A     -0.604086    39A     -0.600279
      40A     -0.593302    41A     -0.591312    42A     -0.584178
      43A     -0.555637    44A     -0.544395    45A     -0.531819
      46A     -0.517925    47A     -0.513386    48A     -0.505246
      49A     -0.493362    50A     -0.482512    51A     -0.452245
      52A     -0.418834    53A     -0.349666    54A     -0.342982
      55A     -0.334212    56A     -0.300312

  @DF-RHF Final Energy:  -667.27563649720810

   => Energetics <=

    Nuclear Repulsion Energy =            993.1093607697915786
    One-Electron Energy =               -2877.3419450309484091
    Two-Electron Energy =                1216.9569477639486195
    Total Energy =                       -667.2756364972080974
  Basis Set: (AUG-CC-PVTZ AUX)
    Blend: AUG-CC-PVTZ-RI
    Molecular point group: c1

    Geometry (in Angstrom), charge = 0, multiplicity = 1:

       Center              X                  Y                   Z               Mass
    ------------   -----------------  -----------------  -----------------  -----------------
         O           -0.515326838932     2.231518950659    -0.296043575007    15.994914619570
         N           -2.978450838932     1.757176950659     0.828426424993    14.003074004430
         C            1.035304161068     0.466694950659    -0.083655575007    12.000000000000
         C           -1.498473838932     0.061735950659    -0.139271575007    12.000000000000
         C           -0.353317838932     1.004464950659    -0.181062575007    12.000000000000
         C            3.713819161068    -0.377679049341     0.171963424993    12.000000000000
         C           -2.778303838932     0.490823950659     0.300011424993    12.000000000000
         C            1.355721161068    -0.633704049341     0.724757424993    12.000000000000
         C            2.061854161068     1.154488950659    -0.745671575007    12.000000000000
         C            2.683409161068    -1.041021049341     0.850414424993    12.000000000000
         C            3.379936161068     0.723742950659    -0.629918575007    12.000000000000
         C           -1.344662838932    -1.242751049341    -0.645668575007    12.000000000000
         C           -3.826798838932    -0.446942049341     0.311541424993    12.000000000000
         C           -2.404555838932    -2.141066049341    -0.667574575007    12.000000000000
         C            5.138349161068    -0.856452049341     0.269979424993    12.000000000000
         C           -3.651298838932    -1.733802049341    -0.182071575007    12.000000000000
         H            0.572880161068    -1.150017049341     1.274605424993     1.007825032230
         H            1.808206161068     2.026141950659    -1.343738575007     1.007825032230
         H            2.924692161068    -1.884515049341     1.495474424993     1.007825032230
         H            4.168028161068     1.258509950659    -1.158013575007     1.007825032230
         H           -0.375094838932    -1.542708049341    -1.033601575007     1.007825032230
         H           -4.804293838932    -0.133960049341     0.675675424993     1.007825032230
         H           -2.268629838932    -3.139685049341    -1.073522575007     1.007825032230
         H            5.840392161068    -0.021908049341     0.186571424993     1.007825032230
         H            5.319516161068    -1.360192049341     1.223623424993     1.007825032230
         H            5.360639861068    -1.534480749341    -0.494387875007     1.007825032230
         H           -4.490579838932    -2.425914049341    -0.178695575007     1.007825032230
         H           -2.350108838932     2.459623950659     0.452157424993     1.007825032230
         H           -3.948049838932     2.050105950659     0.856346424993     1.007825032230

  Basis Set: AUG-CC-PVTZ
    Blend: AUG-CC-PVTZ
  Basis Set: (AUG-CC-PVTZ AUX)
    Blend: AUG-CC-PVTZ-JKFIT
	 Reference Energy          =    -667.2756364972080974 [Eh]
	 Singles Energy            =      -0.0000000000000000 [Eh]
	 Same-Spin Energy          =      -0.7355278502759089 [Eh]
	 Opposite-Spin Energy      =      -2.2652418132258152 [Eh]
	 Correlation Energy        =      -3.0007696635017242 [Eh]
	 Total Energy              =    -670.2764061607098256 [Eh]

	 ================> DF-SCS-MP2 Energies <==================
	-----------------------------------------------------------
	 SCS Same-Spin Scale       =       0.3333333333333333 [-]
	 SCS Opposite-Spin Scale   =       1.2000000000000000 [-]
	 SCS Same-Spin Energy      =      -0.2451759500919696 [Eh]
	 SCS Opposite-Spin Energy  =      -2.7182901758709783 [Eh]
	 SCS Correlation Energy    =      -2.9634661259629480 [Eh]
	 SCS Total Energy          =    -670.2391026231709930 [Eh]
	-----------------------------------------------------------

  Dipole Moment: [D]
     X:     0.3688      Y:    -1.8278      Z:    -0.1156     Total:     1.8682

*** Psi4 exiting successfully. Buy a developer a beer!
