                               Psi4 1.4a3.dev225

  ==> Input File <==

--------------------------------------------------------------------------
#psi4
#
memory 32 gb

molecule  {
0 1
  O       -0.5498120     2.2556960    -0.2996080
  N       -3.0129360     1.7813540     0.8248620
  C        1.0008190     0.4908720    -0.0872200
  C       -1.5329590     0.0859130    -0.1428360
  C       -0.3878030     1.0286420    -0.1846270
  C        3.6793340    -0.3535020     0.1683990
  C       -2.8127890     0.5150010     0.2964470
  C        1.3212360    -0.6095270     0.7211930
  C        2.0273690     1.1786660    -0.7492360
  C        2.7960480    -0.9221307     0.7499794
  C        3.3454510     0.7479200    -0.6334830
  C       -1.3791480    -1.2185740    -0.6492330
  C       -3.8612840    -0.4227650     0.3079770
  C       -2.4390410    -2.1168890    -0.6711390
  C        5.1038640    -0.8322750     0.2664150
  C       -3.6857840    -1.7096250    -0.1856360
  H        0.5383950    -1.1258400     1.2710410
  H        1.7737210     2.0503190    -1.3473030
  H        2.8902070    -1.8603380     1.4919100
  H        4.1335430     1.2826870    -1.1615780
  H       -0.4095800    -1.5185310    -1.0371660
  H       -4.8387790    -0.1097830     0.6721110
  H       -2.3031150    -3.1155080    -1.0770870
  H        5.8059070     0.0022690     0.1830070
  H        5.2850310    -1.3360150     1.2200590
  H        5.3367840    -1.5427250    -0.5345020
  H       -4.5250650    -2.4017370    -0.1822600
  H       -2.3845940     2.4838010     0.4485930
  H       -3.9825350     2.0742830     0.8527820
units angstrom
no_reorient  #important for SAPT in psi4, default
symmetry c1  #important for SAPT in psi4, default
}

set PROPERTIES_ORIGIN ["COM"]
properties('MP2/aug-cc-pvtz', properties = ['dipole'])
--------------------------------------------------------------------------

    Molecular point group: c1
  Charge       = 0
  Multiplicity = 1
  Basis Set: AUG-CC-PVTZ
    Blend: AUG-CC-PVTZ
  Basis Set: (AUG-CC-PVTZ AUX)
    Blend: AUG-CC-PVTZ-JKFIT

    Orbital Energies [Eh]
    ---------------------

    Doubly Occupied:

       1A    -20.540782     2A    -15.561363     3A    -11.339947
       4A    -11.298375     5A    -11.262801     6A    -11.254033
       7A    -11.253507     8A    -11.247246     9A    -11.241944
      10A    -11.240806    11A    -11.239802    12A    -11.234517
      13A    -11.233228    14A    -11.229738    15A    -11.229485
      16A    -11.225185    17A     -1.373511    18A     -1.227949
      19A     -1.182860    20A     -1.139307    21A     -1.084353
      22A     -1.038421    23A     -1.006046    24A     -0.997585
      25A     -0.954987    26A     -0.881736    27A     -0.856677
      28A     -0.837084    29A     -0.809116    30A     -0.757747
      31A     -0.712423    32A     -0.692928    33A     -0.687156
      34A     -0.666440    35A     -0.644983    36A     -0.636730
      37A     -0.615202    38A     -0.606399    39A     -0.603318
      40A     -0.588936    41A     -0.586878    42A     -0.578150
      43A     -0.556596    44A     -0.539326    45A     -0.532125
      46A     -0.524062    47A     -0.516033    48A     -0.507833
      49A     -0.488272    50A     -0.466470    51A     -0.453556
      52A     -0.417053    53A     -0.364554    54A     -0.350370
      55A     -0.329309    56A     -0.301635

  @DF-RHF Final Energy:  -667.21500147474080

   => Energetics <=

    Nuclear Repulsion Energy =            994.6559060932968350
    One-Electron Energy =               -2880.2480631547223311
    Two-Electron Energy =                1218.3771555866846938
    Total Energy =                       -667.2150014747408022
  Basis Set: (AUG-CC-PVTZ AUX)
    Blend: AUG-CC-PVTZ-RI
    Molecular point group: c1

    Geometry (in Angstrom), charge = 0, multiplicity = 1:

       Center              X                  Y                   Z               Mass
    ------------   -----------------  -----------------  -----------------  -----------------
         O           -0.523740874369     2.226289741291    -0.290362454556    15.994914619570
         N           -2.986864874369     1.751947741291     0.834107545444    14.003074004430
         C            1.026890125631     0.461465741291    -0.077974454556    12.000000000000
         C           -1.506887874369     0.056506741291    -0.133590454556    12.000000000000
         C           -0.361731874369     0.999235741291    -0.175381454556    12.000000000000
         C            3.705405125631    -0.382908258709     0.177644545444    12.000000000000
         C           -2.786717874369     0.485594741291     0.305692545444    12.000000000000
         C            1.347307125631    -0.638933258709     0.730438545444    12.000000000000
         C            2.053440125631     1.149259741291    -0.739990454556    12.000000000000
         C            2.822119125631    -0.951536958709     0.759224945444    12.000000000000
         C            3.371522125631     0.718513741291    -0.624237454556    12.000000000000
         C           -1.353076874369    -1.247980258709    -0.639987454556    12.000000000000
         C           -3.835212874369    -0.452171258709     0.317222545444    12.000000000000
         C           -2.412969874369    -2.146295258709    -0.661893454556    12.000000000000
         C            5.129935125631    -0.861681258709     0.275660545444    12.000000000000
         C           -3.659712874369    -1.739031258709    -0.176390454556    12.000000000000
         H            0.564466125631    -1.155246258709     1.280286545444     1.007825032230
         H            1.799792125631     2.020912741291    -1.338057454556     1.007825032230
         H            2.916278125631    -1.889744258709     1.501155545444     1.007825032230
         H            4.159614125631     1.253280741291    -1.152332454556     1.007825032230
         H           -0.383508874369    -1.547937258709    -1.027920454556     1.007825032230
         H           -4.812707874369    -0.139189258709     0.681356545444     1.007825032230
         H           -2.277043874369    -3.144914258709    -1.067841454556     1.007825032230
         H            5.831978125631    -0.027137258709     0.192252545444     1.007825032230
         H            5.311102125631    -1.365421258709     1.229304545444     1.007825032230
         H            5.362855125631    -1.572131258709    -0.525256454556     1.007825032230
         H           -4.498993874369    -2.431143258709    -0.173014454556     1.007825032230
         H           -2.358522874369     2.454394741291     0.457838545444     1.007825032230
         H           -3.956463874369     2.044876741291     0.862027545444     1.007825032230

  Basis Set: AUG-CC-PVTZ
    Blend: AUG-CC-PVTZ
  Basis Set: (AUG-CC-PVTZ AUX)
    Blend: AUG-CC-PVTZ-JKFIT
	 Reference Energy          =    -667.2150014747408022 [Eh]
	 Singles Energy            =      -0.0000000000000000 [Eh]
	 Same-Spin Energy          =      -0.7350213060319315 [Eh]
	 Opposite-Spin Energy      =      -2.2674001507429593 [Eh]
	 Correlation Energy        =      -3.0024214567748908 [Eh]
	 Total Energy              =    -670.2174229315156708 [Eh]

	 ================> DF-SCS-MP2 Energies <==================
	-----------------------------------------------------------
	 SCS Same-Spin Scale       =       0.3333333333333333 [-]
	 SCS Opposite-Spin Scale   =       1.2000000000000000 [-]
	 SCS Same-Spin Energy      =      -0.2450071020106438 [Eh]
	 SCS Opposite-Spin Energy  =      -2.7208801808915513 [Eh]
	 SCS Correlation Energy    =      -2.9658872829021949 [Eh]
	 SCS Total Energy          =    -670.1808887576429470 [Eh]
	-----------------------------------------------------------

  Dipole Moment: [D]
     X:     0.0975      Y:    -1.7140      Z:    -0.1589     Total:     1.7241

*** Psi4 exiting successfully. Buy a developer a beer!
