                               Psi4 1.4a3.dev225

  ==> Input File <==

--------------------------------------------------------------------------
#psi4
#
memory 32 gb

molecule  {
0 1
  O       -0.5498120     2.2556960    -0.2996080
  N       -3.0129360     1.7813540     0.8248620
  C        1.0008190     0.4908720    -0.0872200
  C       -1.5329590     0.0859130    -0.1428360
  C       -0.3878030     1.0286420    -0.1846270
  C        3.6793340    -0.3535020     0.1683990
  C       -2.8127890     0.5150010     0.2964470
  C        1.3212360    -0.6095270     0.7211930
  C        2.0273690     1.1786660    -0.7492360
  C        2.6489240    -1.0168440     0.8468500
  C        3.3134233     0.6762268    -0.5763194
  C       -1.3791480    -1.2185740    -0.6492330
  C       -3.8612840    -0.4227650     0.3079770
  C       -2.4390410    -2.1168890    -0.6711390
  C        5.1038640    -0.8322750     0.2664150
  C       -3.6857840    -1.7096250    -0.1856360
  H        0.5383950    -1.1258400     1.2710410
  H        1.7737210     2.0503190    -1.3473030
  H        2.8902070    -1.8603380     1.4919100
  H        4.1335430     1.2826870    -1.1615780
  H       -0.4095800    -1.5185310    -1.0371660
  H       -4.8387790    -0.1097830     0.6721110
  H       -2.3031150    -3.1155080    -1.0770870
  H        5.8059070     0.0022690     0.1830070
  H        5.2850310    -1.3360150     1.2200590
  H        5.3367840    -1.5427250    -0.5345020
  H       -4.5250650    -2.4017370    -0.1822600
  H       -2.3845940     2.4838010     0.4485930
  H       -3.9825350     2.0742830     0.8527820
units angstrom
no_reorient  #important for SAPT in psi4, default
symmetry c1  #important for SAPT in psi4, default
}

set PROPERTIES_ORIGIN ["COM"]
properties('MP2/aug-cc-pvtz', properties = ['dipole'])
--------------------------------------------------------------------------

    Molecular point group: c1
  Charge       = 0
  Multiplicity = 1
  Basis Set: AUG-CC-PVTZ
    Blend: AUG-CC-PVTZ
  Basis Set: (AUG-CC-PVTZ AUX)
    Blend: AUG-CC-PVTZ-JKFIT

    Orbital Energies [Eh]
    ---------------------

    Doubly Occupied:

       1A    -20.539245     2A    -15.560433     3A    -11.338892
       4A    -11.297262     5A    -11.253053     6A    -11.252673
       7A    -11.248166     8A    -11.247262     9A    -11.246740
      10A    -11.244269    11A    -11.240045    12A    -11.239396
      13A    -11.236456    14A    -11.233451    15A    -11.232266
      16A    -11.228626    17A     -1.372089    18A     -1.226958
      19A     -1.174415    20A     -1.137854    21A     -1.074563
      22A     -1.035413    23A     -1.018785    24A     -0.996904
      25A     -0.956355    26A     -0.880779    27A     -0.842459
      28A     -0.834190    29A     -0.816460    30A     -0.763161
      31A     -0.712067    32A     -0.692873    33A     -0.686398
      34A     -0.662571    35A     -0.649228    36A     -0.632423
      37A     -0.614858    38A     -0.603742    39A     -0.599352
      40A     -0.588470    41A     -0.586114    42A     -0.582236
      43A     -0.555990    44A     -0.541696    45A     -0.533592
      46A     -0.519119    47A     -0.516991    48A     -0.508082
      49A     -0.487888    50A     -0.479805    51A     -0.452588
      52A     -0.418542    53A     -0.350893    54A     -0.345855
      55A     -0.337002    56A     -0.300786

  @DF-RHF Final Energy:  -667.26447029765495

   => Energetics <=

    Nuclear Repulsion Energy =            994.6350261334160905
    One-Electron Energy =               -2880.3434291681783179
    Two-Electron Energy =                1218.4439327371073887
    Total Energy =                       -667.2644702976549524
  Basis Set: (AUG-CC-PVTZ AUX)
    Blend: AUG-CC-PVTZ-RI
    Molecular point group: c1

    Geometry (in Angstrom), charge = 0, multiplicity = 1:

       Center              X                  Y                   Z               Mass
    ------------   -----------------  -----------------  -----------------  -----------------
         O           -0.513556964790     2.235749147757    -0.299118555475    15.994914619570
         N           -2.976680964790     1.761407147757     0.825351444525    14.003074004430
         C            1.037074035210     0.470925147757    -0.086730555475    12.000000000000
         C           -1.496703964790     0.065966147757    -0.142346555475    12.000000000000
         C           -0.351547964790     1.008695147757    -0.184137555475    12.000000000000
         C            3.715589035210    -0.373448852243     0.168888444525    12.000000000000
         C           -2.776533964790     0.495054147757     0.296936444525    12.000000000000
         C            1.357491035210    -0.629473852243     0.721682444525    12.000000000000
         C            2.063624035210     1.158719147757    -0.748746555475    12.000000000000
         C            2.685179035210    -1.036790852243     0.847339444525    12.000000000000
         C            3.349678335210     0.656279947757    -0.575829955475    12.000000000000
         C           -1.342892964790    -1.238520852243    -0.648743555475    12.000000000000
         C           -3.825028964790    -0.442711852243     0.308466444525    12.000000000000
         C           -2.402785964790    -2.136835852243    -0.670649555475    12.000000000000
         C            5.140119035210    -0.852221852243     0.266904444525    12.000000000000
         C           -3.649528964790    -1.729571852243    -0.185146555475    12.000000000000
         H            0.574650035210    -1.145786852243     1.271530444525     1.007825032230
         H            1.809976035210     2.030372147757    -1.346813555475     1.007825032230
         H            2.926462035210    -1.880284852243     1.492399444525     1.007825032230
         H            4.169798035210     1.262740147757    -1.161088555475     1.007825032230
         H           -0.373324964790    -1.538477852243    -1.036676555475     1.007825032230
         H           -4.802523964790    -0.129729852243     0.672600444525     1.007825032230
         H           -2.266859964790    -3.135454852243    -1.076597555475     1.007825032230
         H            5.842162035210    -0.017677852243     0.183496444525     1.007825032230
         H            5.321286035210    -1.355961852243     1.220548444525     1.007825032230
         H            5.373039035210    -1.562671852243    -0.534012555475     1.007825032230
         H           -4.488809964790    -2.421683852243    -0.181770555475     1.007825032230
         H           -2.348338964790     2.463854147757     0.449082444525     1.007825032230
         H           -3.946279964790     2.054336147757     0.853271444525     1.007825032230

  Basis Set: AUG-CC-PVTZ
    Blend: AUG-CC-PVTZ
  Basis Set: (AUG-CC-PVTZ AUX)
    Blend: AUG-CC-PVTZ-JKFIT
	 Reference Energy          =    -667.2644702976549524 [Eh]
	 Singles Energy            =      -0.0000000000000000 [Eh]
	 Same-Spin Energy          =      -0.7359227382488769 [Eh]
	 Opposite-Spin Energy      =      -2.2660732724637844 [Eh]
	 Correlation Energy        =      -3.0019960107126611 [Eh]
	 Total Energy              =    -670.2664663083676260 [Eh]

	 ================> DF-SCS-MP2 Energies <==================
	-----------------------------------------------------------
	 SCS Same-Spin Scale       =       0.3333333333333333 [-]
	 SCS Opposite-Spin Scale   =       1.2000000000000000 [-]
	 SCS Same-Spin Energy      =      -0.2453075794162923 [Eh]
	 SCS Opposite-Spin Energy  =      -2.7192879269565413 [Eh]
	 SCS Correlation Energy    =      -2.9645955063728335 [Eh]
	 SCS Total Energy          =    -670.2290658040277549 [Eh]
	-----------------------------------------------------------

  Dipole Moment: [D]
     X:     0.2521      Y:    -1.8362      Z:    -0.0717     Total:     1.8548

*** Psi4 exiting successfully. Buy a developer a beer!
