                               Psi4 1.4a3.dev225

  ==> Input File <==

--------------------------------------------------------------------------
#psi4
#
memory 32 gb

molecule  {
0 1
  O       -0.5498120     2.2556960    -0.2996080
  N       -3.0129360     1.7813540     0.8248620
  C        1.0008190     0.4908720    -0.0872200
  C       -1.5329590     0.0859130    -0.1428360
  C       -0.3878030     1.0286420    -0.1846270
  C        3.6793340    -0.3535020     0.1683990
  C       -2.8127890     0.5150010     0.2964470
  C        1.3098131    -0.5702978     0.6923731
  C        2.0273690     1.1786660    -0.7492360
  C        2.6489240    -1.0168440     0.8468500
  C        3.3454510     0.7479200    -0.6334830
  C       -1.3791480    -1.2185740    -0.6492330
  C       -3.8612840    -0.4227650     0.3079770
  C       -2.4390410    -2.1168890    -0.6711390
  C        5.1038640    -0.8322750     0.2664150
  C       -3.6857840    -1.7096250    -0.1856360
  H        0.5383950    -1.1258400     1.2710410
  H        1.7737210     2.0503190    -1.3473030
  H        2.8902070    -1.8603380     1.4919100
  H        4.1335430     1.2826870    -1.1615780
  H       -0.4095800    -1.5185310    -1.0371660
  H       -4.8387790    -0.1097830     0.6721110
  H       -2.3031150    -3.1155080    -1.0770870
  H        5.8059070     0.0022690     0.1830070
  H        5.2850310    -1.3360150     1.2200590
  H        5.3367840    -1.5427250    -0.5345020
  H       -4.5250650    -2.4017370    -0.1822600
  H       -2.3845940     2.4838010     0.4485930
  H       -3.9825350     2.0742830     0.8527820
units angstrom
no_reorient  #important for SAPT in psi4, default
symmetry c1  #important for SAPT in psi4, default
}

set PROPERTIES_ORIGIN ["COM"]
properties('MP2/aug-cc-pvtz', properties = ['dipole'])
--------------------------------------------------------------------------

    Molecular point group: c1
  Charge       = 0
  Multiplicity = 1
  Basis Set: AUG-CC-PVTZ
    Blend: AUG-CC-PVTZ
  Basis Set: (AUG-CC-PVTZ AUX)
    Blend: AUG-CC-PVTZ-JKFIT

    Orbital Energies [Eh]
    ---------------------

    Doubly Occupied:

       1A    -20.538968     2A    -15.560226     3A    -11.339031
       4A    -11.297071     5A    -11.256364     6A    -11.252845
       7A    -11.252421     8A    -11.249673     9A    -11.245822
      10A    -11.240681    11A    -11.239269    12A    -11.239129
      13A    -11.237494    14A    -11.232688    15A    -11.232036
      16A    -11.228355    17A     -1.371932    18A     -1.226748
      19A     -1.168024    20A     -1.137202    21A     -1.073429
      22A     -1.035030    23A     -1.016858    24A     -0.996649
      25A     -0.954840    26A     -0.877277    27A     -0.840328
      28A     -0.835803    29A     -0.812964    30A     -0.767129
      31A     -0.713183    32A     -0.691839    33A     -0.686445
      34A     -0.661133    35A     -0.645808    36A     -0.633313
      37A     -0.615022    38A     -0.604703    39A     -0.601582
      40A     -0.588140    41A     -0.585382    42A     -0.583549
      43A     -0.556272    44A     -0.545100    45A     -0.532332
      46A     -0.518465    47A     -0.511735    48A     -0.504749
      49A     -0.494226    50A     -0.482894    51A     -0.452238
      52A     -0.419051    53A     -0.349586    54A     -0.343354
      55A     -0.335327    56A     -0.300574

  @DF-RHF Final Energy:  -667.27390770628460

   => Energetics <=

    Nuclear Repulsion Energy =            993.6343710920647254
    One-Electron Energy =               -2878.3919783104724957
    Two-Electron Energy =                1217.4836995121231666
    Total Energy =                       -667.2739077062847173
  Basis Set: (AUG-CC-PVTZ AUX)
    Blend: AUG-CC-PVTZ-RI
    Molecular point group: c1

    Geometry (in Angstrom), charge = 0, multiplicity = 1:

       Center              X                  Y                   Z               Mass
    ------------   -----------------  -----------------  -----------------  -----------------
         O           -0.514728248233     2.229443744616    -0.294230808446    15.994914619570
         N           -2.977852248233     1.755101744616     0.830239191554    14.003074004430
         C            1.035902751767     0.464619744616    -0.081842808446    12.000000000000
         C           -1.497875248233     0.059660744616    -0.137458808446    12.000000000000
         C           -0.352719248233     1.002389744616    -0.179249808446    12.000000000000
         C            3.714417751767    -0.379754255384     0.173776191554    12.000000000000
         C           -2.777705248233     0.488748744616     0.301824191554    12.000000000000
         C            1.344896851767    -0.596550055384     0.697750291554    12.000000000000
         C            2.062452751767     1.152413744616    -0.743858808446    12.000000000000
         C            2.684007751767    -1.043096255384     0.852227191554    12.000000000000
         C            3.380534751767     0.721667744616    -0.628105808446    12.000000000000
         C           -1.344064248233    -1.244826255384    -0.643855808446    12.000000000000
         C           -3.826200248233    -0.449017255384     0.313354191554    12.000000000000
         C           -2.403957248233    -2.143141255384    -0.665761808446    12.000000000000
         C            5.138947751767    -0.858527255384     0.271792191554    12.000000000000
         C           -3.650700248233    -1.735877255384    -0.180258808446    12.000000000000
         H            0.573478751767    -1.152092255384     1.276418191554     1.007825032230
         H            1.808804751767     2.024066744616    -1.341925808446     1.007825032230
         H            2.925290751767    -1.886590255384     1.497287191554     1.007825032230
         H            4.168626751767     1.256434744616    -1.156200808446     1.007825032230
         H           -0.374496248233    -1.544783255384    -1.031788808446     1.007825032230
         H           -4.803695248233    -0.136035255384     0.677488191554     1.007825032230
         H           -2.268031248233    -3.141760255384    -1.071709808446     1.007825032230
         H            5.840990751767    -0.023983255384     0.188384191554     1.007825032230
         H            5.320114751767    -1.362267255384     1.225436191554     1.007825032230
         H            5.371867751767    -1.568977255384    -0.529124808446     1.007825032230
         H           -4.489981248233    -2.427989255384    -0.176882808446     1.007825032230
         H           -2.349510248233     2.457548744616     0.453970191554     1.007825032230
         H           -3.947451248233     2.048030744616     0.858159191554     1.007825032230

  Basis Set: AUG-CC-PVTZ
    Blend: AUG-CC-PVTZ
  Basis Set: (AUG-CC-PVTZ AUX)
    Blend: AUG-CC-PVTZ-JKFIT
	 Reference Energy          =    -667.2739077062846036 [Eh]
	 Singles Energy            =      -0.0000000000000000 [Eh]
	 Same-Spin Energy          =      -0.7353913797027533 [Eh]
	 Opposite-Spin Energy      =      -2.2654456957233551 [Eh]
	 Correlation Energy        =      -3.0008370754261082 [Eh]
	 Total Energy              =    -670.2747447817107513 [Eh]

	 ================> DF-SCS-MP2 Energies <==================
	-----------------------------------------------------------
	 SCS Same-Spin Scale       =       0.3333333333333333 [-]
	 SCS Opposite-Spin Scale   =       1.2000000000000000 [-]
	 SCS Same-Spin Energy      =      -0.2451304599009178 [Eh]
	 SCS Opposite-Spin Energy  =      -2.7185348348680258 [Eh]
	 SCS Correlation Energy    =      -2.9636652947689437 [Eh]
	 SCS Total Energy          =    -670.2375730010535335 [Eh]
	-----------------------------------------------------------

  Dipole Moment: [D]
     X:     0.3251      Y:    -1.8166      Z:    -0.1010     Total:     1.8482

*** Psi4 exiting successfully. Buy a developer a beer!
