                               Psi4 1.4a3.dev225

  ==> Input File <==

--------------------------------------------------------------------------
#psi4
#
memory 32 gb

molecule  {
0 1
  O       -0.5498120     2.2556960    -0.2996080
  N       -3.0129360     1.7813540     0.8248620
  C        1.0008190     0.4908720    -0.0872200
  C       -1.5329590     0.0859130    -0.1428360
  C       -0.3878030     1.0286420    -0.1846270
  C        3.6793340    -0.3535020     0.1683990
  C       -2.8127890     0.5150010     0.2964470
  C        1.3212360    -0.6095270     0.7211930
  C        2.0273690     1.1786660    -0.7492360
  C        2.6489240    -1.0168440     0.8468500
  C        3.3454510     0.7479200    -0.6334830
  C       -1.3936363    -1.2020574    -0.6389647
  C       -3.8612840    -0.4227650     0.3079770
  C       -2.4390410    -2.1168890    -0.6711390
  C        5.1038640    -0.8322750     0.2664150
  C       -3.6857840    -1.7096250    -0.1856360
  H        0.5383950    -1.1258400     1.2710410
  H        1.7737210     2.0503190    -1.3473030
  H        2.8902070    -1.8603380     1.4919100
  H        4.1335430     1.2826870    -1.1615780
  H       -0.4095800    -1.5185310    -1.0371660
  H       -4.8387790    -0.1097830     0.6721110
  H       -2.3031150    -3.1155080    -1.0770870
  H        5.8059070     0.0022690     0.1830070
  H        5.2850310    -1.3360150     1.2200590
  H        5.3367840    -1.5427250    -0.5345020
  H       -4.5250650    -2.4017370    -0.1822600
  H       -2.3845940     2.4838010     0.4485930
  H       -3.9825350     2.0742830     0.8527820
units angstrom
no_reorient  #important for SAPT in psi4, default
symmetry c1  #important for SAPT in psi4, default
}

set PROPERTIES_ORIGIN ["COM"]
properties('MP2/aug-cc-pvtz', properties = ['dipole'])
--------------------------------------------------------------------------

    Molecular point group: c1
  Charge       = 0
  Multiplicity = 1
  Basis Set: AUG-CC-PVTZ
    Blend: AUG-CC-PVTZ
  Basis Set: (AUG-CC-PVTZ AUX)
    Blend: AUG-CC-PVTZ-JKFIT

    Orbital Energies [Eh]
    ---------------------

    Doubly Occupied:

       1A    -20.538877     2A    -15.560032     3A    -11.339291
       4A    -11.296750     5A    -11.257452     6A    -11.252158
       7A    -11.251700     8A    -11.250748     9A    -11.246488
      10A    -11.243741    11A    -11.239172    12A    -11.237889
      13A    -11.237743    14A    -11.233297    15A    -11.230863
      16A    -11.227549    17A     -1.371826    18A     -1.226885
      19A     -1.165387    20A     -1.138860    21A     -1.069904
      22A     -1.036012    23A     -1.020872    24A     -0.995639
      25A     -0.954929    26A     -0.876703    27A     -0.838656
      28A     -0.835575    29A     -0.813993    30A     -0.767135
      31A     -0.712623    32A     -0.690548    33A     -0.687104
      34A     -0.661381    35A     -0.645342    36A     -0.637036
      37A     -0.614115    38A     -0.601938    39A     -0.598570
      40A     -0.592688    41A     -0.585676    42A     -0.583976
      43A     -0.556222    44A     -0.544936    45A     -0.533325
      46A     -0.518476    47A     -0.511532    48A     -0.503916
      49A     -0.493607    50A     -0.482152    51A     -0.452792
      52A     -0.419569    53A     -0.351425    54A     -0.343454
      55A     -0.334029    56A     -0.299646

  @DF-RHF Final Energy:  -667.27611965344670

   => Energetics <=

    Nuclear Repulsion Energy =            993.2597050901641751
    One-Electron Energy =               -2877.6472413434048576
    Two-Electron Energy =                1217.1114165997942109
    Total Energy =                       -667.2761196534465853
  Basis Set: (AUG-CC-PVTZ AUX)
    Blend: AUG-CC-PVTZ-RI
    Molecular point group: c1

    Geometry (in Angstrom), charge = 0, multiplicity = 1:

       Center              X                  Y                   Z               Mass
    ------------   -----------------  -----------------  -----------------  -----------------
         O           -0.514553995037     2.230734846318    -0.296452783981    15.994914619570
         N           -2.977677995037     1.756392846318     0.828017216019    14.003074004430
         C            1.036077004963     0.465910846318    -0.084064783981    12.000000000000
         C           -1.497700995037     0.060951846318    -0.139680783981    12.000000000000
         C           -0.352544995037     1.003680846318    -0.181471783981    12.000000000000
         C            3.714592004963    -0.378463153682     0.171554216019    12.000000000000
         C           -2.777530995037     0.490039846318     0.299602216019    12.000000000000
         C            1.356494004963    -0.634488153682     0.724348216019    12.000000000000
         C            2.062627004963     1.153704846318    -0.746080783981    12.000000000000
         C            2.684182004963    -1.041805153682     0.850005216019    12.000000000000
         C            3.380709004963     0.722958846318    -0.630327783981    12.000000000000
         C           -1.358378295037    -1.227018553682    -0.635809483981    12.000000000000
         C           -3.826025995037    -0.447726153682     0.311132216019    12.000000000000
         C           -2.403782995037    -2.141850153682    -0.667983783981    12.000000000000
         C            5.139122004963    -0.857236153682     0.269570216019    12.000000000000
         C           -3.650525995037    -1.734586153682    -0.182480783981    12.000000000000
         H            0.573653004963    -1.150801153682     1.274196216019     1.007825032230
         H            1.808979004963     2.025357846318    -1.344147783981     1.007825032230
         H            2.925465004963    -1.885299153682     1.495065216019     1.007825032230
         H            4.168801004963     1.257725846318    -1.158422783981     1.007825032230
         H           -0.374321995037    -1.543492153682    -1.034010783981     1.007825032230
         H           -4.803520995037    -0.134744153682     0.675266216019     1.007825032230
         H           -2.267856995037    -3.140469153682    -1.073931783981     1.007825032230
         H            5.841165004963    -0.022692153682     0.186162216019     1.007825032230
         H            5.320289004963    -1.360976153682     1.223214216019     1.007825032230
         H            5.372042004963    -1.567686153682    -0.531346783981     1.007825032230
         H           -4.489806995037    -2.426698153682    -0.179104783981     1.007825032230
         H           -2.349335995037     2.458839846318     0.451748216019     1.007825032230
         H           -3.947276995037     2.049321846318     0.855937216019     1.007825032230

  Basis Set: AUG-CC-PVTZ
    Blend: AUG-CC-PVTZ
  Basis Set: (AUG-CC-PVTZ AUX)
    Blend: AUG-CC-PVTZ-JKFIT
	 Reference Energy          =    -667.2761196534466990 [Eh]
	 Singles Energy            =      -0.0000000000000000 [Eh]
	 Same-Spin Energy          =      -0.7355133006175252 [Eh]
	 Opposite-Spin Energy      =      -2.2654251069740372 [Eh]
	 Correlation Energy        =      -3.0009384075915624 [Eh]
	 Total Energy              =    -670.2770580610382467 [Eh]

	 ================> DF-SCS-MP2 Energies <==================
	-----------------------------------------------------------
	 SCS Same-Spin Scale       =       0.3333333333333333 [-]
	 SCS Opposite-Spin Scale   =       1.2000000000000000 [-]
	 SCS Same-Spin Energy      =      -0.2451711002058417 [Eh]
	 SCS Opposite-Spin Energy  =      -2.7185101283688446 [Eh]
	 SCS Correlation Energy    =      -2.9636812285746865 [Eh]
	 SCS Total Energy          =    -670.2398008820214272 [Eh]
	-----------------------------------------------------------

  Dipole Moment: [D]
     X:     0.3802      Y:    -1.7984      Z:    -0.1061     Total:     1.8412

*** Psi4 exiting successfully. Buy a developer a beer!
