                               Psi4 1.4a3.dev225

  ==> Input File <==

--------------------------------------------------------------------------
#psi4
#
memory 32 gb

molecule  {
0 1
  O       -0.5498120     2.2556960    -0.2996080
  N       -3.0129360     1.7813540     0.8248620
  C        1.0008190     0.4908720    -0.0872200
  C       -1.5329590     0.0859130    -0.1428360
  C       -0.3878030     1.0286420    -0.1846270
  C        3.6793340    -0.3535020     0.1683990
  C       -2.8127890     0.5150010     0.2964470
  C        1.3212360    -0.6095270     0.7211930
  C        2.0273690     1.1786660    -0.7492360
  C        2.6342116    -1.0263153     0.8565371
  C        3.3454510     0.7479200    -0.6334830
  C       -1.3791480    -1.2185740    -0.6492330
  C       -3.8612840    -0.4227650     0.3079770
  C       -2.4390410    -2.1168890    -0.6711390
  C        5.1038640    -0.8322750     0.2664150
  C       -3.6857840    -1.7096250    -0.1856360
  H        0.5383950    -1.1258400     1.2710410
  H        1.7737210     2.0503190    -1.3473030
  H        2.8902070    -1.8603380     1.4919100
  H        4.1335430     1.2826870    -1.1615780
  H       -0.4095800    -1.5185310    -1.0371660
  H       -4.8387790    -0.1097830     0.6721110
  H       -2.3031150    -3.1155080    -1.0770870
  H        5.8059070     0.0022690     0.1830070
  H        5.2850310    -1.3360150     1.2200590
  H        5.3367840    -1.5427250    -0.5345020
  H       -4.5250650    -2.4017370    -0.1822600
  H       -2.3845940     2.4838010     0.4485930
  H       -3.9825350     2.0742830     0.8527820
units angstrom
no_reorient  #important for SAPT in psi4, default
symmetry c1  #important for SAPT in psi4, default
}

set PROPERTIES_ORIGIN ["COM"]
properties('MP2/aug-cc-pvtz', properties = ['dipole'])
--------------------------------------------------------------------------

    Molecular point group: c1
  Charge       = 0
  Multiplicity = 1
  Basis Set: AUG-CC-PVTZ
    Blend: AUG-CC-PVTZ
  Basis Set: (AUG-CC-PVTZ AUX)
    Blend: AUG-CC-PVTZ-JKFIT

    Orbital Energies [Eh]
    ---------------------

    Doubly Occupied:

       1A    -20.537705     2A    -15.559870     3A    -11.338313
       4A    -11.296728     5A    -11.259848     6A    -11.252574
       7A    -11.252111     8A    -11.249292     9A    -11.246844
      10A    -11.243251    11A    -11.239305    12A    -11.238920
      13A    -11.237661    14A    -11.233640    15A    -11.231815
      16A    -11.228161    17A     -1.370806    18A     -1.226400
      19A     -1.164244    20A     -1.136878    21A     -1.068497
      22A     -1.034193    23A     -1.022227    24A     -0.996406
      25A     -0.954700    26A     -0.876654    27A     -0.838464
      28A     -0.835013    29A     -0.813358    30A     -0.766676
      31A     -0.712704    32A     -0.691723    33A     -0.686109
      34A     -0.660926    35A     -0.645788    36A     -0.636088
      37A     -0.614209    38A     -0.603532    39A     -0.599744
      40A     -0.594083    41A     -0.584666    42A     -0.583652
      43A     -0.555935    44A     -0.545141    45A     -0.531831
      46A     -0.517853    47A     -0.513512    48A     -0.505247
      49A     -0.492043    50A     -0.481642    51A     -0.452115
      52A     -0.418860    53A     -0.349964    54A     -0.344325
      55A     -0.331758    56A     -0.300196

  @DF-RHF Final Energy:  -667.27607675791717

   => Energetics <=

    Nuclear Repulsion Energy =            992.7411773960881192
    One-Electron Energy =               -2876.6261112196070826
    Two-Electron Energy =                1216.6088570656017964
    Total Energy =                       -667.2760767579172807
  Basis Set: (AUG-CC-PVTZ AUX)
    Blend: AUG-CC-PVTZ-RI
    Molecular point group: c1

    Geometry (in Angstrom), charge = 0, multiplicity = 1:

       Center              X                  Y                   Z               Mass
    ------------   -----------------  -----------------  -----------------  -----------------
         O           -0.514541256033     2.232212133018    -0.296419745566    15.994914619570
         N           -2.977665256033     1.757870133018     0.828050254434    14.003074004430
         C            1.036089743967     0.467388133018    -0.084031745566    12.000000000000
         C           -1.497688256033     0.062429133018    -0.139647745566    12.000000000000
         C           -0.352532256033     1.005158133018    -0.181438745566    12.000000000000
         C            3.714604743967    -0.376985866982     0.171587254434    12.000000000000
         C           -2.777518256033     0.491517133018     0.299635254434    12.000000000000
         C            1.356506743967    -0.633010866982     0.724381254434    12.000000000000
         C            2.062639743967     1.155182133018    -0.746047745566    12.000000000000
         C            2.669482343967    -1.049799166982     0.859725354434    12.000000000000
         C            3.380721743967     0.724436133018    -0.630294745566    12.000000000000
         C           -1.343877256033    -1.242057866982    -0.646044745566    12.000000000000
         C           -3.826013256033    -0.446248866982     0.311165254434    12.000000000000
         C           -2.403770256033    -2.140372866982    -0.667950745566    12.000000000000
         C            5.139134743967    -0.855758866982     0.269603254434    12.000000000000
         C           -3.650513256033    -1.733108866982    -0.182447745566    12.000000000000
         H            0.573665743967    -1.149323866982     1.274229254434     1.007825032230
         H            1.808991743967     2.026835133018    -1.344114745566     1.007825032230
         H            2.925477743967    -1.883821866982     1.495098254434     1.007825032230
         H            4.168813743967     1.259203133018    -1.158389745566     1.007825032230
         H           -0.374309256033    -1.542014866982    -1.033977745566     1.007825032230
         H           -4.803508256033    -0.133266866982     0.675299254434     1.007825032230
         H           -2.267844256033    -3.138991866982    -1.073898745566     1.007825032230
         H            5.841177743967    -0.021214866982     0.186195254434     1.007825032230
         H            5.320301743967    -1.359498866982     1.223247254434     1.007825032230
         H            5.372054743967    -1.566208866982    -0.531313745566     1.007825032230
         H           -4.489794256033    -2.425220866982    -0.179071745566     1.007825032230
         H           -2.349323256033     2.460317133018     0.451781254434     1.007825032230
         H           -3.947264256033     2.050799133018     0.855970254434     1.007825032230

  Basis Set: AUG-CC-PVTZ
    Blend: AUG-CC-PVTZ
  Basis Set: (AUG-CC-PVTZ AUX)
    Blend: AUG-CC-PVTZ-JKFIT
	 Reference Energy          =    -667.2760767579171670 [Eh]
	 Singles Energy            =      -0.0000000000000000 [Eh]
	 Same-Spin Energy          =      -0.7354938823679703 [Eh]
	 Opposite-Spin Energy      =      -2.2655098808866740 [Eh]
	 Correlation Energy        =      -3.0010037632546442 [Eh]
	 Total Energy              =    -670.2770805211717970 [Eh]

	 ================> DF-SCS-MP2 Energies <==================
	-----------------------------------------------------------
	 SCS Same-Spin Scale       =       0.3333333333333333 [-]
	 SCS Opposite-Spin Scale   =       1.2000000000000000 [-]
	 SCS Same-Spin Energy      =      -0.2451646274559901 [Eh]
	 SCS Opposite-Spin Energy  =      -2.7186118570640088 [Eh]
	 SCS Correlation Energy    =      -2.9637764845199990 [Eh]
	 SCS Total Energy          =    -670.2398532424372206 [Eh]
	-----------------------------------------------------------

  Dipole Moment: [D]
     X:     0.3727      Y:    -1.8208      Z:    -0.1028     Total:     1.8614

*** Psi4 exiting successfully. Buy a developer a beer!
