                               Psi4 1.4a3.dev225

  ==> Input File <==

--------------------------------------------------------------------------
#psi4
#
memory 32 gb

molecule  {
0 1
  O       -0.5498120     2.2556960    -0.2996080
  N       -3.0129360     1.7813540     0.8248620
  C        1.0008190     0.4908720    -0.0872200
  C       -1.5329590     0.0859130    -0.1428360
  C       -0.3878030     1.0286420    -0.1846270
  C        3.6793340    -0.3535020     0.1683990
  C       -2.8127890     0.5150010     0.2964470
  C        1.3212360    -0.6095270     0.7211930
  C        2.0273690     1.1786660    -0.7492360
  C        2.6489240    -1.0168440     0.8468500
  C        3.3454510     0.7479200    -0.6334830
  C       -1.3791480    -1.2185740    -0.6492330
  C       -3.8612840    -0.4227650     0.3079770
  C       -2.4390410    -2.1168890    -0.6711390
  C        5.1038640    -0.8322750     0.2664150
  C       -3.6624675    -1.7045578    -0.1899607
  H        0.5383950    -1.1258400     1.2710410
  H        1.7737210     2.0503190    -1.3473030
  H        2.8902070    -1.8603380     1.4919100
  H        4.1335430     1.2826870    -1.1615780
  H       -0.4095800    -1.5185310    -1.0371660
  H       -4.8387790    -0.1097830     0.6721110
  H       -2.3031150    -3.1155080    -1.0770870
  H        5.8059070     0.0022690     0.1830070
  H        5.2850310    -1.3360150     1.2200590
  H        5.3367840    -1.5427250    -0.5345020
  H       -4.5250650    -2.4017370    -0.1822600
  H       -2.3845940     2.4838010     0.4485930
  H       -3.9825350     2.0742830     0.8527820
units angstrom
no_reorient  #important for SAPT in psi4, default
symmetry c1  #important for SAPT in psi4, default
}

set PROPERTIES_ORIGIN ["COM"]
properties('MP2/aug-cc-pvtz', properties = ['dipole'])
--------------------------------------------------------------------------

    Molecular point group: c1
  Charge       = 0
  Multiplicity = 1
  Basis Set: AUG-CC-PVTZ
    Blend: AUG-CC-PVTZ
  Basis Set: (AUG-CC-PVTZ AUX)
    Blend: AUG-CC-PVTZ-JKFIT

    Orbital Energies [Eh]
    ---------------------

    Doubly Occupied:

       1A    -20.538130     2A    -15.559632     3A    -11.338657
       4A    -11.296304     5A    -11.257440     6A    -11.252882
       7A    -11.251801     8A    -11.250703     9A    -11.246431
      10A    -11.243673    11A    -11.239338    12A    -11.239208
      13A    -11.237913    14A    -11.233313    15A    -11.231085
      16A    -11.226262    17A     -1.371194    18A     -1.226472
      19A     -1.165339    20A     -1.139308    21A     -1.069856
      22A     -1.034532    23A     -1.020674    24A     -0.998102
      25A     -0.954629    26A     -0.876165    27A     -0.839359
      28A     -0.837030    29A     -0.812696    30A     -0.766272
      31A     -0.713258    32A     -0.690527    33A     -0.685064
      34A     -0.661200    35A     -0.645543    36A     -0.636806
      37A     -0.614213    38A     -0.603511    39A     -0.600044
      40A     -0.592887    41A     -0.585464    42A     -0.584061
      43A     -0.556036    44A     -0.544282    45A     -0.528661
      46A     -0.518057    47A     -0.513184    48A     -0.506265
      49A     -0.493598    50A     -0.482318    51A     -0.453742
      52A     -0.418894    53A     -0.349593    54A     -0.343145
      55A     -0.334069    56A     -0.301400

  @DF-RHF Final Energy:  -667.27604092678860

   => Energetics <=

    Nuclear Repulsion Energy =            993.3519273643253200
    One-Electron Energy =               -2877.8354909482732182
    Two-Electron Energy =                1217.2075226571594158
    Total Energy =                       -667.2760409267884825
  Basis Set: (AUG-CC-PVTZ AUX)
    Blend: AUG-CC-PVTZ-RI
    Molecular point group: c1

    Geometry (in Angstrom), charge = 0, multiplicity = 1:

       Center              X                  Y                   Z               Mass
    ------------   -----------------  -----------------  -----------------  -----------------
         O           -0.516703015475     2.231385689454    -0.295623242355    15.994914619570
         N           -2.979827015475     1.757043689454     0.828846757645    14.003074004430
         C            1.033927984525     0.466561689454    -0.083235242355    12.000000000000
         C           -1.499850015475     0.061602689454    -0.138851242355    12.000000000000
         C           -0.354694015475     1.004331689454    -0.180642242355    12.000000000000
         C            3.712442984525    -0.377812310546     0.172383757645    12.000000000000
         C           -2.779680015475     0.490690689454     0.300431757645    12.000000000000
         C            1.354344984525    -0.633837310546     0.725177757645    12.000000000000
         C            2.060477984525     1.154355689454    -0.745251242355    12.000000000000
         C            2.682032984525    -1.041154310546     0.850834757645    12.000000000000
         C            3.378559984525     0.723609689454    -0.629498242355    12.000000000000
         C           -1.346039015475    -1.242884310546    -0.645248242355    12.000000000000
         C           -3.828175015475    -0.447075310546     0.311961757645    12.000000000000
         C           -2.405932015475    -2.141199310546    -0.667154242355    12.000000000000
         C            5.136972984525    -0.856585310546     0.270399757645    12.000000000000
         C           -3.629358515475    -1.728868110546    -0.185975942355    12.000000000000
         H            0.571503984525    -1.150150310546     1.275025757645     1.007825032230
         H            1.806829984525     2.026008689454    -1.343318242355     1.007825032230
         H            2.923315984525    -1.884648310546     1.495894757645     1.007825032230
         H            4.166651984525     1.258376689454    -1.157593242355     1.007825032230
         H           -0.376471015475    -1.542841310546    -1.033181242355     1.007825032230
         H           -4.805670015475    -0.134093310546     0.676095757645     1.007825032230
         H           -2.270006015475    -3.139818310546    -1.073102242355     1.007825032230
         H            5.839015984525    -0.022041310546     0.186991757645     1.007825032230
         H            5.318139984525    -1.360325310546     1.224043757645     1.007825032230
         H            5.369892984525    -1.567035310546    -0.530517242355     1.007825032230
         H           -4.491956015475    -2.426047310546    -0.178275242355     1.007825032230
         H           -2.351485015475     2.459490689454     0.452577757645     1.007825032230
         H           -3.949426015475     2.049972689454     0.856766757645     1.007825032230

  Basis Set: AUG-CC-PVTZ
    Blend: AUG-CC-PVTZ
  Basis Set: (AUG-CC-PVTZ AUX)
    Blend: AUG-CC-PVTZ-JKFIT
	 Reference Energy          =    -667.2760409267885962 [Eh]
	 Singles Energy            =      -0.0000000000000000 [Eh]
	 Same-Spin Energy          =      -0.7355329080336264 [Eh]
	 Opposite-Spin Energy      =      -2.2653886758981838 [Eh]
	 Correlation Energy        =      -3.0009215839318104 [Eh]
	 Total Energy              =    -670.2769625107204092 [Eh]

	 ================> DF-SCS-MP2 Energies <==================
	-----------------------------------------------------------
	 SCS Same-Spin Scale       =       0.3333333333333333 [-]
	 SCS Opposite-Spin Scale   =       1.2000000000000000 [-]
	 SCS Same-Spin Energy      =      -0.2451776360112088 [Eh]
	 SCS Opposite-Spin Energy  =      -2.7184664110778205 [Eh]
	 SCS Correlation Energy    =      -2.9636440470890291 [Eh]
	 SCS Total Energy          =    -670.2396849738776154 [Eh]
	-----------------------------------------------------------

  Dipole Moment: [D]
     X:     0.3720      Y:    -1.8103      Z:    -0.1104     Total:     1.8514

*** Psi4 exiting successfully. Buy a developer a beer!
