                               Psi4 1.4a3.dev225

  ==> Input File <==

--------------------------------------------------------------------------
#psi4
#
memory 32 gb

molecule  {
0 1
  O       -0.5498120     2.2556960    -0.2996080
  N       -3.0129360     1.7813540     0.8248620
  C        1.0008190     0.4908720    -0.0872200
  C       -1.5329590     0.0859130    -0.1428360
  C       -0.3878030     1.0286420    -0.1846270
  C        3.6793340    -0.3535020     0.1683990
  C       -2.8127890     0.5150010     0.2964470
  C        1.3212360    -0.6095270     0.7211930
  C        2.0273690     1.1786660    -0.7492360
  C        2.6121430    -1.0405223     0.8710677
  C        3.3454510     0.7479200    -0.6334830
  C       -1.3791480    -1.2185740    -0.6492330
  C       -3.8612840    -0.4227650     0.3079770
  C       -2.4390410    -2.1168890    -0.6711390
  C        5.1038640    -0.8322750     0.2664150
  C       -3.6857840    -1.7096250    -0.1856360
  H        0.5383950    -1.1258400     1.2710410
  H        1.7737210     2.0503190    -1.3473030
  H        2.8902070    -1.8603380     1.4919100
  H        4.1335430     1.2826870    -1.1615780
  H       -0.4095800    -1.5185310    -1.0371660
  H       -4.8387790    -0.1097830     0.6721110
  H       -2.3031150    -3.1155080    -1.0770870
  H        5.8059070     0.0022690     0.1830070
  H        5.2850310    -1.3360150     1.2200590
  H        5.3367840    -1.5427250    -0.5345020
  H       -4.5250650    -2.4017370    -0.1822600
  H       -2.3845940     2.4838010     0.4485930
  H       -3.9825350     2.0742830     0.8527820
units angstrom
no_reorient  #important for SAPT in psi4, default
symmetry c1  #important for SAPT in psi4, default
}

set PROPERTIES_ORIGIN ["COM"]
properties('MP2/aug-cc-pvtz', properties = ['dipole'])
--------------------------------------------------------------------------

    Molecular point group: c1
  Charge       = 0
  Multiplicity = 1
  Basis Set: AUG-CC-PVTZ
    Blend: AUG-CC-PVTZ
  Basis Set: (AUG-CC-PVTZ AUX)
    Blend: AUG-CC-PVTZ-JKFIT

    Orbital Energies [Eh]
    ---------------------

    Doubly Occupied:

       1A    -20.537251     2A    -15.559643     3A    -11.338063
       4A    -11.296472     5A    -11.263347     6A    -11.252347
       7A    -11.251894     8A    -11.247685     9A    -11.247370
      10A    -11.242792    11A    -11.239545    12A    -11.238634
      13A    -11.237444    14A    -11.234238    15A    -11.231597
      16A    -11.227955    17A     -1.370413    18A     -1.226164
      19A     -1.162996    20A     -1.136544    21A     -1.067048
      22A     -1.033648    23A     -1.024679    24A     -0.996191
      25A     -0.954871    26A     -0.876183    27A     -0.838414
      28A     -0.832549    29A     -0.813645    30A     -0.767309
      31A     -0.712631    32A     -0.691672    33A     -0.685958
      34A     -0.660730    35A     -0.646921    36A     -0.635360
      37A     -0.614252    38A     -0.603283    39A     -0.599978
      40A     -0.595783    41A     -0.584516    42A     -0.583445
      43A     -0.556205    44A     -0.545699    45A     -0.531723
      46A     -0.517796    47A     -0.514137    48A     -0.505738
      49A     -0.488719    50A     -0.481029    51A     -0.451836
      52A     -0.418740    53A     -0.350874    54A     -0.345785
      55A     -0.328621    56A     -0.299952

  @DF-RHF Final Energy:  -667.27359048084782

   => Energetics <=

    Nuclear Repulsion Energy =            992.5388800138075567
    One-Electron Energy =               -2876.2283112207974227
    Two-Electron Energy =                1216.4158407261420507
    Total Energy =                       -667.2735904808478153
  Basis Set: (AUG-CC-PVTZ AUX)
    Blend: AUG-CC-PVTZ-RI
    Molecular point group: c1

    Geometry (in Angstrom), charge = 0, multiplicity = 1:

       Center              X                  Y                   Z               Mass
    ------------   -----------------  -----------------  -----------------  -----------------
         O           -0.513286762624     2.233019732407    -0.297245740053    15.994914619570
         N           -2.976410762624     1.758677732407     0.827224259947    14.003074004430
         C            1.037344237376     0.468195732407    -0.084857740053    12.000000000000
         C           -1.496433762624     0.063236732407    -0.140473740053    12.000000000000
         C           -0.351277762624     1.005965732407    -0.182264740053    12.000000000000
         C            3.715859237376    -0.376178267593     0.170761259947    12.000000000000
         C           -2.776263762624     0.492324732407     0.298809259947    12.000000000000
         C            1.357761237376    -0.632203267593     0.723555259947    12.000000000000
         C            2.063894237376     1.155989732407    -0.746873740053    12.000000000000
         C            2.648668237376    -1.063198567593     0.873429959947    12.000000000000
         C            3.381976237376     0.725243732407    -0.631120740053    12.000000000000
         C           -1.342622762624    -1.241250267593    -0.646870740053    12.000000000000
         C           -3.824758762624    -0.445441267593     0.310339259947    12.000000000000
         C           -2.402515762624    -2.139565267593    -0.668776740053    12.000000000000
         C            5.140389237376    -0.854951267593     0.268777259947    12.000000000000
         C           -3.649258762624    -1.732301267593    -0.183273740053    12.000000000000
         H            0.574920237376    -1.148516267593     1.273403259947     1.007825032230
         H            1.810246237376     2.027642732407    -1.344940740053     1.007825032230
         H            2.926732237376    -1.883014267593     1.494272259947     1.007825032230
         H            4.170068237376     1.260010732407    -1.159215740053     1.007825032230
         H           -0.373054762624    -1.541207267593    -1.034803740053     1.007825032230
         H           -4.802253762624    -0.132459267593     0.674473259947     1.007825032230
         H           -2.266589762624    -3.138184267593    -1.074724740053     1.007825032230
         H            5.842432237376    -0.020407267593     0.185369259947     1.007825032230
         H            5.321556237376    -1.358691267593     1.222421259947     1.007825032230
         H            5.373309237376    -1.565401267593    -0.532139740053     1.007825032230
         H           -4.488539762624    -2.424413267593    -0.179897740053     1.007825032230
         H           -2.348068762624     2.461124732407     0.450955259947     1.007825032230
         H           -3.946009762624     2.051606732407     0.855144259947     1.007825032230

  Basis Set: AUG-CC-PVTZ
    Blend: AUG-CC-PVTZ
  Basis Set: (AUG-CC-PVTZ AUX)
    Blend: AUG-CC-PVTZ-JKFIT
	 Reference Energy          =    -667.2735904808478153 [Eh]
	 Singles Energy            =      -0.0000000000000000 [Eh]
	 Same-Spin Energy          =      -0.7354259220760465 [Eh]
	 Opposite-Spin Energy      =      -2.2655858862602027 [Eh]
	 Correlation Energy        =      -3.0010118083362491 [Eh]
	 Total Energy              =    -670.2746022891840312 [Eh]

	 ================> DF-SCS-MP2 Energies <==================
	-----------------------------------------------------------
	 SCS Same-Spin Scale       =       0.3333333333333333 [-]
	 SCS Opposite-Spin Scale   =       1.2000000000000000 [-]
	 SCS Same-Spin Energy      =      -0.2451419740253488 [Eh]
	 SCS Opposite-Spin Energy  =      -2.7187030635122431 [Eh]
	 SCS Correlation Energy    =      -2.9638450375375918 [Eh]
	 SCS Total Energy          =    -670.2374355183853822 [Eh]
	-----------------------------------------------------------

  Dipole Moment: [D]
     X:     0.4011      Y:    -1.8290      Z:    -0.0992     Total:     1.8751

*** Psi4 exiting successfully. Buy a developer a beer!
