                               Psi4 1.4a3.dev225

  ==> Input File <==

--------------------------------------------------------------------------
#psi4
#
memory 32 gb

molecule  {
0 1
  O       -0.5498120     2.2556960    -0.2996080
  N       -3.0129360     1.7813540     0.8248620
  C        1.0008190     0.4908720    -0.0872200
  C       -1.5329590     0.0859130    -0.1428360
  C       -0.3878030     1.0286420    -0.1846270
  C        3.7728908    -0.3389300     0.1434824
  C       -2.8127890     0.5150010     0.2964470
  C        1.3212360    -0.6095270     0.7211930
  C        2.0273690     1.1786660    -0.7492360
  C        2.6489240    -1.0168440     0.8468500
  C        3.3454510     0.7479200    -0.6334830
  C       -1.3791480    -1.2185740    -0.6492330
  C       -3.8612840    -0.4227650     0.3079770
  C       -2.4390410    -2.1168890    -0.6711390
  C        5.1038640    -0.8322750     0.2664150
  C       -3.6857840    -1.7096250    -0.1856360
  H        0.5383950    -1.1258400     1.2710410
  H        1.7737210     2.0503190    -1.3473030
  H        2.8902070    -1.8603380     1.4919100
  H        4.1335430     1.2826870    -1.1615780
  H       -0.4095800    -1.5185310    -1.0371660
  H       -4.8387790    -0.1097830     0.6721110
  H       -2.3031150    -3.1155080    -1.0770870
  H        5.8059070     0.0022690     0.1830070
  H        5.2850310    -1.3360150     1.2200590
  H        5.3367840    -1.5427250    -0.5345020
  H       -4.5250650    -2.4017370    -0.1822600
  H       -2.3845940     2.4838010     0.4485930
  H       -3.9825350     2.0742830     0.8527820
units angstrom
no_reorient  #important for SAPT in psi4, default
symmetry c1  #important for SAPT in psi4, default
}

set PROPERTIES_ORIGIN ["COM"]
properties('MP2/aug-cc-pvtz', properties = ['dipole'])
--------------------------------------------------------------------------

    Molecular point group: c1
  Charge       = 0
  Multiplicity = 1
  Basis Set: AUG-CC-PVTZ
    Blend: AUG-CC-PVTZ
  Basis Set: (AUG-CC-PVTZ AUX)
    Blend: AUG-CC-PVTZ-JKFIT

    Orbital Energies [Eh]
    ---------------------

    Doubly Occupied:

       1A    -20.537541     2A    -15.559719     3A    -11.337921
       4A    -11.296574     5A    -11.264028     6A    -11.252423
       7A    -11.251951     8A    -11.249032     9A    -11.247398
      10A    -11.246465    11A    -11.243220    12A    -11.238745
      13A    -11.238138    14A    -11.232277    15A    -11.231663
      16A    -11.228008    17A     -1.370569    18A     -1.226246
      19A     -1.159902    20A     -1.136632    21A     -1.077564
      22A     -1.037012    23A     -1.016667    24A     -0.996392
      25A     -0.959923    26A     -0.877169    27A     -0.838808
      28A     -0.827377    29A     -0.813554    30A     -0.764441
      31A     -0.711937    32A     -0.691801    33A     -0.685739
      34A     -0.662012    35A     -0.648825    36A     -0.637787
      37A     -0.613915    38A     -0.603853    39A     -0.599900
      40A     -0.593583    41A     -0.585860    42A     -0.585090
      43A     -0.559347    44A     -0.545064    45A     -0.535451
      46A     -0.527641    47A     -0.515227    48A     -0.506271
      49A     -0.478757    50A     -0.475760    51A     -0.451880
      52A     -0.418379    53A     -0.349757    54A     -0.343785
      55A     -0.324149    56A     -0.300010

  @DF-RHF Final Energy:  -667.26249994117370

   => Energetics <=

    Nuclear Repulsion Energy =            991.7669742669708057
    One-Electron Energy =               -2874.6406698927521575
    Two-Electron Energy =                1215.6111956846075373
    Total Energy =                       -667.2624999411737008
  Basis Set: (AUG-CC-PVTZ AUX)
    Blend: AUG-CC-PVTZ-RI
    Molecular point group: c1

    Geometry (in Angstrom), charge = 0, multiplicity = 1:

       Center              X                  Y                   Z               Mass
    ------------   -----------------  -----------------  -----------------  -----------------
         O           -0.520695837558     2.230845387443    -0.294452692214    15.994914619570
         N           -2.983819837558     1.756503387443     0.830017307786    14.003074004430
         C            1.029935162442     0.466021387443    -0.082064692214    12.000000000000
         C           -1.503842837558     0.061062387443    -0.137680692214    12.000000000000
         C           -0.358686837558     1.003791387443    -0.179471692214    12.000000000000
         C            3.802006962442    -0.363780612557     0.148637707786    12.000000000000
         C           -2.783672837558     0.490150387443     0.301602307786    12.000000000000
         C            1.350352162442    -0.634377612557     0.726348307786    12.000000000000
         C            2.056485162442     1.153815387443    -0.744080692214    12.000000000000
         C            2.678040162442    -1.041694612557     0.852005307786    12.000000000000
         C            3.374567162442     0.723069387443    -0.628327692214    12.000000000000
         C           -1.350031837558    -1.243424612557    -0.644077692214    12.000000000000
         C           -3.832167837558    -0.447615612557     0.313132307786    12.000000000000
         C           -2.409924837558    -2.141739612557    -0.665983692214    12.000000000000
         C            5.132980162442    -0.857125612557     0.271570307786    12.000000000000
         C           -3.656667837558    -1.734475612557    -0.180480692214    12.000000000000
         H            0.567511162442    -1.150690612557     1.276196307786     1.007825032230
         H            1.802837162442     2.025468387443    -1.342147692214     1.007825032230
         H            2.919323162442    -1.885188612557     1.497065307786     1.007825032230
         H            4.162659162442     1.257836387443    -1.156422692214     1.007825032230
         H           -0.380463837558    -1.543381612557    -1.032010692214     1.007825032230
         H           -4.809662837558    -0.134633612557     0.677266307786     1.007825032230
         H           -2.273998837558    -3.140358612557    -1.071931692214     1.007825032230
         H            5.835023162442    -0.022581612557     0.188162307786     1.007825032230
         H            5.314147162442    -1.360865612557     1.225214307786     1.007825032230
         H            5.365900162442    -1.567575612557    -0.529346692214     1.007825032230
         H           -4.495948837558    -2.426587612557    -0.177104692214     1.007825032230
         H           -2.355477837558     2.458950387443     0.453748307786     1.007825032230
         H           -3.953418837558     2.049432387443     0.857937307786     1.007825032230

  Basis Set: AUG-CC-PVTZ
    Blend: AUG-CC-PVTZ
  Basis Set: (AUG-CC-PVTZ AUX)
    Blend: AUG-CC-PVTZ-JKFIT
	 Reference Energy          =    -667.2624999411737008 [Eh]
	 Singles Energy            =      -0.0000000000000000 [Eh]
	 Same-Spin Energy          =      -0.7366711268060638 [Eh]
	 Opposite-Spin Energy      =      -2.2674871241575016 [Eh]
	 Correlation Energy        =      -3.0041582509635654 [Eh]
	 Total Energy              =    -670.2666581921372426 [Eh]

	 ================> DF-SCS-MP2 Energies <==================
	-----------------------------------------------------------
	 SCS Same-Spin Scale       =       0.3333333333333333 [-]
	 SCS Opposite-Spin Scale   =       1.2000000000000000 [-]
	 SCS Same-Spin Energy      =      -0.2455570422686879 [Eh]
	 SCS Opposite-Spin Energy  =      -2.7209845489890019 [Eh]
	 SCS Correlation Energy    =      -2.9665415912576898 [Eh]
	 SCS Total Energy          =    -670.2290415324314381 [Eh]
	-----------------------------------------------------------

  Dipole Moment: [D]
     X:     0.5005      Y:    -1.8808      Z:    -0.0922     Total:     1.9485

*** Psi4 exiting successfully. Buy a developer a beer!
