                               Psi4 1.4a3.dev225

  ==> Input File <==

--------------------------------------------------------------------------
#psi4
#
memory 32 gb

molecule  {
0 1
  O       -0.5498120     2.2556960    -0.2996080
  N       -3.0129360     1.7813540     0.8248620
  C        1.0008190     0.4908720    -0.0872200
  C       -1.5329590     0.0859130    -0.1428360
  C       -0.3878030     1.0286420    -0.1846270
  C        3.6793340    -0.3535020     0.1683990
  C       -2.7677095     0.4998872     0.2809741
  C        1.3212360    -0.6095270     0.7211930
  C        2.0273690     1.1786660    -0.7492360
  C        2.6489240    -1.0168440     0.8468500
  C        3.3454510     0.7479200    -0.6334830
  C       -1.3791480    -1.2185740    -0.6492330
  C       -3.8612840    -0.4227650     0.3079770
  C       -2.4390410    -2.1168890    -0.6711390
  C        5.1038640    -0.8322750     0.2664150
  C       -3.6857840    -1.7096250    -0.1856360
  H        0.5383950    -1.1258400     1.2710410
  H        1.7737210     2.0503190    -1.3473030
  H        2.8902070    -1.8603380     1.4919100
  H        4.1335430     1.2826870    -1.1615780
  H       -0.4095800    -1.5185310    -1.0371660
  H       -4.8387790    -0.1097830     0.6721110
  H       -2.3031150    -3.1155080    -1.0770870
  H        5.8059070     0.0022690     0.1830070
  H        5.2850310    -1.3360150     1.2200590
  H        5.3367840    -1.5427250    -0.5345020
  H       -4.5250650    -2.4017370    -0.1822600
  H       -2.3845940     2.4838010     0.4485930
  H       -3.9825350     2.0742830     0.8527820
units angstrom
no_reorient  #important for SAPT in psi4, default
symmetry c1  #important for SAPT in psi4, default
}

set PROPERTIES_ORIGIN ["COM"]
properties('MP2/aug-cc-pvtz', properties = ['dipole'])
--------------------------------------------------------------------------

    Molecular point group: c1
  Charge       = 0
  Multiplicity = 1
  Basis Set: AUG-CC-PVTZ
    Blend: AUG-CC-PVTZ
  Basis Set: (AUG-CC-PVTZ AUX)
    Blend: AUG-CC-PVTZ-JKFIT

    Orbital Energies [Eh]
    ---------------------

    Doubly Occupied:

       1A    -20.539395     2A    -15.556562     3A    -11.339503
       4A    -11.294689     5A    -11.257885     6A    -11.252057
       7A    -11.251507     8A    -11.251318     9A    -11.246932
      10A    -11.244173    11A    -11.239667    12A    -11.238309
      13A    -11.236110    14A    -11.235670    15A    -11.233605
      16A    -11.229909    17A     -1.372206    18A     -1.218336
      19A     -1.165773    20A     -1.137064    21A     -1.070324
      22A     -1.037478    23A     -1.021492    24A     -0.996089
      25A     -0.955969    26A     -0.876019    27A     -0.842612
      28A     -0.838315    29A     -0.811916    30A     -0.766227
      31A     -0.714066    32A     -0.688532    33A     -0.681713
      34A     -0.660556    35A     -0.645921    36A     -0.636725
      37A     -0.620441    38A     -0.600356    39A     -0.598859
      40A     -0.593228    41A     -0.585188    42A     -0.584219
      43A     -0.556186    44A     -0.544672    45A     -0.528528
      46A     -0.517994    47A     -0.515628    48A     -0.507372
      49A     -0.494033    50A     -0.481873    51A     -0.448289
      52A     -0.419593    53A     -0.351062    54A     -0.343961
      55A     -0.334521    56A     -0.303136

  @DF-RHF Final Energy:  -667.27363337771760

   => Energetics <=

    Nuclear Repulsion Energy =            993.4617698317692884
    One-Electron Energy =               -2878.0432805999175798
    Two-Electron Energy =                1217.3078773904305763
    Total Energy =                       -667.2736333777177151
  Basis Set: (AUG-CC-PVTZ AUX)
    Blend: AUG-CC-PVTZ-RI
    Molecular point group: c1

    Geometry (in Angstrom), charge = 0, multiplicity = 1:

       Center              X                  Y                   Z               Mass
    ------------   -----------------  -----------------  -----------------  -----------------
         O           -0.517940136999     2.232532881913    -0.294989520985    15.994914619570
         N           -2.981064136999     1.758190881913     0.829480479015    14.003074004430
         C            1.032690863001     0.467708881913    -0.082601520985    12.000000000000
         C           -1.501087136999     0.062749881913    -0.138217520985    12.000000000000
         C           -0.355931136999     1.005478881913    -0.180008520985    12.000000000000
         C            3.711205863001    -0.376665118087     0.173017479015    12.000000000000
         C           -2.735837636999     0.476724081913     0.285592579015    12.000000000000
         C            1.353107863001    -0.632690118087     0.725811479015    12.000000000000
         C            2.059240863001     1.155502881913    -0.744617520985    12.000000000000
         C            2.680795863001    -1.040007118087     0.851468479015    12.000000000000
         C            3.377322863001     0.724756881913    -0.628864520985    12.000000000000
         C           -1.347276136999    -1.241737118087    -0.644614520985    12.000000000000
         C           -3.829412136999    -0.445928118087     0.312595479015    12.000000000000
         C           -2.407169136999    -2.140052118087    -0.666520520985    12.000000000000
         C            5.135735863001    -0.855438118087     0.271033479015    12.000000000000
         C           -3.653912136999    -1.732788118087    -0.181017520985    12.000000000000
         H            0.570266863001    -1.149003118087     1.275659479015     1.007825032230
         H            1.805592863001     2.027155881913    -1.342684520985     1.007825032230
         H            2.922078863001    -1.883501118087     1.496528479015     1.007825032230
         H            4.165414863001     1.259523881913    -1.156959520985     1.007825032230
         H           -0.377708136999    -1.541694118087    -1.032547520985     1.007825032230
         H           -4.806907136999    -0.132946118087     0.676729479015     1.007825032230
         H           -2.271243136999    -3.138671118087    -1.072468520985     1.007825032230
         H            5.837778863001    -0.020894118087     0.187625479015     1.007825032230
         H            5.316902863001    -1.359178118087     1.224677479015     1.007825032230
         H            5.368655863001    -1.565888118087    -0.529883520985     1.007825032230
         H           -4.493193136999    -2.424900118087    -0.177641520985     1.007825032230
         H           -2.352722136999     2.460637881913     0.453211479015     1.007825032230
         H           -3.950663136999     2.051119881913     0.857400479015     1.007825032230

  Basis Set: AUG-CC-PVTZ
    Blend: AUG-CC-PVTZ
  Basis Set: (AUG-CC-PVTZ AUX)
    Blend: AUG-CC-PVTZ-JKFIT
	 Reference Energy          =    -667.2736333777176014 [Eh]
	 Singles Energy            =      -0.0000000000000000 [Eh]
	 Same-Spin Energy          =      -0.7352694424126838 [Eh]
	 Opposite-Spin Energy      =      -2.2657237270533455 [Eh]
	 Correlation Energy        =      -3.0009931694660290 [Eh]
	 Total Energy              =    -670.2746265471836296 [Eh]

	 ================> DF-SCS-MP2 Energies <==================
	-----------------------------------------------------------
	 SCS Same-Spin Scale       =       0.3333333333333333 [-]
	 SCS Opposite-Spin Scale   =       1.2000000000000000 [-]
	 SCS Same-Spin Energy      =      -0.2450898141375613 [Eh]
	 SCS Opposite-Spin Energy  =      -2.7188684724640146 [Eh]
	 SCS Correlation Energy    =      -2.9639582866015757 [Eh]
	 SCS Total Energy          =    -670.2375916643192113 [Eh]
	-----------------------------------------------------------

  Dipole Moment: [D]
     X:     0.4262      Y:    -1.9440      Z:    -0.1689     Total:     1.9973

*** Psi4 exiting successfully. Buy a developer a beer!
