                               Psi4 1.4a3.dev225

  ==> Input File <==

--------------------------------------------------------------------------
#psi4
#
memory 32 gb

molecule  {
0 1
  O       -0.5498120     2.2556960    -0.2996080
  N       -2.9212839     1.8018939     0.8014882
  C        1.0008190     0.4908720    -0.0872200
  C       -1.5329590     0.0859130    -0.1428360
  C       -0.3878030     1.0286420    -0.1846270
  C        3.6793340    -0.3535020     0.1683990
  C       -2.8127890     0.5150010     0.2964470
  C        1.3212360    -0.6095270     0.7211930
  C        2.0273690     1.1786660    -0.7492360
  C        2.6489240    -1.0168440     0.8468500
  C        3.3454510     0.7479200    -0.6334830
  C       -1.3791480    -1.2185740    -0.6492330
  C       -3.8612840    -0.4227650     0.3079770
  C       -2.4390410    -2.1168890    -0.6711390
  C        5.1038640    -0.8322750     0.2664150
  C       -3.6857840    -1.7096250    -0.1856360
  H        0.5383950    -1.1258400     1.2710410
  H        1.7737210     2.0503190    -1.3473030
  H        2.8902070    -1.8603380     1.4919100
  H        4.1335430     1.2826870    -1.1615780
  H       -0.4095800    -1.5185310    -1.0371660
  H       -4.8387790    -0.1097830     0.6721110
  H       -2.3031150    -3.1155080    -1.0770870
  H        5.8059070     0.0022690     0.1830070
  H        5.2850310    -1.3360150     1.2200590
  H        5.3367840    -1.5427250    -0.5345020
  H       -4.5250650    -2.4017370    -0.1822600
  H       -2.3845940     2.4838010     0.4485930
  H       -3.9825350     2.0742830     0.8527820
units angstrom
no_reorient  #important for SAPT in psi4, default
symmetry c1  #important for SAPT in psi4, default
}

set PROPERTIES_ORIGIN ["COM"]
properties('MP2/aug-cc-pvtz', properties = ['dipole'])
--------------------------------------------------------------------------

    Molecular point group: c1
  Charge       = 0
  Multiplicity = 1
  Basis Set: AUG-CC-PVTZ
    Blend: AUG-CC-PVTZ
  Basis Set: (AUG-CC-PVTZ AUX)
    Blend: AUG-CC-PVTZ-JKFIT

    Orbital Energies [Eh]
    ---------------------

    Doubly Occupied:

       1A    -20.536817     2A    -15.561460     3A    -11.337435
       4A    -11.297752     5A    -11.256935     6A    -11.254144
       7A    -11.251953     8A    -11.250153     9A    -11.245871
      10A    -11.243153    11A    -11.238759    12A    -11.237628
      13A    -11.237455    14A    -11.234567    15A    -11.232962
      16A    -11.228829    17A     -1.370384    18A     -1.227840
      19A     -1.164835    20A     -1.137949    21A     -1.069335
      22A     -1.034474    23A     -1.020257    24A     -0.998656
      25A     -0.954123    26A     -0.878115    27A     -0.838434
      28A     -0.834729    29A     -0.815740    30A     -0.768164
      31A     -0.712459    32A     -0.701202    33A     -0.678065
      34A     -0.661582    35A     -0.644443    36A     -0.637611
      37A     -0.611434    38A     -0.606500    39A     -0.597517
      40A     -0.592108    41A     -0.583906    42A     -0.580270
      43A     -0.556206    44A     -0.544985    45A     -0.533197
      46A     -0.517699    47A     -0.511939    48A     -0.502960
      49A     -0.493106    50A     -0.481223    51A     -0.453262
      52A     -0.418789    53A     -0.349912    54A     -0.342744
      55A     -0.333510    56A     -0.301447

  @DF-RHF Final Energy:  -667.26258197113191

   => Energetics <=

    Nuclear Repulsion Energy =            993.9300808304657266
    One-Electron Energy =               -2878.9713592834505107
    Two-Electron Energy =                1217.7786964818528759
    Total Energy =                       -667.2625819711320219
  Basis Set: (AUG-CC-PVTZ AUX)
    Blend: AUG-CC-PVTZ-RI
    Molecular point group: c1

    Geometry (in Angstrom), charge = 0, multiplicity = 1:

       Center              X                  Y                   Z               Mass
    ------------   -----------------  -----------------  -----------------  -----------------
         O           -0.521457229110     2.230311242998    -0.294318604628    15.994914619570
         N           -2.892929129110     1.776509142998     0.806777595372    14.003074004430
         C            1.029173770890     0.465487242998    -0.081930604628    12.000000000000
         C           -1.504604229110     0.060528242998    -0.137546604628    12.000000000000
         C           -0.359448229110     1.003257242998    -0.179337604628    12.000000000000
         C            3.707688770890    -0.378886757002     0.173688395372    12.000000000000
         C           -2.784434229110     0.489616242998     0.301736395372    12.000000000000
         C            1.349590770890    -0.634911757002     0.726482395372    12.000000000000
         C            2.055723770890     1.153281242998    -0.743946604628    12.000000000000
         C            2.677278770890    -1.042228757002     0.852139395372    12.000000000000
         C            3.373805770890     0.722535242998    -0.628193604628    12.000000000000
         C           -1.350793229110    -1.243958757002    -0.643943604628    12.000000000000
         C           -3.832929229110    -0.448149757002     0.313266395372    12.000000000000
         C           -2.410686229110    -2.142273757002    -0.665849604628    12.000000000000
         C            5.132218770890    -0.857659757002     0.271704395372    12.000000000000
         C           -3.657429229110    -1.735009757002    -0.180346604628    12.000000000000
         H            0.566749770890    -1.151224757002     1.276330395372     1.007825032230
         H            1.802075770890     2.024934242998    -1.342013604628     1.007825032230
         H            2.918561770890    -1.885722757002     1.497199395372     1.007825032230
         H            4.161897770890     1.257302242998    -1.156288604628     1.007825032230
         H           -0.381225229110    -1.543915757002    -1.031876604628     1.007825032230
         H           -4.810424229110    -0.135167757002     0.677400395372     1.007825032230
         H           -2.274760229110    -3.140892757002    -1.071797604628     1.007825032230
         H            5.834261770890    -0.023115757002     0.188296395372     1.007825032230
         H            5.313385770890    -1.361399757002     1.225348395372     1.007825032230
         H            5.365138770890    -1.568109757002    -0.529212604628     1.007825032230
         H           -4.496710229110    -2.427121757002    -0.176970604628     1.007825032230
         H           -2.356239229110     2.458416242998     0.453882395372     1.007825032230
         H           -3.954180229110     2.048898242998     0.858071395372     1.007825032230

  Basis Set: AUG-CC-PVTZ
    Blend: AUG-CC-PVTZ
  Basis Set: (AUG-CC-PVTZ AUX)
    Blend: AUG-CC-PVTZ-JKFIT
	 Reference Energy          =    -667.2625819711319082 [Eh]
	 Singles Energy            =      -0.0000000000000000 [Eh]
	 Same-Spin Energy          =      -0.7357584311404204 [Eh]
	 Opposite-Spin Energy      =      -2.2663408641543015 [Eh]
	 Correlation Energy        =      -3.0020992952947219 [Eh]
	 Total Energy              =    -670.2646812664265781 [Eh]

	 ================> DF-SCS-MP2 Energies <==================
	-----------------------------------------------------------
	 SCS Same-Spin Scale       =       0.3333333333333333 [-]
	 SCS Opposite-Spin Scale   =       1.2000000000000000 [-]
	 SCS Same-Spin Energy      =      -0.2452528103801401 [Eh]
	 SCS Opposite-Spin Energy  =      -2.7196090369851618 [Eh]
	 SCS Correlation Energy    =      -2.9648618473653019 [Eh]
	 SCS Total Energy          =    -670.2274438184972496 [Eh]
	-----------------------------------------------------------

  Dipole Moment: [D]
     X:     0.2471      Y:    -1.8576      Z:    -0.0915     Total:     1.8762

*** Psi4 exiting successfully. Buy a developer a beer!
