                               Psi4 1.4a3.dev225

  ==> Input File <==

--------------------------------------------------------------------------
#psi4
#
memory 32 gb

molecule  {
0 1
  O       -0.5498120     2.2556960    -0.2996080
  N       -3.0129360     1.7813540     0.8248620
  C        1.0008190     0.4908720    -0.0872200
  C       -1.5329590     0.0859130    -0.1428360
  C       -0.3878030     1.0286420    -0.1846270
  C        3.6793340    -0.3535020     0.1683990
  C       -2.8127890     0.5150010     0.2964470
  C        1.3212360    -0.6095270     0.7211930
  C        2.0273690     1.1786660    -0.7492360
  C        2.6489240    -1.0168440     0.8468500
  C        3.3524600     0.7661851    -0.6478730
  C       -1.3791480    -1.2185740    -0.6492330
  C       -3.8612840    -0.4227650     0.3079770
  C       -2.4390410    -2.1168890    -0.6711390
  C        5.1038640    -0.8322750     0.2664150
  C       -3.6857840    -1.7096250    -0.1856360
  H        0.5383950    -1.1258400     1.2710410
  H        1.7737210     2.0503190    -1.3473030
  H        2.8902070    -1.8603380     1.4919100
  H        4.1335430     1.2826870    -1.1615780
  H       -0.4095800    -1.5185310    -1.0371660
  H       -4.8387790    -0.1097830     0.6721110
  H       -2.3031150    -3.1155080    -1.0770870
  H        5.8059070     0.0022690     0.1830070
  H        5.2850310    -1.3360150     1.2200590
  H        5.3367840    -1.5427250    -0.5345020
  H       -4.5250650    -2.4017370    -0.1822600
  H       -2.3845940     2.4838010     0.4485930
  H       -3.9825350     2.0742830     0.8527820
units angstrom
no_reorient  #important for SAPT in psi4, default
symmetry c1  #important for SAPT in psi4, default
}

set PROPERTIES_ORIGIN ["COM"]
properties('MP2/aug-cc-pvtz', properties = ['dipole'])
--------------------------------------------------------------------------

    Molecular point group: c1
  Charge       = 0
  Multiplicity = 1
  Basis Set: AUG-CC-PVTZ
    Blend: AUG-CC-PVTZ
  Basis Set: (AUG-CC-PVTZ AUX)
    Blend: AUG-CC-PVTZ-JKFIT

    Orbital Energies [Eh]
    ---------------------

    Doubly Occupied:

       1A    -20.537734     2A    -15.559939     3A    -11.338410
       4A    -11.296829     5A    -11.259939     6A    -11.252663
       7A    -11.252177     8A    -11.251282     9A    -11.246288
      10A    -11.243467    11A    -11.239066    12A    -11.238960
      13A    -11.238253    14A    -11.233238    15A    -11.231906
      16A    -11.228239    17A     -1.370846    18A     -1.226479
      19A     -1.163330    20A     -1.136929    21A     -1.068498
      22A     -1.034435    23A     -1.021076    24A     -0.996484
      25A     -0.954327    26A     -0.876328    27A     -0.839290
      28A     -0.836299    29A     -0.811990    30A     -0.766817
      31A     -0.713109    32A     -0.691685    33A     -0.686232
      34A     -0.661003    35A     -0.644293    36A     -0.638082
      37A     -0.614136    38A     -0.603898    39A     -0.600374
      40A     -0.593716    41A     -0.584714    42A     -0.583560
      43A     -0.555765    44A     -0.545439    45A     -0.531622
      46A     -0.518196    47A     -0.513390    48A     -0.504678
      49A     -0.492412    50A     -0.481222    51A     -0.452232
      52A     -0.418946    53A     -0.349649    54A     -0.343350
      55A     -0.332394    56A     -0.300266

  @DF-RHF Final Energy:  -667.27574770197805

   => Energetics <=

    Nuclear Repulsion Energy =            992.4643727644703404
    One-Electron Energy =               -2876.0684835163951902
    Two-Electron Energy =                1216.3283630499470291
    Total Energy =                       -667.2757477019779344
  Basis Set: (AUG-CC-PVTZ AUX)
    Blend: AUG-CC-PVTZ-RI
    Molecular point group: c1

    Geometry (in Angstrom), charge = 0, multiplicity = 1:

       Center              X                  Y                   Z               Mass
    ------------   -----------------  -----------------  -----------------  -----------------
         O           -0.515776012798     2.230635452531    -0.295051078624    15.994914619570
         N           -2.978900012798     1.756293452531     0.829418921376    14.003074004430
         C            1.034854987202     0.465811452531    -0.082663078624    12.000000000000
         C           -1.498923012798     0.060852452531    -0.138279078624    12.000000000000
         C           -0.353767012798     1.003581452531    -0.180070078624    12.000000000000
         C            3.713369987202    -0.378562547469     0.172955921376    12.000000000000
         C           -2.778753012798     0.489940452531     0.301003921376    12.000000000000
         C            1.355271987202    -0.634587547469     0.725749921376    12.000000000000
         C            2.061404987202     1.153605452531    -0.744679078624    12.000000000000
         C            2.682959987202    -1.041904547469     0.851406921376    12.000000000000
         C            3.386495987202     0.741124552531    -0.643316078624    12.000000000000
         C           -1.345112012798    -1.243634547469    -0.644676078624    12.000000000000
         C           -3.827248012798    -0.447825547469     0.312533921376    12.000000000000
         C           -2.405005012798    -2.141949547469    -0.666582078624    12.000000000000
         C            5.137899987202    -0.857335547469     0.270971921376    12.000000000000
         C           -3.651748012798    -1.734685547469    -0.181079078624    12.000000000000
         H            0.572430987202    -1.150900547469     1.275597921376     1.007825032230
         H            1.807756987202     2.025258452531    -1.342746078624     1.007825032230
         H            2.924242987202    -1.885398547469     1.496466921376     1.007825032230
         H            4.167578987202     1.257626452531    -1.157021078624     1.007825032230
         H           -0.375544012798    -1.543591547469    -1.032609078624     1.007825032230
         H           -4.804743012798    -0.134843547469     0.676667921376     1.007825032230
         H           -2.269079012798    -3.140568547469    -1.072530078624     1.007825032230
         H            5.839942987202    -0.022791547469     0.187563921376     1.007825032230
         H            5.319066987202    -1.361075547469     1.224615921376     1.007825032230
         H            5.370819987202    -1.567785547469    -0.529945078624     1.007825032230
         H           -4.491029012798    -2.426797547469    -0.177703078624     1.007825032230
         H           -2.350558012798     2.458740452531     0.453149921376     1.007825032230
         H           -3.948499012798     2.049222452531     0.857338921376     1.007825032230

  Basis Set: AUG-CC-PVTZ
    Blend: AUG-CC-PVTZ
  Basis Set: (AUG-CC-PVTZ AUX)
    Blend: AUG-CC-PVTZ-JKFIT
	 Reference Energy          =    -667.2757477019780481 [Eh]
	 Singles Energy            =      -0.0000000000000000 [Eh]
	 Same-Spin Energy          =      -0.7354562576099195 [Eh]
	 Opposite-Spin Energy      =      -2.2655707078473952 [Eh]
	 Correlation Energy        =      -3.0010269654573145 [Eh]
	 Total Energy              =    -670.2767746674353475 [Eh]

	 ================> DF-SCS-MP2 Energies <==================
	-----------------------------------------------------------
	 SCS Same-Spin Scale       =       0.3333333333333333 [-]
	 SCS Opposite-Spin Scale   =       1.2000000000000000 [-]
	 SCS Same-Spin Energy      =      -0.2451520858699732 [Eh]
	 SCS Opposite-Spin Energy  =      -2.7186848494168743 [Eh]
	 SCS Correlation Energy    =      -2.9638369352868472 [Eh]
	 SCS Total Energy          =    -670.2395846372648975 [Eh]
	-----------------------------------------------------------

  Dipole Moment: [D]
     X:     0.3693      Y:    -1.8130      Z:    -0.1102     Total:     1.8535

*** Psi4 exiting successfully. Buy a developer a beer!
