                               Psi4 1.4a3.dev225

  ==> Input File <==

--------------------------------------------------------------------------
#psi4
#
memory 32 gb

molecule  {
0 1
  O       -0.5498120     2.2556960    -0.2996080
  N       -3.0129360     1.7813540     0.8248620
  C        0.9538715     0.4855159    -0.0744206
  C       -1.5329590     0.0859130    -0.1428360
  C       -0.3878030     1.0286420    -0.1846270
  C        3.6793340    -0.3535020     0.1683990
  C       -2.8127890     0.5150010     0.2964470
  C        1.3212360    -0.6095270     0.7211930
  C        2.0273690     1.1786660    -0.7492360
  C        2.6489240    -1.0168440     0.8468500
  C        3.3454510     0.7479200    -0.6334830
  C       -1.3791480    -1.2185740    -0.6492330
  C       -3.8612840    -0.4227650     0.3079770
  C       -2.4390410    -2.1168890    -0.6711390
  C        5.1038640    -0.8322750     0.2664150
  C       -3.6857840    -1.7096250    -0.1856360
  H        0.5383950    -1.1258400     1.2710410
  H        1.7737210     2.0503190    -1.3473030
  H        2.8902070    -1.8603380     1.4919100
  H        4.1335430     1.2826870    -1.1615780
  H       -0.4095800    -1.5185310    -1.0371660
  H       -4.8387790    -0.1097830     0.6721110
  H       -2.3031150    -3.1155080    -1.0770870
  H        5.8059070     0.0022690     0.1830070
  H        5.2850310    -1.3360150     1.2200590
  H        5.3367840    -1.5427250    -0.5345020
  H       -4.5250650    -2.4017370    -0.1822600
  H       -2.3845940     2.4838010     0.4485930
  H       -3.9825350     2.0742830     0.8527820
units angstrom
no_reorient  #important for SAPT in psi4, default
symmetry c1  #important for SAPT in psi4, default
}

set PROPERTIES_ORIGIN ["COM"]
properties('MP2/aug-cc-pvtz', properties = ['dipole'])
--------------------------------------------------------------------------

    Molecular point group: c1
  Charge       = 0
  Multiplicity = 1
  Basis Set: AUG-CC-PVTZ
    Blend: AUG-CC-PVTZ
  Basis Set: (AUG-CC-PVTZ AUX)
    Blend: AUG-CC-PVTZ-JKFIT

    Orbital Energies [Eh]
    ---------------------

    Doubly Occupied:

       1A    -20.536409     2A    -15.559352     3A    -11.335654
       4A    -11.295999     5A    -11.260369     6A    -11.253161
       7A    -11.252466     8A    -11.252058     9A    -11.251516
      10A    -11.244763    11A    -11.239621    12A    -11.238616
      13A    -11.237883    14A    -11.234688    15A    -11.231325
      16A    -11.227706    17A     -1.370784    18A     -1.225855
      19A     -1.163375    20A     -1.136588    21A     -1.072214
      22A     -1.032756    23A     -1.019930    24A     -0.996014
      25A     -0.958664    26A     -0.878178    27A     -0.838555
      28A     -0.837178    29A     -0.814168    30A     -0.765620
      31A     -0.713175    32A     -0.691129    33A     -0.685896
      34A     -0.662703    35A     -0.644853    36A     -0.636944
      37A     -0.614221    38A     -0.604038    39A     -0.601222
      40A     -0.589422    41A     -0.585564    42A     -0.584515
      43A     -0.556643    44A     -0.544240    45A     -0.531626
      46A     -0.518383    47A     -0.514179    48A     -0.505304
      49A     -0.489414    50A     -0.479829    51A     -0.451680
      52A     -0.420890    53A     -0.349579    54A     -0.344120
      55A     -0.332061    56A     -0.299612

  @DF-RHF Final Energy:  -667.27276324345735

   => Energetics <=

    Nuclear Repulsion Energy =            993.0187490579576206
    One-Electron Energy =               -2877.1576164327334482
    Two-Electron Energy =                1216.8661041313184796
    Total Energy =                       -667.2727632434573479
  Basis Set: (AUG-CC-PVTZ AUX)
    Blend: AUG-CC-PVTZ-RI
    Molecular point group: c1

    Geometry (in Angstrom), charge = 0, multiplicity = 1:

       Center              X                  Y                   Z               Mass
    ------------   -----------------  -----------------  -----------------  -----------------
         O           -0.512708846161     2.231978203758    -0.296596664801    15.994914619570
         N           -2.975832846161     1.757636203758     0.827873335199    14.003074004430
         C            0.990974653839     0.461798103758    -0.071409264801    12.000000000000
         C           -1.495855846161     0.062195203758    -0.139824664801    12.000000000000
         C           -0.350699846161     1.004924203758    -0.181615664801    12.000000000000
         C            3.716437153839    -0.377219796242     0.171410335199    12.000000000000
         C           -2.775685846161     0.491283203758     0.299458335199    12.000000000000
         C            1.358339153839    -0.633244796242     0.724204335199    12.000000000000
         C            2.064472153839     1.154948203758    -0.746224664801    12.000000000000
         C            2.686027153839    -1.040561796242     0.849861335199    12.000000000000
         C            3.382554153839     0.724202203758    -0.630471664801    12.000000000000
         C           -1.342044846161    -1.242291796242    -0.646221664801    12.000000000000
         C           -3.824180846161    -0.446482796242     0.310988335199    12.000000000000
         C           -2.401937846161    -2.140606796242    -0.668127664801    12.000000000000
         C            5.140967153839    -0.855992796242     0.269426335199    12.000000000000
         C           -3.648680846161    -1.733342796242    -0.182624664801    12.000000000000
         H            0.575498153839    -1.149557796242     1.274052335199     1.007825032230
         H            1.810824153839     2.026601203758    -1.344291664801     1.007825032230
         H            2.927310153839    -1.884055796242     1.494921335199     1.007825032230
         H            4.170646153839     1.258969203758    -1.158566664801     1.007825032230
         H           -0.372476846161    -1.542248796242    -1.034154664801     1.007825032230
         H           -4.801675846161    -0.133500796242     0.675122335199     1.007825032230
         H           -2.266011846161    -3.139225796242    -1.074075664801     1.007825032230
         H            5.843010153839    -0.021448796242     0.186018335199     1.007825032230
         H            5.322134153839    -1.359732796242     1.223070335199     1.007825032230
         H            5.373887153839    -1.566442796242    -0.531490664801     1.007825032230
         H           -4.487961846161    -2.425454796242    -0.179248664801     1.007825032230
         H           -2.347490846161     2.460083203758     0.451604335199     1.007825032230
         H           -3.945431846161     2.050565203758     0.855793335199     1.007825032230

  Basis Set: AUG-CC-PVTZ
    Blend: AUG-CC-PVTZ
  Basis Set: (AUG-CC-PVTZ AUX)
    Blend: AUG-CC-PVTZ-JKFIT
	 Reference Energy          =    -667.2727632434573479 [Eh]
	 Singles Energy            =      -0.0000000000000000 [Eh]
	 Same-Spin Energy          =      -0.7359398841356639 [Eh]
	 Opposite-Spin Energy      =      -2.2662911301705639 [Eh]
	 Correlation Energy        =      -3.0022310143062279 [Eh]
	 Total Energy              =    -670.2749942577635238 [Eh]

	 ================> DF-SCS-MP2 Energies <==================
	-----------------------------------------------------------
	 SCS Same-Spin Scale       =       0.3333333333333333 [-]
	 SCS Opposite-Spin Scale   =       1.2000000000000000 [-]
	 SCS Same-Spin Energy      =      -0.2453132947118880 [Eh]
	 SCS Opposite-Spin Energy  =      -2.7195493562046766 [Eh]
	 SCS Correlation Energy    =      -2.9648626509165648 [Eh]
	 SCS Total Energy          =    -670.2376258943738776 [Eh]
	-----------------------------------------------------------

  Dipole Moment: [D]
     X:     0.5030      Y:    -1.8509      Z:    -0.0940     Total:     1.9203

*** Psi4 exiting successfully. Buy a developer a beer!
