                               Psi4 1.4a3.dev225

  ==> Input File <==

--------------------------------------------------------------------------
#psi4
#
memory 32 gb

molecule  {
0 1
  O       -0.5498120     2.2556960    -0.2996080
  N       -3.0129360     1.7813540     0.8248620
  C        1.0008190     0.4908720    -0.0872200
  C       -1.5329590     0.0859130    -0.1428360
  C       -0.3878030     1.0286420    -0.1846270
  C        3.6793340    -0.3535020     0.1683990
  C       -2.8127890     0.5150010     0.2964470
  C        1.3212360    -0.6095270     0.7211930
  C        2.0273690     1.1786660    -0.7492360
  C        2.6489240    -1.0168440     0.8468500
  C        3.3454510     0.7479200    -0.6334830
  C       -1.3791480    -1.2185740    -0.6492330
  C       -4.0103528    -0.5560910     0.3096163
  C       -2.4390410    -2.1168890    -0.6711390
  C        5.1038640    -0.8322750     0.2664150
  C       -3.6857840    -1.7096250    -0.1856360
  H        0.5383950    -1.1258400     1.2710410
  H        1.7737210     2.0503190    -1.3473030
  H        2.8902070    -1.8603380     1.4919100
  H        4.1335430     1.2826870    -1.1615780
  H       -0.4095800    -1.5185310    -1.0371660
  H       -4.8387790    -0.1097830     0.6721110
  H       -2.3031150    -3.1155080    -1.0770870
  H        5.8059070     0.0022690     0.1830070
  H        5.2850310    -1.3360150     1.2200590
  H        5.3367840    -1.5427250    -0.5345020
  H       -4.5250650    -2.4017370    -0.1822600
  H       -2.3845940     2.4838010     0.4485930
  H       -3.9825350     2.0742830     0.8527820
units angstrom
no_reorient  #important for SAPT in psi4, default
symmetry c1  #important for SAPT in psi4, default
}

set PROPERTIES_ORIGIN ["COM"]
properties('MP2/aug-cc-pvtz', properties = ['dipole'])
--------------------------------------------------------------------------

    Molecular point group: c1
  Charge       = 0
  Multiplicity = 1
  Basis Set: AUG-CC-PVTZ
    Blend: AUG-CC-PVTZ
  Basis Set: (AUG-CC-PVTZ AUX)
    Blend: AUG-CC-PVTZ-JKFIT

    Orbital Energies [Eh]
    ---------------------

    Doubly Occupied:

       1A    -20.535411     2A    -15.572514     3A    -11.336448
       4A    -11.317254     5A    -11.256442     6A    -11.250508
       7A    -11.249672     8A    -11.245353     9A    -11.242424
      10A    -11.240221    11A    -11.238309    12A    -11.237719
      13A    -11.236971    14A    -11.232571    15A    -11.232471
      16A    -11.223349    17A     -1.369071    18A     -1.226221
      19A     -1.164254    20A     -1.137661    21A     -1.071293
      22A     -1.043217    23A     -1.020401    24A     -0.985711
      25A     -0.953215    26A     -0.867168    27A     -0.844101
      28A     -0.836603    29A     -0.811143    30A     -0.765837
      31A     -0.716143    32A     -0.696519    33A     -0.687587
      34A     -0.667007    35A     -0.650603    36A     -0.639508
      37A     -0.615269    38A     -0.610921    39A     -0.594884
      40A     -0.591847    41A     -0.584424    42A     -0.580673
      43A     -0.553019    44A     -0.542108    45A     -0.532669
      46A     -0.516663    47A     -0.507714    48A     -0.492859
      49A     -0.486696    50A     -0.481061    51A     -0.458403
      52A     -0.412642    53A     -0.365154    54A     -0.343073
      55A     -0.333065    56A     -0.288162

  @DF-RHF Final Energy:  -667.23808064177365

   => Energetics <=

    Nuclear Repulsion Energy =            989.9402762451741182
    One-Electron Energy =               -2870.9723007275802047
    Two-Electron Energy =                1213.7939438406324371
    Total Energy =                       -667.2380806417736494
  Basis Set: (AUG-CC-PVTZ AUX)
    Blend: AUG-CC-PVTZ-RI
    Molecular point group: c1

    Geometry (in Angstrom), charge = 0, multiplicity = 1:

       Center              X                  Y                   Z               Mass
    ------------   -----------------  -----------------  -----------------  -----------------
         O           -0.506903743082     2.239252675004    -0.295962266974    15.994914619570
         N           -2.970027743082     1.764910675004     0.828507733026    14.003074004430
         C            1.043727256918     0.474428675004    -0.083574266974    12.000000000000
         C           -1.490050743082     0.069469675004    -0.139190266974    12.000000000000
         C           -0.344894743082     1.012198675004    -0.180981266974    12.000000000000
         C            3.722242256918    -0.369945324996     0.172044733026    12.000000000000
         C           -2.769880743082     0.498557675004     0.300092733026    12.000000000000
         C            1.364144256918    -0.625970324996     0.724838733026    12.000000000000
         C            2.070277256918     1.162222675004    -0.745590266974    12.000000000000
         C            2.691832256918    -1.033287324996     0.850495733026    12.000000000000
         C            3.388359256918     0.731476675004    -0.629837266974    12.000000000000
         C           -1.336239743082    -1.235017324996    -0.645587266974    12.000000000000
         C           -3.967444543082    -0.572534324996     0.313262033026    12.000000000000
         C           -2.396132743082    -2.133332324996    -0.667493266974    12.000000000000
         C            5.146772256918    -0.848718324996     0.270060733026    12.000000000000
         C           -3.642875743082    -1.726068324996    -0.181990266974    12.000000000000
         H            0.581303256918    -1.142283324996     1.274686733026     1.007825032230
         H            1.816629256918     2.033875675004    -1.343657266974     1.007825032230
         H            2.933115256918    -1.876781324996     1.495555733026     1.007825032230
         H            4.176451256918     1.266243675004    -1.157932266974     1.007825032230
         H           -0.366671743082    -1.534974324996    -1.033520266974     1.007825032230
         H           -4.795870743082    -0.126226324996     0.675756733026     1.007825032230
         H           -2.260206743082    -3.131951324996    -1.073441266974     1.007825032230
         H            5.848815256918    -0.014174324996     0.186652733026     1.007825032230
         H            5.327939256918    -1.352458324996     1.223704733026     1.007825032230
         H            5.379692256918    -1.559168324996    -0.530856266974     1.007825032230
         H           -4.482156743082    -2.418180324996    -0.178614266974     1.007825032230
         H           -2.341685743082     2.467357675004     0.452238733026     1.007825032230
         H           -3.939626743082     2.057839675004     0.856427733026     1.007825032230

  Basis Set: AUG-CC-PVTZ
    Blend: AUG-CC-PVTZ
  Basis Set: (AUG-CC-PVTZ AUX)
    Blend: AUG-CC-PVTZ-JKFIT
	 Reference Energy          =    -667.2380806417736494 [Eh]
	 Singles Energy            =      -0.0000000000000000 [Eh]
	 Same-Spin Energy          =      -0.7341373843545641 [Eh]
	 Opposite-Spin Energy      =      -2.2659406966597815 [Eh]
	 Correlation Energy        =      -3.0000780810143457 [Eh]
	 Total Energy              =    -670.2381587227879436 [Eh]

	 ================> DF-SCS-MP2 Energies <==================
	-----------------------------------------------------------
	 SCS Same-Spin Scale       =       0.3333333333333333 [-]
	 SCS Opposite-Spin Scale   =       1.2000000000000000 [-]
	 SCS Same-Spin Energy      =      -0.2447124614515214 [Eh]
	 SCS Opposite-Spin Energy  =      -2.7191288359917376 [Eh]
	 SCS Correlation Energy    =      -2.9638412974432589 [Eh]
	 SCS Total Energy          =    -670.2019219392169589 [Eh]
	-----------------------------------------------------------

  Dipole Moment: [D]
     X:     0.1193      Y:    -1.5112      Z:     0.0599     Total:     1.5171

*** Psi4 exiting successfully. Buy a developer a beer!
