                               Psi4 1.4a3.dev225

  ==> Input File <==

--------------------------------------------------------------------------
#psi4
#
memory 32 gb

molecule  {
0 1
  O       -0.5498120     2.2556960    -0.2996080
  N       -3.0129360     1.7813540     0.8248620
  C        1.0008190     0.4908720    -0.0872200
  C       -1.5329590     0.0859130    -0.1428360
  C       -0.3878030     1.0286420    -0.1846270
  C        3.6793340    -0.3535020     0.1683990
  C       -2.8127890     0.5150010     0.2964470
  C        1.3212360    -0.6095270     0.7211930
  C        2.0273690     1.1786660    -0.7492360
  C        2.5867488    -0.9513142     0.8094460
  C        3.3454510     0.7479200    -0.6334830
  C       -1.3791480    -1.2185740    -0.6492330
  C       -3.8612840    -0.4227650     0.3079770
  C       -2.4390410    -2.1168890    -0.6711390
  C        5.1038640    -0.8322750     0.2664150
  C       -3.6857840    -1.7096250    -0.1856360
  H        0.5383950    -1.1258400     1.2710410
  H        1.7737210     2.0503190    -1.3473030
  H        2.8902070    -1.8603380     1.4919100
  H        4.1335430     1.2826870    -1.1615780
  H       -0.4095800    -1.5185310    -1.0371660
  H       -4.8387790    -0.1097830     0.6721110
  H       -2.3031150    -3.1155080    -1.0770870
  H        5.8059070     0.0022690     0.1830070
  H        5.2850310    -1.3360150     1.2200590
  H        5.3367840    -1.5427250    -0.5345020
  H       -4.5250650    -2.4017370    -0.1822600
  H       -2.3845940     2.4838010     0.4485930
  H       -3.9825350     2.0742830     0.8527820
units angstrom
no_reorient  #important for SAPT in psi4, default
symmetry c1  #important for SAPT in psi4, default
}

set PROPERTIES_ORIGIN ["COM"]
properties('MP2/aug-cc-pvtz', properties = ['dipole'])
--------------------------------------------------------------------------

    Molecular point group: c1
  Charge       = 0
  Multiplicity = 1
  Basis Set: AUG-CC-PVTZ
    Blend: AUG-CC-PVTZ
  Basis Set: (AUG-CC-PVTZ AUX)
    Blend: AUG-CC-PVTZ-JKFIT

    Orbital Energies [Eh]
    ---------------------

    Doubly Occupied:

       1A    -20.537566     2A    -15.559996     3A    -11.337699
       4A    -11.296908     5A    -11.257807     6A    -11.252759
       7A    -11.252451     8A    -11.245112     9A    -11.243066
      10A    -11.239995    11A    -11.239116    12A    -11.237745
      13A    -11.237498    14A    -11.236391    15A    -11.232038
      16A    -11.228447    17A     -1.370584    18A     -1.226547
      19A     -1.173627    20A     -1.137336    21A     -1.069676
      22A     -1.034297    23A     -1.029172    24A     -0.996675
      25A     -0.957394    26A     -0.878323    27A     -0.839225
      28A     -0.833814    29A     -0.812671    30A     -0.764760
      31A     -0.712448    32A     -0.692945    33A     -0.686065
      34A     -0.666934    35A     -0.645798    36A     -0.633418
      37A     -0.614274    38A     -0.603849    39A     -0.598413
      40A     -0.586601    41A     -0.584277    42A     -0.582701
      43A     -0.554749    44A     -0.547502    45A     -0.532485
      46A     -0.524507    47A     -0.516660    48A     -0.507449
      49A     -0.486459    50A     -0.474756    51A     -0.452379
      52A     -0.418518    53A     -0.354154    54A     -0.347644
      55A     -0.331342    56A     -0.300384

  @DF-RHF Final Energy:  -667.26388519202692

   => Energetics <=

    Nuclear Repulsion Energy =            994.7144136593569783
    One-Electron Energy =               -2880.5257781946447722
    Two-Electron Energy =                1218.5474793432608749
    Total Energy =                       -667.2638851920269190
  Basis Set: (AUG-CC-PVTZ AUX)
    Blend: AUG-CC-PVTZ-RI
    Molecular point group: c1

    Geometry (in Angstrom), charge = 0, multiplicity = 1:

       Center              X                  Y                   Z               Mass
    ------------   -----------------  -----------------  -----------------  -----------------
         O           -0.511843224903     2.227948682430    -0.293742843787    15.994914619570
         N           -2.974967224903     1.753606682430     0.830727156213    14.003074004430
         C            1.038787775097     0.463124682430    -0.081354843787    12.000000000000
         C           -1.494990224903     0.058165682430    -0.136970843787    12.000000000000
         C           -0.349834224903     1.000894682430    -0.178761843787    12.000000000000
         C            3.717302775097    -0.381249317570     0.174264156213    12.000000000000
         C           -2.774820224903     0.487253682430     0.302312156213    12.000000000000
         C            1.359204775097    -0.637274317570     0.727058156213    12.000000000000
         C            2.065337775097     1.150918682430    -0.743370843787    12.000000000000
         C            2.624717575097    -0.979061517570     0.815311156213    12.000000000000
         C            3.383419775097     0.720172682430    -0.627617843787    12.000000000000
         C           -1.341179224903    -1.246321317570    -0.643367843787    12.000000000000
         C           -3.823315224903    -0.450512317570     0.313842156213    12.000000000000
         C           -2.401072224903    -2.144636317570    -0.665273843787    12.000000000000
         C            5.141832775097    -0.860022317570     0.272280156213    12.000000000000
         C           -3.647815224903    -1.737372317570    -0.179770843787    12.000000000000
         H            0.576363775097    -1.153587317570     1.276906156213     1.007825032230
         H            1.811689775097     2.022571682430    -1.341437843787     1.007825032230
         H            2.928175775097    -1.888085317570     1.497775156213     1.007825032230
         H            4.171511775097     1.254939682430    -1.155712843787     1.007825032230
         H           -0.371611224903    -1.546278317570    -1.031300843787     1.007825032230
         H           -4.800810224903    -0.137530317570     0.677976156213     1.007825032230
         H           -2.265146224903    -3.143255317570    -1.071221843787     1.007825032230
         H            5.843875775097    -0.025478317570     0.188872156213     1.007825032230
         H            5.322999775097    -1.363762317570     1.225924156213     1.007825032230
         H            5.374752775097    -1.570472317570    -0.528636843787     1.007825032230
         H           -4.487096224903    -2.429484317570    -0.176394843787     1.007825032230
         H           -2.346625224903     2.456053682430     0.454458156213     1.007825032230
         H           -3.944566224903     2.046535682430     0.858647156213     1.007825032230

  Basis Set: AUG-CC-PVTZ
    Blend: AUG-CC-PVTZ
  Basis Set: (AUG-CC-PVTZ AUX)
    Blend: AUG-CC-PVTZ-JKFIT
	 Reference Energy          =    -667.2638851920269190 [Eh]
	 Singles Energy            =      -0.0000000000000000 [Eh]
	 Same-Spin Energy          =      -0.7359551659254384 [Eh]
	 Opposite-Spin Energy      =      -2.2660252870976350 [Eh]
	 Correlation Energy        =      -3.0019804530230734 [Eh]
	 Total Energy              =    -670.2658656450499848 [Eh]

	 ================> DF-SCS-MP2 Energies <==================
	-----------------------------------------------------------
	 SCS Same-Spin Scale       =       0.3333333333333333 [-]
	 SCS Opposite-Spin Scale   =       1.2000000000000000 [-]
	 SCS Same-Spin Energy      =      -0.2453183886418128 [Eh]
	 SCS Opposite-Spin Energy  =      -2.7192303445171619 [Eh]
	 SCS Correlation Energy    =      -2.9645487331589746 [Eh]
	 SCS Total Energy          =    -670.2284339251858682 [Eh]
	-----------------------------------------------------------

  Dipole Moment: [D]
     X:     0.3833      Y:    -1.7638      Z:    -0.1560     Total:     1.8117

*** Psi4 exiting successfully. Buy a developer a beer!
