                               Psi4 1.4a3.dev225

  ==> Input File <==

--------------------------------------------------------------------------
#psi4
#
memory 32 gb

molecule  {
0 1
  O       -0.5498120     2.2556960    -0.2996080
  N       -3.0129360     1.7813540     0.8248620
  C        1.0008190     0.4908720    -0.0872200
  C       -1.5093338     0.0904173    -0.1478593
  C       -0.3878030     1.0286420    -0.1846270
  C        3.6793340    -0.3535020     0.1683990
  C       -2.8127890     0.5150010     0.2964470
  C        1.3212360    -0.6095270     0.7211930
  C        2.0273690     1.1786660    -0.7492360
  C        2.6489240    -1.0168440     0.8468500
  C        3.3454510     0.7479200    -0.6334830
  C       -1.3791480    -1.2185740    -0.6492330
  C       -3.8612840    -0.4227650     0.3079770
  C       -2.4390410    -2.1168890    -0.6711390
  C        5.1038640    -0.8322750     0.2664150
  C       -3.6857840    -1.7096250    -0.1856360
  H        0.5383950    -1.1258400     1.2710410
  H        1.7737210     2.0503190    -1.3473030
  H        2.8902070    -1.8603380     1.4919100
  H        4.1335430     1.2826870    -1.1615780
  H       -0.4095800    -1.5185310    -1.0371660
  H       -4.8387790    -0.1097830     0.6721110
  H       -2.3031150    -3.1155080    -1.0770870
  H        5.8059070     0.0022690     0.1830070
  H        5.2850310    -1.3360150     1.2200590
  H        5.3367840    -1.5427250    -0.5345020
  H       -4.5250650    -2.4017370    -0.1822600
  H       -2.3845940     2.4838010     0.4485930
  H       -3.9825350     2.0742830     0.8527820
units angstrom
no_reorient  #important for SAPT in psi4, default
symmetry c1  #important for SAPT in psi4, default
}

set PROPERTIES_ORIGIN ["COM"]
properties('MP2/aug-cc-pvtz', properties = ['dipole'])
--------------------------------------------------------------------------

    Molecular point group: c1
  Charge       = 0
  Multiplicity = 1
  Basis Set: AUG-CC-PVTZ
    Blend: AUG-CC-PVTZ
  Basis Set: (AUG-CC-PVTZ AUX)
    Blend: AUG-CC-PVTZ-JKFIT

    Orbital Energies [Eh]
    ---------------------

    Doubly Occupied:

       1A    -20.536751     2A    -15.561228     3A    -11.336617
       4A    -11.300478     5A    -11.256868     6A    -11.254328
       7A    -11.253488     8A    -11.250070     9A    -11.245710
      10A    -11.242743    11A    -11.239516    12A    -11.238695
      13A    -11.237383    14A    -11.232917    15A    -11.231988
      16A    -11.228398    17A     -1.370569    18A     -1.226441
      19A     -1.164832    20A     -1.136961    21A     -1.070134
      22A     -1.035688    23A     -1.020246    24A     -0.995924
      25A     -0.954002    26A     -0.879781    27A     -0.838112
      28A     -0.834984    29A     -0.813255    30A     -0.766485
      31A     -0.712728    32A     -0.693340    33A     -0.686939
      34A     -0.661251    35A     -0.644914    36A     -0.636278
      37A     -0.613400    38A     -0.603979    39A     -0.600009
      40A     -0.592156    41A     -0.584341    42A     -0.583638
      43A     -0.555575    44A     -0.544283    45A     -0.533234
      46A     -0.517439    47A     -0.512732    48A     -0.502947
      49A     -0.493071    50A     -0.481609    51A     -0.452877
      52A     -0.419839    53A     -0.350409    54A     -0.342807
      55A     -0.333524    56A     -0.299441

  @DF-RHF Final Energy:  -667.27554066055211

   => Energetics <=

    Nuclear Repulsion Energy =            992.9271869098859042
    One-Electron Energy =               -2876.9907503327108316
    Two-Electron Energy =                1216.7880227622729308
    Total Energy =                       -667.2755406605519966
  Basis Set: (AUG-CC-PVTZ AUX)
    Blend: AUG-CC-PVTZ-RI
    Molecular point group: c1

    Geometry (in Angstrom), charge = 0, multiplicity = 1:

       Center              X                  Y                   Z               Mass
    ------------   -----------------  -----------------  -----------------  -----------------
         O           -0.516720563580     2.231417687603    -0.295583530317    15.994914619570
         N           -2.979844563580     1.757075687603     0.828886469683    14.003074004430
         C            1.033910436420     0.466593687603    -0.083195530317    12.000000000000
         C           -1.476242363580     0.066138987603    -0.143834830317    12.000000000000
         C           -0.354711563580     1.004363687603    -0.180602530317    12.000000000000
         C            3.712425436420    -0.377780312397     0.172423469683    12.000000000000
         C           -2.779697563580     0.490722687603     0.300471469683    12.000000000000
         C            1.354327436420    -0.633805312397     0.725217469683    12.000000000000
         C            2.060460436420     1.154387687603    -0.745211530317    12.000000000000
         C            2.682015436420    -1.041122312397     0.850874469683    12.000000000000
         C            3.378542436420     0.723641687603    -0.629458530317    12.000000000000
         C           -1.346056563580    -1.242852312397    -0.645208530317    12.000000000000
         C           -3.828192563580    -0.447043312397     0.312001469683    12.000000000000
         C           -2.405949563580    -2.141167312397    -0.667114530317    12.000000000000
         C            5.136955436420    -0.856553312397     0.270439469683    12.000000000000
         C           -3.652692563580    -1.733903312397    -0.181611530317    12.000000000000
         H            0.571486436420    -1.150118312397     1.275065469683     1.007825032230
         H            1.806812436420     2.026040687603    -1.343278530317     1.007825032230
         H            2.923298436420    -1.884616312397     1.495934469683     1.007825032230
         H            4.166634436420     1.258408687603    -1.157553530317     1.007825032230
         H           -0.376488563580    -1.542809312397    -1.033141530317     1.007825032230
         H           -4.805687563580    -0.134061312397     0.676135469683     1.007825032230
         H           -2.270023563580    -3.139786312397    -1.073062530317     1.007825032230
         H            5.838998436420    -0.022009312397     0.187031469683     1.007825032230
         H            5.318122436420    -1.360293312397     1.224083469683     1.007825032230
         H            5.369875436420    -1.567003312397    -0.530477530317     1.007825032230
         H           -4.491973563580    -2.426015312397    -0.178235530317     1.007825032230
         H           -2.351502563580     2.459522687603     0.452617469683     1.007825032230
         H           -3.949443563580     2.050004687603     0.856806469683     1.007825032230

  Basis Set: AUG-CC-PVTZ
    Blend: AUG-CC-PVTZ
  Basis Set: (AUG-CC-PVTZ AUX)
    Blend: AUG-CC-PVTZ-JKFIT
	 Reference Energy          =    -667.2755406605521102 [Eh]
	 Singles Energy            =      -0.0000000000000000 [Eh]
	 Same-Spin Energy          =      -0.7356818049149496 [Eh]
	 Opposite-Spin Energy      =      -2.2657135080586972 [Eh]
	 Correlation Energy        =      -3.0013953129736466 [Eh]
	 Total Energy              =    -670.2769359735257240 [Eh]

	 ================> DF-SCS-MP2 Energies <==================
	-----------------------------------------------------------
	 SCS Same-Spin Scale       =       0.3333333333333333 [-]
	 SCS Opposite-Spin Scale   =       1.2000000000000000 [-]
	 SCS Same-Spin Energy      =      -0.2452272683049832 [Eh]
	 SCS Opposite-Spin Energy  =      -2.7188562096704367 [Eh]
	 SCS Correlation Energy    =      -2.9640834779754197 [Eh]
	 SCS Total Energy          =    -670.2396241385275744 [Eh]
	-----------------------------------------------------------

  Dipole Moment: [D]
     X:     0.2606      Y:    -1.8296      Z:    -0.0909     Total:     1.8503

*** Psi4 exiting successfully. Buy a developer a beer!
