                               Psi4 1.4a3.dev225

  ==> Input File <==

--------------------------------------------------------------------------
#psi4
#
memory 32 gb

molecule  {
0 1
  O       -0.5498120     2.2556960    -0.2996080
  N       -3.0129360     1.7813540     0.8248620
  C        1.0008190     0.4908720    -0.0872200
  C       -1.5329590     0.0859130    -0.1428360
  C       -0.3878030     1.0286420    -0.1846270
  C        3.6793340    -0.3535020     0.1683990
  C       -2.8127890     0.5150010     0.2964470
  C        1.3212360    -0.6095270     0.7211930
  C        2.0273690     1.1786660    -0.7492360
  C        2.6489240    -1.0168440     0.8468500
  C        3.3454510     0.7479200    -0.6334830
  C       -1.3791480    -1.2185740    -0.6492330
  C       -3.8612840    -0.4227650     0.3079770
  C       -2.4390410    -2.1168890    -0.6711390
  C        4.9146867    -0.7686941     0.2533985
  C       -3.6857840    -1.7096250    -0.1856360
  H        0.5383950    -1.1258400     1.2710410
  H        1.7737210     2.0503190    -1.3473030
  H        2.8902070    -1.8603380     1.4919100
  H        4.1335430     1.2826870    -1.1615780
  H       -0.4095800    -1.5185310    -1.0371660
  H       -4.8387790    -0.1097830     0.6721110
  H       -2.3031150    -3.1155080    -1.0770870
  H        5.8059070     0.0022690     0.1830070
  H        5.2850310    -1.3360150     1.2200590
  H        5.3367840    -1.5427250    -0.5345020
  H       -4.5250650    -2.4017370    -0.1822600
  H       -2.3845940     2.4838010     0.4485930
  H       -3.9825350     2.0742830     0.8527820
units angstrom
no_reorient  #important for SAPT in psi4, default
symmetry c1  #important for SAPT in psi4, default
}

set PROPERTIES_ORIGIN ["COM"]
properties('MP2/aug-cc-pvtz', properties = ['dipole'])
--------------------------------------------------------------------------

    Molecular point group: c1
  Charge       = 0
  Multiplicity = 1
  Basis Set: AUG-CC-PVTZ
    Blend: AUG-CC-PVTZ
  Basis Set: (AUG-CC-PVTZ AUX)
    Blend: AUG-CC-PVTZ-JKFIT

    Orbital Energies [Eh]
    ---------------------

    Doubly Occupied:

       1A    -20.538330     2A    -15.560244     3A    -11.338832
       4A    -11.297146     5A    -11.252950     6A    -11.252532
       7A    -11.251195     8A    -11.246941     9A    -11.245895
      10A    -11.244316    11A    -11.243476    12A    -11.239861
      13A    -11.239399    14A    -11.238569    15A    -11.232191
      16A    -11.228542    17A     -1.371407    18A     -1.226791
      19A     -1.177037    20A     -1.138144    21A     -1.092157
      22A     -1.039102    23A     -1.022334    24A     -0.996958
      25A     -0.955130    26A     -0.873697    27A     -0.843055
      28A     -0.833758    29A     -0.811202    30A     -0.767162
      31A     -0.713597    32A     -0.696501    33A     -0.686694
      34A     -0.672479    35A     -0.656506    36A     -0.640312
      37A     -0.615064    38A     -0.610296    39A     -0.603093
      40A     -0.593218    41A     -0.586909    42A     -0.573447
      43A     -0.555010    44A     -0.539188    45A     -0.534337
      46A     -0.518486    47A     -0.512677    48A     -0.504449
      49A     -0.475674    50A     -0.472895    51A     -0.452476
      52A     -0.419355    53A     -0.350104    54A     -0.344104
      55A     -0.326362    56A     -0.300504

  @DF-RHF Final Energy:  -667.22395270766174

   => Energetics <=

    Nuclear Repulsion Energy =            996.9208467235828266
    One-Electron Energy =               -2884.7854180047361297
    Two-Electron Energy =                1220.6406185734915653
    Total Energy =                       -667.2239527076617378
  Basis Set: (AUG-CC-PVTZ AUX)
    Blend: AUG-CC-PVTZ-RI
    Molecular point group: c1

    Geometry (in Angstrom), charge = 0, multiplicity = 1:

       Center              X                  Y                   Z               Mass
    ------------   -----------------  -----------------  -----------------  -----------------
         O           -0.504623768416     2.228059467990    -0.295129155471    15.994914619570
         N           -2.967747768416     1.753717467990     0.829340844529    14.003074004430
         C            1.046007231584     0.463235467990    -0.082741155471    12.000000000000
         C           -1.487770768416     0.058276467990    -0.138357155471    12.000000000000
         C           -0.342614768416     1.001005467990    -0.180148155471    12.000000000000
         C            3.724522231584    -0.381138532010     0.172877844529    12.000000000000
         C           -2.767600768416     0.487364467990     0.300925844529    12.000000000000
         C            1.366424231584    -0.637163532010     0.725671844529    12.000000000000
         C            2.072557231584     1.151029467990    -0.744757155471    12.000000000000
         C            2.694112231584    -1.044480532010     0.851328844529    12.000000000000
         C            3.390639231584     0.720283467990    -0.629004155471    12.000000000000
         C           -1.333959768416    -1.246210532010    -0.644754155471    12.000000000000
         C           -3.816095768416    -0.450401532010     0.312455844529    12.000000000000
         C           -2.393852768416    -2.144525532010    -0.666660155471    12.000000000000
         C            4.959874931584    -0.796330632010     0.257877344529    12.000000000000
         C           -3.640595768416    -1.737261532010    -0.181157155471    12.000000000000
         H            0.583583231584    -1.153476532010     1.275519844529     1.007825032230
         H            1.818909231584     2.022682467990    -1.342824155471     1.007825032230
         H            2.935395231584    -1.887974532010     1.496388844529     1.007825032230
         H            4.178731231584     1.255050467990    -1.157099155471     1.007825032230
         H           -0.364391768416    -1.546167532010    -1.032687155471     1.007825032230
         H           -4.793590768416    -0.137419532010     0.676589844529     1.007825032230
         H           -2.257926768416    -3.143144532010    -1.072608155471     1.007825032230
         H            5.851095231584    -0.025367532010     0.187485844529     1.007825032230
         H            5.330219231584    -1.363651532010     1.224537844529     1.007825032230
         H            5.381972231584    -1.570361532010    -0.530023155471     1.007825032230
         H           -4.479876768416    -2.429373532010    -0.177781155471     1.007825032230
         H           -2.339405768416     2.456164467990     0.453071844529     1.007825032230
         H           -3.937346768416     2.046646467990     0.857260844529     1.007825032230

  Basis Set: AUG-CC-PVTZ
    Blend: AUG-CC-PVTZ
  Basis Set: (AUG-CC-PVTZ AUX)
    Blend: AUG-CC-PVTZ-JKFIT
	 Reference Energy          =    -667.2239527076617378 [Eh]
	 Singles Energy            =      -0.0000000000000000 [Eh]
	 Same-Spin Energy          =      -0.7391555121269044 [Eh]
	 Opposite-Spin Energy      =      -2.2702476173991055 [Eh]
	 Correlation Energy        =      -3.0094031295260102 [Eh]
	 Total Energy              =    -670.2333558371877871 [Eh]

	 ================> DF-SCS-MP2 Energies <==================
	-----------------------------------------------------------
	 SCS Same-Spin Scale       =       0.3333333333333333 [-]
	 SCS Opposite-Spin Scale   =       1.2000000000000000 [-]
	 SCS Same-Spin Energy      =      -0.2463851707089681 [Eh]
	 SCS Opposite-Spin Energy  =      -2.7242971408789267 [Eh]
	 SCS Correlation Energy    =      -2.9706823115878946 [Eh]
	 SCS Total Energy          =    -670.1946350192496311 [Eh]
	-----------------------------------------------------------

  Dipole Moment: [D]
     X:     0.3522      Y:    -1.8234      Z:    -0.1160     Total:     1.8607

*** Psi4 exiting successfully. Buy a developer a beer!
