                               Psi4 1.4a3.dev225

  ==> Input File <==

--------------------------------------------------------------------------
#psi4
#
memory 32 gb

molecule  {
0 1
  O       -0.5498120     2.2556960    -0.2996080
  N       -3.0129360     1.7813540     0.8248620
  C        1.0008190     0.4908720    -0.0872200
  C       -1.5329590     0.0859130    -0.1428360
  C       -0.3878030     1.0286420    -0.1846270
  C        3.6793340    -0.3535020     0.1683990
  C       -2.8127890     0.5150010     0.2964470
  C        1.3212360    -0.6095270     0.7211930
  C        2.0273690     1.1786660    -0.7492360
  C        2.6489240    -1.0168440     0.8468500
  C        3.3454510     0.7479200    -0.6334830
  C       -1.3791480    -1.2185740    -0.6492330
  C       -3.8612840    -0.4227650     0.3079770
  C       -2.4390410    -2.1168890    -0.6711390
  C        5.1038640    -0.8322750     0.2664150
  C       -3.6857840    -1.7096250    -0.1856360
  H        0.5383950    -1.1258400     1.2710410
  H        1.7853872     2.0102285    -1.3197957
  H        2.8902070    -1.8603380     1.4919100
  H        4.1335430     1.2826870    -1.1615780
  H       -0.4095800    -1.5185310    -1.0371660
  H       -4.8387790    -0.1097830     0.6721110
  H       -2.3031150    -3.1155080    -1.0770870
  H        5.8059070     0.0022690     0.1830070
  H        5.2850310    -1.3360150     1.2200590
  H        5.3367840    -1.5427250    -0.5345020
  H       -4.5250650    -2.4017370    -0.1822600
  H       -2.3845940     2.4838010     0.4485930
  H       -3.9825350     2.0742830     0.8527820
units angstrom
no_reorient  #important for SAPT in psi4, default
symmetry c1  #important for SAPT in psi4, default
}

set PROPERTIES_ORIGIN ["COM"]
properties('MP2/aug-cc-pvtz', properties = ['dipole'])
--------------------------------------------------------------------------

    Molecular point group: c1
  Charge       = 0
  Multiplicity = 1
  Basis Set: AUG-CC-PVTZ
    Blend: AUG-CC-PVTZ
  Basis Set: (AUG-CC-PVTZ AUX)
    Blend: AUG-CC-PVTZ-JKFIT

    Orbital Energies [Eh]
    ---------------------

    Doubly Occupied:

       1A    -20.538096     2A    -15.560032     3A    -11.338500
       4A    -11.296902     5A    -11.257155     6A    -11.252727
       7A    -11.252257     8A    -11.250361     9A    -11.243504
      10A    -11.240660    11A    -11.239107    12A    -11.239066
      13A    -11.237519    14A    -11.233134    15A    -11.231962
      16A    -11.228298    17A     -1.371154    18A     -1.226568
      19A     -1.165353    20A     -1.137110    21A     -1.069634
      22A     -1.035125    23A     -1.021669    24A     -0.996554
      25A     -0.954502    26A     -0.877444    27A     -0.840745
      28A     -0.836422    29A     -0.814517    30A     -0.766898
      31A     -0.712890    32A     -0.692446    33A     -0.686260
      34A     -0.662376    35A     -0.647996    36A     -0.637531
      37A     -0.614482    38A     -0.603744    39A     -0.599840
      40A     -0.595603    41A     -0.584756    42A     -0.583776
      43A     -0.555968    44A     -0.544650    45A     -0.532033
      46A     -0.518015    47A     -0.513503    48A     -0.505371
      49A     -0.495174    50A     -0.481983    51A     -0.452296
      52A     -0.418934    53A     -0.349715    54A     -0.343026
      55A     -0.333846    56A     -0.300359

  @DF-RHF Final Energy:  -667.27591243777454

   => Energetics <=

    Nuclear Repulsion Energy =            993.1503080457574697
    One-Electron Energy =               -2877.4133482247416396
    Two-Electron Energy =                1216.9871277412098607
    Total Energy =                       -667.2759124377744229
  Basis Set: (AUG-CC-PVTZ AUX)
    Blend: AUG-CC-PVTZ-RI
    Molecular point group: c1

    Geometry (in Angstrom), charge = 0, multiplicity = 1:

       Center              X                  Y                   Z               Mass
    ------------   -----------------  -----------------  -----------------  -----------------
         O           -0.515433281346     2.231865134014    -0.296000405090    15.994914619570
         N           -2.978557281346     1.757523134014     0.828469594910    14.003074004430
         C            1.035197718654     0.467041134014    -0.083612405090    12.000000000000
         C           -1.498580281346     0.062082134014    -0.139228405090    12.000000000000
         C           -0.353424281346     1.004811134014    -0.181019405090    12.000000000000
         C            3.713712718654    -0.377332865986     0.172006594910    12.000000000000
         C           -2.778410281346     0.491170134014     0.300054594910    12.000000000000
         C            1.355614718654    -0.633357865986     0.724800594910    12.000000000000
         C            2.061747718654     1.154835134014    -0.745628405090    12.000000000000
         C            2.683302718654    -1.040674865986     0.850457594910    12.000000000000
         C            3.379829718654     0.724089134014    -0.629875405090    12.000000000000
         C           -1.344769281346    -1.242404865986    -0.645625405090    12.000000000000
         C           -3.826905281346    -0.446595865986     0.311584594910    12.000000000000
         C           -2.404662281346    -2.140719865986    -0.667531405090    12.000000000000
         C            5.138242718654    -0.856105865986     0.270022594910    12.000000000000
         C           -3.651405281346    -1.733455865986    -0.182028405090    12.000000000000
         H            0.572773718654    -1.149670865986     1.274648594910     1.007825032230
         H            1.819765918654     1.986397634014    -1.316188105090     1.007825032230
         H            2.924585718654    -1.884168865986     1.495517594910     1.007825032230
         H            4.167921718654     1.258856134014    -1.157970405090     1.007825032230
         H           -0.375201281346    -1.542361865986    -1.033558405090     1.007825032230
         H           -4.804400281346    -0.133613865986     0.675718594910     1.007825032230
         H           -2.268736281346    -3.139338865986    -1.073479405090     1.007825032230
         H            5.840285718654    -0.021561865986     0.186614594910     1.007825032230
         H            5.319409718654    -1.359845865986     1.223666594910     1.007825032230
         H            5.371162718654    -1.566555865986    -0.530894405090     1.007825032230
         H           -4.490686281346    -2.425567865986    -0.178652405090     1.007825032230
         H           -2.350215281346     2.459970134014     0.452200594910     1.007825032230
         H           -3.948156281346     2.050452134014     0.856389594910     1.007825032230

  Basis Set: AUG-CC-PVTZ
    Blend: AUG-CC-PVTZ
  Basis Set: (AUG-CC-PVTZ AUX)
    Blend: AUG-CC-PVTZ-JKFIT
	 Reference Energy          =    -667.2759124377745366 [Eh]
	 Singles Energy            =      -0.0000000000000000 [Eh]
	 Same-Spin Energy          =      -0.7353698739755672 [Eh]
	 Opposite-Spin Energy      =      -2.2651125711105076 [Eh]
	 Correlation Energy        =      -3.0004824450860745 [Eh]
	 Total Energy              =    -670.2763948828605862 [Eh]

	 ================> DF-SCS-MP2 Energies <==================
	-----------------------------------------------------------
	 SCS Same-Spin Scale       =       0.3333333333333333 [-]
	 SCS Opposite-Spin Scale   =       1.2000000000000000 [-]
	 SCS Same-Spin Energy      =      -0.2451232913251891 [Eh]
	 SCS Opposite-Spin Energy  =      -2.7181350853326092 [Eh]
	 SCS Correlation Energy    =      -2.9632583766577980 [Eh]
	 SCS Total Energy          =    -670.2391708144323275 [Eh]
	-----------------------------------------------------------

  Dipole Moment: [D]
     X:     0.3537      Y:    -1.8149      Z:    -0.1092     Total:     1.8522

*** Psi4 exiting successfully. Buy a developer a beer!
