                               Psi4 1.4a3.dev225

  ==> Input File <==

--------------------------------------------------------------------------
#psi4
#
memory 32 gb

molecule  {
0 1
  O       -0.5498120     2.2556960    -0.2996080
  N       -3.0129360     1.7813540     0.8248620
  C        1.0008190     0.4908720    -0.0872200
  C       -1.5329590     0.0859130    -0.1428360
  C       -0.3878030     1.0286420    -0.1846270
  C        3.6793340    -0.3535020     0.1683990
  C       -2.8127890     0.5150010     0.2964470
  C        1.3212360    -0.6095270     0.7211930
  C        2.0273690     1.1786660    -0.7492360
  C        2.6489240    -1.0168440     0.8468500
  C        3.3454510     0.7479200    -0.6334830
  C       -1.3791480    -1.2185740    -0.6492330
  C       -3.8463771    -0.4094324     0.3078131
  C       -2.4390410    -2.1168890    -0.6711390
  C        5.1038640    -0.8322750     0.2664150
  C       -3.6857840    -1.7096250    -0.1856360
  H        0.5383950    -1.1258400     1.2710410
  H        1.7737210     2.0503190    -1.3473030
  H        2.8902070    -1.8603380     1.4919100
  H        4.1335430     1.2826870    -1.1615780
  H       -0.4095800    -1.5185310    -1.0371660
  H       -4.8387790    -0.1097830     0.6721110
  H       -2.3031150    -3.1155080    -1.0770870
  H        5.8059070     0.0022690     0.1830070
  H        5.2850310    -1.3360150     1.2200590
  H        5.3367840    -1.5427250    -0.5345020
  H       -4.5250650    -2.4017370    -0.1822600
  H       -2.3845940     2.4838010     0.4485930
  H       -3.9825350     2.0742830     0.8527820
units angstrom
no_reorient  #important for SAPT in psi4, default
symmetry c1  #important for SAPT in psi4, default
}

set PROPERTIES_ORIGIN ["COM"]
properties('MP2/aug-cc-pvtz', properties = ['dipole'])
--------------------------------------------------------------------------

    Molecular point group: c1
  Charge       = 0
  Multiplicity = 1
  Basis Set: AUG-CC-PVTZ
    Blend: AUG-CC-PVTZ
  Basis Set: (AUG-CC-PVTZ AUX)
    Blend: AUG-CC-PVTZ-JKFIT

    Orbital Energies [Eh]
    ---------------------

    Doubly Occupied:

       1A    -20.538200     2A    -15.558429     3A    -11.338624
       4A    -11.293788     5A    -11.257414     6A    -11.254236
       7A    -11.252613     8A    -11.250665     9A    -11.246403
      10A    -11.243647    11A    -11.239818    12A    -11.239174
      13A    -11.237883    14A    -11.233290    15A    -11.231320
      16A    -11.228969    17A     -1.371204    18A     -1.226734
      19A     -1.165279    20A     -1.137121    21A     -1.069488
      22A     -1.033803    23A     -1.020570    24A     -0.998394
      25A     -0.954650    26A     -0.878173    27A     -0.838673
      28A     -0.836182    29A     -0.812943    30A     -0.766374
      31A     -0.712472    32A     -0.691612    33A     -0.685798
      34A     -0.661207    35A     -0.644889    36A     -0.636144
      37A     -0.614069    38A     -0.605275    39A     -0.599244
      40A     -0.592644    41A     -0.584511    42A     -0.582728
      43A     -0.556175    44A     -0.545028    45A     -0.532981
      46A     -0.518414    47A     -0.513338    48A     -0.503744
      49A     -0.493568    50A     -0.482001    51A     -0.451671
      52A     -0.419258    53A     -0.348604    54A     -0.342837
      55A     -0.334048    56A     -0.302043

  @DF-RHF Final Energy:  -667.27596670608398

   => Energetics <=

    Nuclear Repulsion Energy =            993.2045019030141475
    One-Electron Energy =               -2877.5442117418469934
    Two-Electron Energy =                1217.0637431327486411
    Total Energy =                       -667.2759667060840911
  Basis Set: (AUG-CC-PVTZ AUX)
    Blend: AUG-CC-PVTZ-RI
    Molecular point group: c1

    Geometry (in Angstrom), charge = 0, multiplicity = 1:

       Center              X                  Y                   Z               Mass
    ------------   -----------------  -----------------  -----------------  -----------------
         O           -0.516224970299     2.230915841352    -0.295859763756    15.994914619570
         N           -2.979348970299     1.756573841352     0.828610236244    14.003074004430
         C            1.034406029701     0.466091841352    -0.083471763756    12.000000000000
         C           -1.499371970299     0.061132841352    -0.139087763756    12.000000000000
         C           -0.354215970299     1.003861841352    -0.180878763756    12.000000000000
         C            3.712921029701    -0.378282158648     0.172147236244    12.000000000000
         C           -2.779201970299     0.490220841352     0.300195236244    12.000000000000
         C            1.354823029701    -0.634307158648     0.724941236244    12.000000000000
         C            2.060956029701     1.153885841352    -0.745487763756    12.000000000000
         C            2.682511029701    -1.041624158648     0.850598236244    12.000000000000
         C            3.379038029701     0.723139841352    -0.629734763756    12.000000000000
         C           -1.345560970299    -1.243354158648    -0.645484763756    12.000000000000
         C           -3.812790070299    -0.434212558648     0.311561336244    12.000000000000
         C           -2.405453970299    -2.141669158648    -0.667390763756    12.000000000000
         C            5.137451029701    -0.857055158648     0.270163236244    12.000000000000
         C           -3.652196970299    -1.734405158648    -0.181887763756    12.000000000000
         H            0.571982029701    -1.150620158648     1.274789236244     1.007825032230
         H            1.807308029701     2.025538841352    -1.343554763756     1.007825032230
         H            2.923794029701    -1.885118158648     1.495658236244     1.007825032230
         H            4.167130029701     1.257906841352    -1.157829763756     1.007825032230
         H           -0.375992970299    -1.543311158648    -1.033417763756     1.007825032230
         H           -4.805191970299    -0.134563158648     0.675859236244     1.007825032230
         H           -2.269527970299    -3.140288158648    -1.073338763756     1.007825032230
         H            5.839494029701    -0.022511158648     0.186755236244     1.007825032230
         H            5.318618029701    -1.360795158648     1.223807236244     1.007825032230
         H            5.370371029701    -1.567505158648    -0.530753763756     1.007825032230
         H           -4.491477970299    -2.426517158648    -0.178511763756     1.007825032230
         H           -2.351006970299     2.459020841352     0.452341236244     1.007825032230
         H           -3.948947970299     2.049502841352     0.856530236244     1.007825032230

  Basis Set: AUG-CC-PVTZ
    Blend: AUG-CC-PVTZ
  Basis Set: (AUG-CC-PVTZ AUX)
    Blend: AUG-CC-PVTZ-JKFIT
	 Reference Energy          =    -667.2759667060839774 [Eh]
	 Singles Energy            =      -0.0000000000000000 [Eh]
	 Same-Spin Energy          =      -0.7356409183791118 [Eh]
	 Opposite-Spin Energy      =      -2.2656596602501793 [Eh]
	 Correlation Energy        =      -3.0013005786292912 [Eh]
	 Total Energy              =    -670.2772672847132753 [Eh]

	 ================> DF-SCS-MP2 Energies <==================
	-----------------------------------------------------------
	 SCS Same-Spin Scale       =       0.3333333333333333 [-]
	 SCS Opposite-Spin Scale   =       1.2000000000000000 [-]
	 SCS Same-Spin Energy      =      -0.2452136394597039 [Eh]
	 SCS Opposite-Spin Energy  =      -2.7187915923002151 [Eh]
	 SCS Correlation Energy    =      -2.9640052317599190 [Eh]
	 SCS Total Energy          =    -670.2399719378438476 [Eh]
	-----------------------------------------------------------

  Dipole Moment: [D]
     X:     0.3772      Y:    -1.8544      Z:    -0.1262     Total:     1.8966

*** Psi4 exiting successfully. Buy a developer a beer!
