                               Psi4 1.4a3.dev225

  ==> Input File <==

--------------------------------------------------------------------------
#psi4
#
memory 32 gb

molecule  {
0 1
  O       -0.5498120     2.2556960    -0.2996080
  N       -3.0129360     1.7813540     0.8248620
  C        1.0008190     0.4908720    -0.0872200
  C       -1.5329590     0.0859130    -0.1428360
  C       -0.3878030     1.0286420    -0.1846270
  C        3.6793340    -0.3535020     0.1683990
  C       -2.8127890     0.5150010     0.2964470
  C        1.3212360    -0.6095270     0.7211930
  C        2.0273690     1.1786660    -0.7492360
  C        2.6489240    -1.0168440     0.8468500
  C        3.3454510     0.7479200    -0.6334830
  C       -1.3791480    -1.2185740    -0.6492330
  C       -3.8612840    -0.4227650     0.3079770
  C       -2.4390410    -2.1168890    -0.6711390
  C        5.1038640    -0.8322750     0.2664150
  C       -3.6857840    -1.7096250    -0.1856360
  H        0.6104079    -1.0783448     1.2204609
  H        1.7737210     2.0503190    -1.3473030
  H        2.8902070    -1.8603380     1.4919100
  H        4.1335430     1.2826870    -1.1615780
  H       -0.4095800    -1.5185310    -1.0371660
  H       -4.8387790    -0.1097830     0.6721110
  H       -2.3031150    -3.1155080    -1.0770870
  H        5.8059070     0.0022690     0.1830070
  H        5.2850310    -1.3360150     1.2200590
  H        5.3367840    -1.5427250    -0.5345020
  H       -4.5250650    -2.4017370    -0.1822600
  H       -2.3845940     2.4838010     0.4485930
  H       -3.9825350     2.0742830     0.8527820
units angstrom
no_reorient  #important for SAPT in psi4, default
symmetry c1  #important for SAPT in psi4, default
}

set PROPERTIES_ORIGIN ["COM"]
properties('MP2/aug-cc-pvtz', properties = ['dipole'])
--------------------------------------------------------------------------

    Molecular point group: c1
  Charge       = 0
  Multiplicity = 1
  Basis Set: AUG-CC-PVTZ
    Blend: AUG-CC-PVTZ
  Basis Set: (AUG-CC-PVTZ AUX)
    Blend: AUG-CC-PVTZ-JKFIT

    Orbital Energies [Eh]
    ---------------------

    Doubly Occupied:

       1A    -20.537971     2A    -15.560122     3A    -11.338428
       4A    -11.297039     5A    -11.256859     6A    -11.252858
       7A    -11.252510     8A    -11.245763     9A    -11.242990
      10A    -11.239414    11A    -11.239356    12A    -11.238142
      13A    -11.237638    14A    -11.232955    15A    -11.232128
      16A    -11.228494    17A     -1.371037    18A     -1.226676
      19A     -1.165643    20A     -1.137241    21A     -1.070198
      22A     -1.034555    23A     -1.023783    24A     -0.996712
      25A     -0.954333    26A     -0.877382    27A     -0.845873
      28A     -0.837402    29A     -0.813222    30A     -0.767551
      31A     -0.714006    32A     -0.693671    33A     -0.686437
      34A     -0.663983    35A     -0.649698    36A     -0.640094
      37A     -0.614272    38A     -0.604055    39A     -0.600454
      40A     -0.595731    41A     -0.584755    42A     -0.583628
      43A     -0.556594    44A     -0.544586    45A     -0.531946
      46A     -0.518383    47A     -0.513585    48A     -0.505076
      49A     -0.495715    50A     -0.481873    51A     -0.452611
      52A     -0.418893    53A     -0.350038    54A     -0.342957
      55A     -0.333570    56A     -0.300452

  @DF-RHF Final Energy:  -667.27097999501734

   => Energetics <=

    Nuclear Repulsion Energy =            993.3697089674828931
    One-Electron Energy =               -2877.8187023251844039
    Two-Electron Energy =                1217.1780133626841689
    Total Energy =                       -667.2709799950173419
  Basis Set: (AUG-CC-PVTZ AUX)
    Blend: AUG-CC-PVTZ-RI
    Molecular point group: c1

    Geometry (in Angstrom), charge = 0, multiplicity = 1:

       Center              X                  Y                   Z               Mass
    ------------   -----------------  -----------------  -----------------  -----------------
         O           -0.515721386496     2.231446985362    -0.295627602897    15.994914619570
         N           -2.978845386496     1.757104985362     0.828842397103    14.003074004430
         C            1.034909613504     0.466622985362    -0.083239602897    12.000000000000
         C           -1.498868386496     0.061663985362    -0.138855602897    12.000000000000
         C           -0.353712386496     1.004392985362    -0.180646602897    12.000000000000
         C            3.713424613504    -0.377751014638     0.172379397103    12.000000000000
         C           -2.778698386496     0.490751985362     0.300427397103    12.000000000000
         C            1.355326613504    -0.633776014638     0.725173397103    12.000000000000
         C            2.061459613504     1.154416985362    -0.745255602897    12.000000000000
         C            2.683014613504    -1.041093014638     0.850830397103    12.000000000000
         C            3.379541613504     0.723670985362    -0.629502602897    12.000000000000
         C           -1.345057386496    -1.242823014638    -0.645252602897    12.000000000000
         C           -3.827193386496    -0.447014014638     0.311957397103    12.000000000000
         C           -2.404950386496    -2.141138014638    -0.667158602897    12.000000000000
         C            5.137954613504    -0.856524014638     0.270395397103    12.000000000000
         C           -3.651693386496    -1.733874014638    -0.181655602897    12.000000000000
         H            0.644498513504    -1.102593814638     1.224441297103     1.007825032230
         H            1.807811613504     2.026069985362    -1.343322602897     1.007825032230
         H            2.924297613504    -1.884587014638     1.495890397103     1.007825032230
         H            4.167633613504     1.258437985362    -1.157597602897     1.007825032230
         H           -0.375489386496    -1.542780014638    -1.033185602897     1.007825032230
         H           -4.804688386496    -0.134032014638     0.676091397103     1.007825032230
         H           -2.269024386496    -3.139757014638    -1.073106602897     1.007825032230
         H            5.839997613504    -0.021980014638     0.186987397103     1.007825032230
         H            5.319121613504    -1.360264014638     1.224039397103     1.007825032230
         H            5.370874613504    -1.566974014638    -0.530521602897     1.007825032230
         H           -4.490974386496    -2.425986014638    -0.178279602897     1.007825032230
         H           -2.350503386496     2.459551985362     0.452573397103     1.007825032230
         H           -3.948444386496     2.050033985362     0.856762397103     1.007825032230

  Basis Set: AUG-CC-PVTZ
    Blend: AUG-CC-PVTZ
  Basis Set: (AUG-CC-PVTZ AUX)
    Blend: AUG-CC-PVTZ-JKFIT
	 Reference Energy          =    -667.2709799950173419 [Eh]
	 Singles Energy            =      -0.0000000000000000 [Eh]
	 Same-Spin Energy          =      -0.7352176239820298 [Eh]
	 Opposite-Spin Energy      =      -2.2648287784012546 [Eh]
	 Correlation Energy        =      -3.0000464023832842 [Eh]
	 Total Energy              =    -670.2710263974006466 [Eh]

	 ================> DF-SCS-MP2 Energies <==================
	-----------------------------------------------------------
	 SCS Same-Spin Scale       =       0.3333333333333333 [-]
	 SCS Opposite-Spin Scale   =       1.2000000000000000 [-]
	 SCS Same-Spin Energy      =      -0.2450725413273433 [Eh]
	 SCS Opposite-Spin Energy  =      -2.7177945340815053 [Eh]
	 SCS Correlation Energy    =      -2.9628670754088486 [Eh]
	 SCS Total Energy          =    -670.2338470704262363 [Eh]
	-----------------------------------------------------------

  Dipole Moment: [D]
     X:     0.3336      Y:    -1.8189      Z:    -0.0996     Total:     1.8519

*** Psi4 exiting successfully. Buy a developer a beer!
