                               Psi4 1.4a3.dev225

  ==> Input File <==

--------------------------------------------------------------------------
#psi4
#
memory 32 gb

molecule  {
0 1
  O       -0.5498120     2.2556960    -0.2996080
  N       -3.0129360     1.7813540     0.8248620
  C        1.0008190     0.4908720    -0.0872200
  C       -1.5329590     0.0859130    -0.1428360
  C       -0.3878030     1.0286420    -0.1846270
  C        3.6793340    -0.3535020     0.1683990
  C       -2.8127890     0.5150010     0.2964470
  C        1.2736430    -0.6148253     0.7313624
  C        2.0273690     1.1786660    -0.7492360
  C        2.6489240    -1.0168440     0.8468500
  C        3.3454510     0.7479200    -0.6334830
  C       -1.3791480    -1.2185740    -0.6492330
  C       -3.8612840    -0.4227650     0.3079770
  C       -2.4390410    -2.1168890    -0.6711390
  C        5.1038640    -0.8322750     0.2664150
  C       -3.6857840    -1.7096250    -0.1856360
  H        0.5383950    -1.1258400     1.2710410
  H        1.7737210     2.0503190    -1.3473030
  H        2.8902070    -1.8603380     1.4919100
  H        4.1335430     1.2826870    -1.1615780
  H       -0.4095800    -1.5185310    -1.0371660
  H       -4.8387790    -0.1097830     0.6721110
  H       -2.3031150    -3.1155080    -1.0770870
  H        5.8059070     0.0022690     0.1830070
  H        5.2850310    -1.3360150     1.2200590
  H        5.3367840    -1.5427250    -0.5345020
  H       -4.5250650    -2.4017370    -0.1822600
  H       -2.3845940     2.4838010     0.4485930
  H       -3.9825350     2.0742830     0.8527820
units angstrom
no_reorient  #important for SAPT in psi4, default
symmetry c1  #important for SAPT in psi4, default
}

set PROPERTIES_ORIGIN ["COM"]
properties('MP2/aug-cc-pvtz', properties = ['dipole'])
--------------------------------------------------------------------------

    Molecular point group: c1
  Charge       = 0
  Multiplicity = 1
  Basis Set: AUG-CC-PVTZ
    Blend: AUG-CC-PVTZ
  Basis Set: (AUG-CC-PVTZ AUX)
    Blend: AUG-CC-PVTZ-JKFIT

    Orbital Energies [Eh]
    ---------------------

    Doubly Occupied:

       1A    -20.537496     2A    -15.560009     3A    -11.337374
       4A    -11.296936     5A    -11.256863     6A    -11.252777
       7A    -11.252391     8A    -11.252234     9A    -11.246375
      10A    -11.244887    11A    -11.243692    12A    -11.239125
      13A    -11.239037    14A    -11.233122    15A    -11.232032
      16A    -11.228371    17A     -1.370670    18A     -1.226566
      19A     -1.162075    20A     -1.137036    21A     -1.070525
      22A     -1.034433    23A     -1.017045    24A     -0.996566
      25A     -0.953038    26A     -0.876880    27A     -0.842991
      28A     -0.836710    29A     -0.812625    30A     -0.765012
      31A     -0.712731    32A     -0.692037    33A     -0.686128
      34A     -0.659683    35A     -0.649172    36A     -0.638632
      37A     -0.613525    38A     -0.604157    39A     -0.600448
      40A     -0.592010    41A     -0.584457    42A     -0.583276
      43A     -0.556307    44A     -0.544073    45A     -0.531520
      46A     -0.517415    47A     -0.512660    48A     -0.503946
      49A     -0.497973    50A     -0.480181    51A     -0.452408
      52A     -0.417509    53A     -0.349552    54A     -0.339885
      55A     -0.334706    56A     -0.300419

  @DF-RHF Final Energy:  -667.27277189805272

   => Energetics <=

    Nuclear Repulsion Energy =            992.6256216982103524
    One-Electron Energy =               -2876.3773816989555598
    Two-Electron Energy =                1216.4789881026924832
    Total Energy =                       -667.2727718980527243
  Basis Set: (AUG-CC-PVTZ AUX)
    Blend: AUG-CC-PVTZ-RI
    Molecular point group: c1

    Geometry (in Angstrom), charge = 0, multiplicity = 1:

       Center              X                  Y                   Z               Mass
    ------------   -----------------  -----------------  -----------------  -----------------
         O           -0.512672152601     2.231974918106    -0.296447161993    15.994914619570
         N           -2.975796152601     1.757632918106     0.828022838007    14.003074004430
         C            1.037958847399     0.467150918106    -0.084059161993    12.000000000000
         C           -1.495819152601     0.062191918106    -0.139675161993    12.000000000000
         C           -0.350663152601     1.004920918106    -0.181466161993    12.000000000000
         C            3.716473847399    -0.377223081894     0.171559838007    12.000000000000
         C           -2.775649152601     0.491279918106     0.299607838007    12.000000000000
         C            1.310782847399    -0.638546381894     0.734523238007    12.000000000000
         C            2.064508847399     1.154944918106    -0.746075161993    12.000000000000
         C            2.686063847399    -1.040565081894     0.850010838007    12.000000000000
         C            3.382590847399     0.724198918106    -0.630322161993    12.000000000000
         C           -1.342008152601    -1.242295081894    -0.646072161993    12.000000000000
         C           -3.824144152601    -0.446486081894     0.311137838007    12.000000000000
         C           -2.401901152601    -2.140610081894    -0.667978161993    12.000000000000
         C            5.141003847399    -0.855996081894     0.269575838007    12.000000000000
         C           -3.648644152601    -1.733346081894    -0.182475161993    12.000000000000
         H            0.575534847399    -1.149561081894     1.274201838007     1.007825032230
         H            1.810860847399     2.026597918106    -1.344142161993     1.007825032230
         H            2.927346847399    -1.884059081894     1.495070838007     1.007825032230
         H            4.170682847399     1.258965918106    -1.158417161993     1.007825032230
         H           -0.372440152601    -1.542252081894    -1.034005161993     1.007825032230
         H           -4.801639152601    -0.133504081894     0.675271838007     1.007825032230
         H           -2.265975152601    -3.139229081894    -1.073926161993     1.007825032230
         H            5.843046847399    -0.021452081894     0.186167838007     1.007825032230
         H            5.322170847399    -1.359736081894     1.223219838007     1.007825032230
         H            5.373923847399    -1.566446081894    -0.531341161993     1.007825032230
         H           -4.487925152601    -2.425458081894    -0.179099161993     1.007825032230
         H           -2.347454152601     2.460079918106     0.451753838007     1.007825032230
         H           -3.945395152601     2.050561918106     0.855942838007     1.007825032230

  Basis Set: AUG-CC-PVTZ
    Blend: AUG-CC-PVTZ
  Basis Set: (AUG-CC-PVTZ AUX)
    Blend: AUG-CC-PVTZ-JKFIT
	 Reference Energy          =    -667.2727718980527243 [Eh]
	 Singles Energy            =      -0.0000000000000000 [Eh]
	 Same-Spin Energy          =      -0.7355987551218655 [Eh]
	 Opposite-Spin Energy      =      -2.2660407265854663 [Eh]
	 Correlation Energy        =      -3.0016394817073317 [Eh]
	 Total Energy              =    -670.2744113797600676 [Eh]

	 ================> DF-SCS-MP2 Energies <==================
	-----------------------------------------------------------
	 SCS Same-Spin Scale       =       0.3333333333333333 [-]
	 SCS Opposite-Spin Scale   =       1.2000000000000000 [-]
	 SCS Same-Spin Energy      =      -0.2451995850406218 [Eh]
	 SCS Opposite-Spin Energy  =      -2.7192488719025594 [Eh]
	 SCS Correlation Energy    =      -2.9644484569431810 [Eh]
	 SCS Total Energy          =    -670.2372203549958840 [Eh]
	-----------------------------------------------------------

  Dipole Moment: [D]
     X:     0.3616      Y:    -1.8175      Z:    -0.1019     Total:     1.8559

*** Psi4 exiting successfully. Buy a developer a beer!
