                               Psi4 1.4a3.dev225

  ==> Input File <==

--------------------------------------------------------------------------
#psi4
#
memory 32 gb

molecule  {
0 1
  O       -0.5498120     2.2556960    -0.2996080
  N       -3.0129360     1.7813540     0.8248620
  C        1.0008190     0.4908720    -0.0872200
  C       -1.5329590     0.0859130    -0.1428360
  C       -0.3878030     1.0286420    -0.1846270
  C        3.6793340    -0.3535020     0.1683990
  C       -2.8127890     0.5150010     0.2964470
  C        1.3212360    -0.6095270     0.7211930
  C        2.0273690     1.1786660    -0.7492360
  C        2.6489240    -1.0168440     0.8468500
  C        3.3454510     0.7479200    -0.6334830
  C       -1.3791480    -1.2185740    -0.6492330
  C       -3.8612840    -0.4227650     0.3079770
  C       -2.4390410    -2.1168890    -0.6711390
  C        5.1038640    -0.8322750     0.2664150
  C       -3.6857840    -1.7096250    -0.1856360
  H        0.6824208    -1.0308496     1.1698808
  H        1.7737210     2.0503190    -1.3473030
  H        2.8902070    -1.8603380     1.4919100
  H        4.1335430     1.2826870    -1.1615780
  H       -0.4095800    -1.5185310    -1.0371660
  H       -4.8387790    -0.1097830     0.6721110
  H       -2.3031150    -3.1155080    -1.0770870
  H        5.8059070     0.0022690     0.1830070
  H        5.2850310    -1.3360150     1.2200590
  H        5.3367840    -1.5427250    -0.5345020
  H       -4.5250650    -2.4017370    -0.1822600
  H       -2.3845940     2.4838010     0.4485930
  H       -3.9825350     2.0742830     0.8527820
units angstrom
no_reorient  #important for SAPT in psi4, default
symmetry c1  #important for SAPT in psi4, default
}

set PROPERTIES_ORIGIN ["COM"]
properties('MP2/aug-cc-pvtz', properties = ['dipole'])
--------------------------------------------------------------------------

    Molecular point group: c1
  Charge       = 0
  Multiplicity = 1
  Basis Set: AUG-CC-PVTZ
    Blend: AUG-CC-PVTZ
  Basis Set: (AUG-CC-PVTZ AUX)
    Blend: AUG-CC-PVTZ-JKFIT

    Orbital Energies [Eh]
    ---------------------

    Doubly Occupied:

       1A    -20.537991     2A    -15.560201     3A    -11.338435
       4A    -11.297146     5A    -11.256503     6A    -11.252958
       7A    -11.252728     8A    -11.245336     9A    -11.242521
      10A    -11.239568    11A    -11.238338    12A    -11.237620
      13A    -11.232762    14A    -11.232256    15A    -11.228641
      16A    -11.227489    17A     -1.371058    18A     -1.226769
      19A     -1.166688    20A     -1.137345    21A     -1.071498
      22A     -1.034550    23A     -1.028439    24A     -0.996841
      25A     -0.954159    26A     -0.878367    27A     -0.856503
      28A     -0.837561    29A     -0.813337    30A     -0.769221
      31A     -0.716124    32A     -0.696521    33A     -0.686653
      34A     -0.669363    35A     -0.653573    36A     -0.641059
      37A     -0.614328    38A     -0.604442    39A     -0.601439
      40A     -0.596843    41A     -0.584758    42A     -0.583498
      43A     -0.557157    44A     -0.544547    45A     -0.531999
      46A     -0.518771    47A     -0.513869    48A     -0.505369
      49A     -0.497148    50A     -0.481776    51A     -0.452824
      52A     -0.418913    53A     -0.350294    54A     -0.342981
      55A     -0.333289    56A     -0.300520

  @DF-RHF Final Energy:  -667.24228942986201

   => Energetics <=

    Nuclear Repulsion Energy =            993.9299234039025350
    One-Electron Energy =               -2878.8226526895705319
    Two-Electron Energy =                1217.6504398558058710
    Total Energy =                       -667.2422894298620122
  Basis Set: (AUG-CC-PVTZ AUX)
    Blend: AUG-CC-PVTZ-RI
    Molecular point group: c1

    Geometry (in Angstrom), charge = 0, multiplicity = 1:

       Center              X                  Y                   Z               Mass
    ------------   -----------------  -----------------  -----------------  -----------------
         O           -0.516065188019     2.231220235403    -0.295386125114    15.994914619570
         N           -2.979189188019     1.756878235403     0.829083874886    14.003074004430
         C            1.034565811981     0.466396235403    -0.082998125114    12.000000000000
         C           -1.499212188019     0.061437235403    -0.138614125114    12.000000000000
         C           -0.354056188019     1.004166235403    -0.180405125114    12.000000000000
         C            3.713080811981    -0.377977764597     0.172620874886    12.000000000000
         C           -2.779042188019     0.490525235403     0.300668874886    12.000000000000
         C            1.354982811981    -0.634002764597     0.725414874886    12.000000000000
         C            2.061115811981     1.154190235403    -0.745014125114    12.000000000000
         C            2.682670811981    -1.041319764597     0.851071874886    12.000000000000
         C            3.379197811981     0.723444235403    -0.629261125114    12.000000000000
         C           -1.345401188019    -1.243049764597    -0.645011125114    12.000000000000
         C           -3.827537188019    -0.447240764597     0.312198874886    12.000000000000
         C           -2.405294188019    -2.141364764597    -0.666917125114    12.000000000000
         C            5.137610811981    -0.856750764597     0.270636874886    12.000000000000
         C           -3.652037188019    -1.734100764597    -0.181414125114    12.000000000000
         H            0.716167611981    -1.055325364597     1.174102674886     1.007825032230
         H            1.807467811981     2.025843235403    -1.343081125114     1.007825032230
         H            2.923953811981    -1.884813764597     1.496131874886     1.007825032230
         H            4.167289811981     1.258211235403    -1.157356125114     1.007825032230
         H           -0.375833188019    -1.543006764597    -1.032944125114     1.007825032230
         H           -4.805032188019    -0.134258764597     0.676332874886     1.007825032230
         H           -2.269368188019    -3.139983764597    -1.072865125114     1.007825032230
         H            5.839653811981    -0.022206764597     0.187228874886     1.007825032230
         H            5.318777811981    -1.360490764597     1.224280874886     1.007825032230
         H            5.370530811981    -1.567200764597    -0.530280125114     1.007825032230
         H           -4.491318188019    -2.426212764597    -0.178038125114     1.007825032230
         H           -2.350847188019     2.459325235403     0.452814874886     1.007825032230
         H           -3.948788188019     2.049807235403     0.857003874886     1.007825032230

  Basis Set: AUG-CC-PVTZ
    Blend: AUG-CC-PVTZ
  Basis Set: (AUG-CC-PVTZ AUX)
    Blend: AUG-CC-PVTZ-JKFIT
	 Reference Energy          =    -667.2422894298620122 [Eh]
	 Singles Energy            =      -0.0000000000000000 [Eh]
	 Same-Spin Energy          =      -0.7350436582310076 [Eh]
	 Opposite-Spin Energy      =      -2.2646883093379628 [Eh]
	 Correlation Energy        =      -2.9997319675689704 [Eh]
	 Total Energy              =    -670.2420213974310172 [Eh]

	 ================> DF-SCS-MP2 Energies <==================
	-----------------------------------------------------------
	 SCS Same-Spin Scale       =       0.3333333333333333 [-]
	 SCS Opposite-Spin Scale   =       1.2000000000000000 [-]
	 SCS Same-Spin Energy      =      -0.2450145527436692 [Eh]
	 SCS Opposite-Spin Energy  =      -2.7176259712055555 [Eh]
	 SCS Correlation Energy    =      -2.9626405239492248 [Eh]
	 SCS Total Energy          =    -670.2049299538111882 [Eh]
	-----------------------------------------------------------

  Dipole Moment: [D]
     X:     0.3243      Y:    -1.8173      Z:    -0.1005     Total:     1.8488

*** Psi4 exiting successfully. Buy a developer a beer!
