                               Psi4 1.4a3.dev225

  ==> Input File <==

--------------------------------------------------------------------------
#psi4
#
memory 32 gb

molecule  {
0 1
  O       -0.5498120     2.2556960    -0.2996080
  N       -3.0129360     1.7813540     0.8248620
  C        1.0008190     0.4908720    -0.0872200
  C       -1.5329590     0.0859130    -0.1428360
  C       -0.3878030     1.0286420    -0.1846270
  C        3.6793340    -0.3535020     0.1683990
  C       -2.8127890     0.5150010     0.2964470
  C        1.3212360    -0.6095270     0.7211930
  C        2.0273690     1.1786660    -0.7492360
  C        2.6489240    -1.0168440     0.8468500
  C        3.3454510     0.7479200    -0.6334830
  C       -1.3791480    -1.2185740    -0.6492330
  C       -3.8612840    -0.4227650     0.3079770
  C       -2.4390410    -2.1168890    -0.6711390
  C        5.1038640    -0.8322750     0.2664150
  C       -3.6857840    -1.7096250    -0.1856360
  H        0.5239924    -1.1353390     1.2811570
  H        1.7737210     2.0503190    -1.3473030
  H        2.8902070    -1.8603380     1.4919100
  H        4.1335430     1.2826870    -1.1615780
  H       -0.4095800    -1.5185310    -1.0371660
  H       -4.8387790    -0.1097830     0.6721110
  H       -2.3031150    -3.1155080    -1.0770870
  H        5.8059070     0.0022690     0.1830070
  H        5.2850310    -1.3360150     1.2200590
  H        5.3367840    -1.5427250    -0.5345020
  H       -4.5250650    -2.4017370    -0.1822600
  H       -2.3845940     2.4838010     0.4485930
  H       -3.9825350     2.0742830     0.8527820
units angstrom
no_reorient  #important for SAPT in psi4, default
symmetry c1  #important for SAPT in psi4, default
}

set PROPERTIES_ORIGIN ["COM"]
properties('MP2/aug-cc-pvtz', properties = ['dipole'])
--------------------------------------------------------------------------

    Molecular point group: c1
  Charge       = 0
  Multiplicity = 1
  Basis Set: AUG-CC-PVTZ
    Blend: AUG-CC-PVTZ
  Basis Set: (AUG-CC-PVTZ AUX)
    Blend: AUG-CC-PVTZ-JKFIT

    Orbital Energies [Eh]
    ---------------------

    Doubly Occupied:

       1A    -20.538023     2A    -15.559998     3A    -11.338498
       4A    -11.296864     5A    -11.257447     6A    -11.252775
       7A    -11.252693     8A    -11.252199     9A    -11.246456
      10A    -11.243733    11A    -11.239246    12A    -11.239057
      13A    -11.237860    14A    -11.233296    15A    -11.231922
      16A    -11.228253    17A     -1.371081    18A     -1.226531
      19A     -1.165166    20A     -1.137073    21A     -1.069494
      22A     -1.034572    23A     -1.020120    24A     -0.996511
      25A     -0.954664    26A     -0.876948    27A     -0.838302
      28A     -0.835740    29A     -0.813068    30A     -0.765935
      31A     -0.712555    32A     -0.691491    33A     -0.686164
      34A     -0.660953    35A     -0.644723    36A     -0.635290
      37A     -0.614215    38A     -0.603637    39A     -0.599783
      40A     -0.591738    41A     -0.584749    42A     -0.583842
      43A     -0.555622    44A     -0.544689    45A     -0.531885
      46A     -0.517981    47A     -0.513158    48A     -0.504822
      49A     -0.492914    50A     -0.482083    51A     -0.452211
      52A     -0.418930    53A     -0.349655    54A     -0.343126
      55A     -0.334063    56A     -0.300333

  @DF-RHF Final Energy:  -667.27589311151303

   => Energetics <=

    Nuclear Repulsion Energy =            992.7917067896332810
    One-Electron Energy =               -2876.7269273225419965
    Two-Electron Energy =                1216.6593274213958011
    Total Energy =                       -667.2758931115129144
  Basis Set: (AUG-CC-PVTZ AUX)
    Blend: AUG-CC-PVTZ-RI
    Molecular point group: c1

    Geometry (in Angstrom), charge = 0, multiplicity = 1:

       Center              X                  Y                   Z               Mass
    ------------   -----------------  -----------------  -----------------  -----------------
         O           -0.515308824573     2.231719085121    -0.295917376141    15.994914619570
         N           -2.978432824573     1.757377085121     0.828552623859    14.003074004430
         C            1.035322175427     0.466895085121    -0.083529376141    12.000000000000
         C           -1.498455824573     0.061936085121    -0.139145376141    12.000000000000
         C           -0.353299824573     1.004665085121    -0.180936376141    12.000000000000
         C            3.713837175427    -0.377478914879     0.172089623859    12.000000000000
         C           -2.778285824573     0.491024085121     0.300137623859    12.000000000000
         C            1.355739175427    -0.633503914879     0.724883623859    12.000000000000
         C            2.061872175427     1.154689085121    -0.745545376141    12.000000000000
         C            2.683427175427    -1.040820914879     0.850540623859    12.000000000000
         C            3.379954175427     0.723943085121    -0.629792376141    12.000000000000
         C           -1.344644824573    -1.242550914879    -0.645542376141    12.000000000000
         C           -3.826780824573    -0.446741914879     0.311667623859    12.000000000000
         C           -2.404537824573    -2.140865914879    -0.667448376141    12.000000000000
         C            5.138367175427    -0.856251914879     0.270105623859    12.000000000000
         C           -3.651280824573    -1.733601914879    -0.181945376141    12.000000000000
         H            0.558495575427    -1.159315914879     1.284847623859     1.007825032230
         H            1.808224175427     2.026342085121    -1.343612376141     1.007825032230
         H            2.924710175427    -1.884314914879     1.495600623859     1.007825032230
         H            4.168046175427     1.258710085121    -1.157887376141     1.007825032230
         H           -0.375076824573    -1.542507914879    -1.033475376141     1.007825032230
         H           -4.804275824573    -0.133759914879     0.675801623859     1.007825032230
         H           -2.268611824573    -3.139484914879    -1.073396376141     1.007825032230
         H            5.840410175427    -0.021707914879     0.186697623859     1.007825032230
         H            5.319534175427    -1.359991914879     1.223749623859     1.007825032230
         H            5.371287175427    -1.566701914879    -0.530811376141     1.007825032230
         H           -4.490561824573    -2.425713914879    -0.178569376141     1.007825032230
         H           -2.350090824573     2.459824085121     0.452283623859     1.007825032230
         H           -3.948031824573     2.050306085121     0.856472623859     1.007825032230

  Basis Set: AUG-CC-PVTZ
    Blend: AUG-CC-PVTZ
  Basis Set: (AUG-CC-PVTZ AUX)
    Blend: AUG-CC-PVTZ-JKFIT
	 Reference Energy          =    -667.2758931115130281 [Eh]
	 Singles Energy            =      -0.0000000000000000 [Eh]
	 Same-Spin Energy          =      -0.7355956316220208 [Eh]
	 Opposite-Spin Energy      =      -2.2657098658582746 [Eh]
	 Correlation Energy        =      -3.0013054974802955 [Eh]
	 Total Energy              =    -670.2771986089933307 [Eh]

	 ================> DF-SCS-MP2 Energies <==================
	-----------------------------------------------------------
	 SCS Same-Spin Scale       =       0.3333333333333333 [-]
	 SCS Opposite-Spin Scale   =       1.2000000000000000 [-]
	 SCS Same-Spin Energy      =      -0.2451985438740069 [Eh]
	 SCS Opposite-Spin Energy  =      -2.7188518390299294 [Eh]
	 SCS Correlation Energy    =      -2.9640503829039364 [Eh]
	 SCS Total Energy          =    -670.2399434944169343 [Eh]
	-----------------------------------------------------------

  Dipole Moment: [D]
     X:     0.3572      Y:    -1.8131      Z:    -0.1076     Total:     1.8511

*** Psi4 exiting successfully. Buy a developer a beer!
