                               Psi4 1.4a3.dev225

  ==> Input File <==

--------------------------------------------------------------------------
#psi4
#
memory 32 gb

molecule  {
0 1
  O       -0.5498120     2.2556960    -0.2996080
  N       -3.0129360     1.7813540     0.8248620
  C        1.0008190     0.4908720    -0.0872200
  C       -1.5329590     0.0859130    -0.1428360
  C       -0.3878030     1.0286420    -0.1846270
  C        3.6793340    -0.3535020     0.1683990
  C       -2.8127890     0.5150010     0.2964470
  C        1.3212360    -0.6095270     0.7211930
  C        2.0273690     1.1786660    -0.7492360
  C        2.6489240    -1.0168440     0.8468500
  C        3.3454510     0.7479200    -0.6334830
  C       -1.3244659    -1.2873250    -0.6903418
  C       -3.8612840    -0.4227650     0.3079770
  C       -2.4390410    -2.1168890    -0.6711390
  C        5.1038640    -0.8322750     0.2664150
  C       -3.6857840    -1.7096250    -0.1856360
  H        0.5383950    -1.1258400     1.2710410
  H        1.7737210     2.0503190    -1.3473030
  H        2.8902070    -1.8603380     1.4919100
  H        4.1335430     1.2826870    -1.1615780
  H       -0.4095800    -1.5185310    -1.0371660
  H       -4.8387790    -0.1097830     0.6721110
  H       -2.3031150    -3.1155080    -1.0770870
  H        5.8059070     0.0022690     0.1830070
  H        5.2850310    -1.3360150     1.2200590
  H        5.3367840    -1.5427250    -0.5345020
  H       -4.5250650    -2.4017370    -0.1822600
  H       -2.3845940     2.4838010     0.4485930
  H       -3.9825350     2.0742830     0.8527820
units angstrom
no_reorient  #important for SAPT in psi4, default
symmetry c1  #important for SAPT in psi4, default
}

set PROPERTIES_ORIGIN ["COM"]
properties('MP2/aug-cc-pvtz', properties = ['dipole'])
--------------------------------------------------------------------------

    Molecular point group: c1
  Charge       = 0
  Multiplicity = 1
  Basis Set: AUG-CC-PVTZ
    Blend: AUG-CC-PVTZ
  Basis Set: (AUG-CC-PVTZ AUX)
    Blend: AUG-CC-PVTZ-JKFIT

    Orbital Energies [Eh]
    ---------------------

    Doubly Occupied:

       1A    -20.534834     2A    -15.560152     3A    -11.335503
       4A    -11.297653     5A    -11.256803     6A    -11.255196
       7A    -11.254688     8A    -11.249872     9A    -11.245611
      10A    -11.244044    11A    -11.242752    12A    -11.238728
      13A    -11.237407    14A    -11.236560    15A    -11.232906
      16A    -11.232196    17A     -1.368274    18A     -1.225757
      19A     -1.164450    20A     -1.131433    21A     -1.068312
      22A     -1.029842    23A     -1.019278    24A     -1.000038
      25A     -0.953368    26A     -0.879167    27A     -0.842788
      28A     -0.837218    29A     -0.810807    30A     -0.762772
      31A     -0.714863    32A     -0.696934    33A     -0.683417
      34A     -0.660506    35A     -0.644894    36A     -0.634405
      37A     -0.618421    38A     -0.614736    39A     -0.597831
      40A     -0.592130    41A     -0.584032    42A     -0.579643
      43A     -0.554459    44A     -0.544390    45A     -0.529053
      46A     -0.519523    47A     -0.514934    48A     -0.501667
      49A     -0.492887    50A     -0.480774    51A     -0.450888
      52A     -0.415790    53A     -0.345772    54A     -0.339379
      55A     -0.333612    56A     -0.303304

  @DF-RHF Final Energy:  -667.26329454972597

   => Energetics <=

    Nuclear Repulsion Energy =            991.3900995606419428
    One-Electron Energy =               -2873.9134815238476222
    Two-Electron Energy =                1215.2600874134798232
    Total Energy =                       -667.2632945497259698
  Basis Set: (AUG-CC-PVTZ AUX)
    Blend: AUG-CC-PVTZ-RI
    Molecular point group: c1

    Geometry (in Angstrom), charge = 0, multiplicity = 1:

       Center              X                  Y                   Z               Mass
    ------------   -----------------  -----------------  -----------------  -----------------
         O           -0.518485998468     2.235581897886    -0.293532243786    15.994914619570
         N           -2.981609998468     1.761239897886     0.830937756214    14.003074004430
         C            1.032145001532     0.470757897886    -0.081144243786    12.000000000000
         C           -1.501632998468     0.065798897886    -0.136760243786    12.000000000000
         C           -0.356476998468     1.008527897886    -0.178551243786    12.000000000000
         C            3.710660001532    -0.373616102114     0.174474756214    12.000000000000
         C           -2.781462998468     0.494886897886     0.302522756214    12.000000000000
         C            1.352562001532    -0.629641102114     0.727268756214    12.000000000000
         C            2.058695001532     1.158551897886    -0.743160243786    12.000000000000
         C            2.680250001532    -1.036958102114     0.852925756214    12.000000000000
         C            3.376777001532     0.727805897886    -0.627407243786    12.000000000000
         C           -1.293139898468    -1.307439102114    -0.684266043786    12.000000000000
         C           -3.829957998468    -0.442879102114     0.314052756214    12.000000000000
         C           -2.407714998468    -2.137003102114    -0.665063243786    12.000000000000
         C            5.135190001532    -0.852389102114     0.272490756214    12.000000000000
         C           -3.654457998468    -1.729739102114    -0.179560243786    12.000000000000
         H            0.569721001532    -1.145954102114     1.277116756214     1.007825032230
         H            1.805047001532     2.030204897886    -1.341227243786     1.007825032230
         H            2.921533001532    -1.880452102114     1.497985756214     1.007825032230
         H            4.164869001532     1.262572897886    -1.155502243786     1.007825032230
         H           -0.378253998468    -1.538645102114    -1.031090243786     1.007825032230
         H           -4.807452998468    -0.129897102114     0.678186756214     1.007825032230
         H           -2.271788998468    -3.135622102114    -1.071011243786     1.007825032230
         H            5.837233001532    -0.017845102114     0.189082756214     1.007825032230
         H            5.316357001532    -1.356129102114     1.226134756214     1.007825032230
         H            5.368110001532    -1.562839102114    -0.528426243786     1.007825032230
         H           -4.493738998468    -2.421851102114    -0.176184243786     1.007825032230
         H           -2.353267998468     2.463686897886     0.454668756214     1.007825032230
         H           -3.951208998468     2.054168897886     0.858857756214     1.007825032230

  Basis Set: AUG-CC-PVTZ
    Blend: AUG-CC-PVTZ
  Basis Set: (AUG-CC-PVTZ AUX)
    Blend: AUG-CC-PVTZ-JKFIT
	 Reference Energy          =    -667.2632945497259698 [Eh]
	 Singles Energy            =      -0.0000000000000000 [Eh]
	 Same-Spin Energy          =      -0.7357534366367044 [Eh]
	 Opposite-Spin Energy      =      -2.2667957672187216 [Eh]
	 Correlation Energy        =      -3.0025492038554260 [Eh]
	 Total Energy              =    -670.2658437535814073 [Eh]

	 ================> DF-SCS-MP2 Energies <==================
	-----------------------------------------------------------
	 SCS Same-Spin Scale       =       0.3333333333333333 [-]
	 SCS Opposite-Spin Scale   =       1.2000000000000000 [-]
	 SCS Same-Spin Energy      =      -0.2452511455455681 [Eh]
	 SCS Opposite-Spin Energy  =      -2.7201549206624658 [Eh]
	 SCS Correlation Energy    =      -2.9654060662080339 [Eh]
	 SCS Total Energy          =    -670.2287006159340308 [Eh]
	-----------------------------------------------------------

  Dipole Moment: [D]
     X:     0.2269      Y:    -1.8714      Z:    -0.0967     Total:     1.8875

*** Psi4 exiting successfully. Buy a developer a beer!
