                               Psi4 1.4a3.dev225

  ==> Input File <==

--------------------------------------------------------------------------
#psi4
#
memory 32 gb

molecule  {
0 1
  O       -0.5498120     2.2556960    -0.2996080
  N       -3.0129360     1.7813540     0.8248620
  C        1.0008190     0.4908720    -0.0872200
  C       -1.5329590     0.0859130    -0.1428360
  C       -0.3878030     1.0286420    -0.1846270
  C        3.6793340    -0.3535020     0.1683990
  C       -2.8127890     0.5150010     0.2964470
  C        1.3212360    -0.6095270     0.7211930
  C        2.0273690     1.1786660    -0.7492360
  C        2.6489240    -1.0168440     0.8468500
  C        3.3454510     0.7479200    -0.6334830
  C       -1.3791480    -1.2185740    -0.6492330
  C       -3.8844528    -0.4280185     0.3128398
  C       -2.4390410    -2.1168890    -0.6711390
  C        5.1038640    -0.8322750     0.2664150
  C       -3.6857840    -1.7096250    -0.1856360
  H        0.5383950    -1.1258400     1.2710410
  H        1.7737210     2.0503190    -1.3473030
  H        2.8902070    -1.8603380     1.4919100
  H        4.1335430     1.2826870    -1.1615780
  H       -0.4095800    -1.5185310    -1.0371660
  H       -4.8387790    -0.1097830     0.6721110
  H       -2.3031150    -3.1155080    -1.0770870
  H        5.8059070     0.0022690     0.1830070
  H        5.2850310    -1.3360150     1.2200590
  H        5.3367840    -1.5427250    -0.5345020
  H       -4.5250650    -2.4017370    -0.1822600
  H       -2.3845940     2.4838010     0.4485930
  H       -3.9825350     2.0742830     0.8527820
units angstrom
no_reorient  #important for SAPT in psi4, default
symmetry c1  #important for SAPT in psi4, default
}

set PROPERTIES_ORIGIN ["COM"]
properties('MP2/aug-cc-pvtz', properties = ['dipole'])
--------------------------------------------------------------------------

    Molecular point group: c1
  Charge       = 0
  Multiplicity = 1
  Basis Set: AUG-CC-PVTZ
    Blend: AUG-CC-PVTZ
  Basis Set: (AUG-CC-PVTZ AUX)
    Blend: AUG-CC-PVTZ-JKFIT

    Orbital Energies [Eh]
    ---------------------

    Doubly Occupied:

       1A    -20.537792     2A    -15.561022     3A    -11.338430
       4A    -11.299808     5A    -11.257300     6A    -11.252544
       7A    -11.252402     8A    -11.250554     9A    -11.246289
      10A    -11.243521    11A    -11.239071    12A    -11.238614
      13A    -11.237775    14A    -11.233201    15A    -11.232513
      16A    -11.227859    17A     -1.370927    18A     -1.226176
      19A     -1.165151    20A     -1.136169    21A     -1.069464
      22A     -1.034752    23A     -1.020610    24A     -0.994854
      25A     -0.954489    26A     -0.875580    27A     -0.839530
      28A     -0.837103    29A     -0.812688    30A     -0.766104
      31A     -0.713385    32A     -0.691915    33A     -0.686209
      34A     -0.661318    35A     -0.645851    36A     -0.636898
      37A     -0.614372    38A     -0.603519    39A     -0.600462
      40A     -0.592779    41A     -0.585128    42A     -0.584109
      43A     -0.555331    44A     -0.544136    45A     -0.530098
      46A     -0.517678    47A     -0.513614    48A     -0.506331
      49A     -0.493466    50A     -0.482019    51A     -0.452391
      52A     -0.418657    53A     -0.350068    54A     -0.343155
      55A     -0.333932    56A     -0.298867

  @DF-RHF Final Energy:  -667.27592947147389

   => Energetics <=

    Nuclear Repulsion Energy =            992.3740802108367234
    One-Electron Energy =               -2875.8840612235485423
    Two-Electron Energy =                1216.2340515412379318
    Total Energy =                       -667.2759294714737734
  Basis Set: (AUG-CC-PVTZ AUX)
    Blend: AUG-CC-PVTZ-RI
    Molecular point group: c1

    Geometry (in Angstrom), charge = 0, multiplicity = 1:

       Center              X                  Y                   Z               Mass
    ------------   -----------------  -----------------  -----------------  -----------------
         O           -0.514060550503     2.231972371443    -0.296145507392    15.994914619570
         N           -2.977184550503     1.757630371443     0.828324492608    14.003074004430
         C            1.036570449497     0.467148371443    -0.083757507392    12.000000000000
         C           -1.497207550503     0.062189371443    -0.139373507392    12.000000000000
         C           -0.352051550503     1.004918371443    -0.181164507392    12.000000000000
         C            3.715085449497    -0.377225628557     0.171861492608    12.000000000000
         C           -2.777037550503     0.491277371443     0.299909492608    12.000000000000
         C            1.356987449497    -0.633250628557     0.724655492608    12.000000000000
         C            2.063120449497     1.154942371443    -0.745773507392    12.000000000000
         C            2.684675449497    -1.040567628557     0.850312492608    12.000000000000
         C            3.381202449497     0.724196371443    -0.630020507392    12.000000000000
         C           -1.343396550503    -1.242297628557    -0.645770507392    12.000000000000
         C           -3.848701350503    -0.451742128557     0.316302292608    12.000000000000
         C           -2.403289550503    -2.140612628557    -0.667676507392    12.000000000000
         C            5.139615449497    -0.855998628557     0.269877492608    12.000000000000
         C           -3.650032550503    -1.733348628557    -0.182173507392    12.000000000000
         H            0.574146449497    -1.149563628557     1.274503492608     1.007825032230
         H            1.809472449497     2.026595371443    -1.343840507392     1.007825032230
         H            2.925958449497    -1.884061628557     1.495372492608     1.007825032230
         H            4.169294449497     1.258963371443    -1.158115507392     1.007825032230
         H           -0.373828550503    -1.542254628557    -1.033703507392     1.007825032230
         H           -4.803027550503    -0.133506628557     0.675573492608     1.007825032230
         H           -2.267363550503    -3.139231628557    -1.073624507392     1.007825032230
         H            5.841658449497    -0.021454628557     0.186469492608     1.007825032230
         H            5.320782449497    -1.359738628557     1.223521492608     1.007825032230
         H            5.372535449497    -1.566448628557    -0.531039507392     1.007825032230
         H           -4.489313550503    -2.425460628557    -0.178797507392     1.007825032230
         H           -2.348842550503     2.460077371443     0.452055492608     1.007825032230
         H           -3.946783550503     2.050559371443     0.856244492608     1.007825032230

  Basis Set: AUG-CC-PVTZ
    Blend: AUG-CC-PVTZ
  Basis Set: (AUG-CC-PVTZ AUX)
    Blend: AUG-CC-PVTZ-JKFIT
	 Reference Energy          =    -667.2759294714738871 [Eh]
	 Singles Energy            =      -0.0000000000000000 [Eh]
	 Same-Spin Energy          =      -0.7353652412552713 [Eh]
	 Opposite-Spin Energy      =      -2.2654341722744546 [Eh]
	 Correlation Energy        =      -3.0007994135297258 [Eh]
	 Total Energy              =    -670.2767288850036493 [Eh]

	 ================> DF-SCS-MP2 Energies <==================
	-----------------------------------------------------------
	 SCS Same-Spin Scale       =       0.3333333333333333 [-]
	 SCS Opposite-Spin Scale   =       1.2000000000000000 [-]
	 SCS Same-Spin Energy      =      -0.2451217470850904 [Eh]
	 SCS Opposite-Spin Energy  =      -2.7185210067293455 [Eh]
	 SCS Correlation Energy    =      -2.9636427538144359 [Eh]
	 SCS Total Energy          =    -670.2395722252882706 [Eh]
	-----------------------------------------------------------

  Dipole Moment: [D]
     X:     0.3322      Y:    -1.7787      Z:    -0.0867     Total:     1.8116

*** Psi4 exiting successfully. Buy a developer a beer!
