                               Psi4 1.4a3.dev225

  ==> Input File <==

--------------------------------------------------------------------------
#psi4
#
memory 32 gb

molecule  {
0 1
  O       -0.5498120     2.2556960    -0.2996080
  N       -3.0129360     1.7813540     0.8248620
  C        1.0008190     0.4908720    -0.0872200
  C       -1.5329590     0.0859130    -0.1428360
  C       -0.3878030     1.0286420    -0.1846270
  C        3.6793340    -0.3535020     0.1683990
  C       -2.8127890     0.5150010     0.2964470
  C        1.3212360    -0.6095270     0.7211930
  C        2.0273690     1.1786660    -0.7492360
  C        2.5537108    -0.9876338     0.8378387
  C        3.3454510     0.7479200    -0.6334830
  C       -1.3791480    -1.2185740    -0.6492330
  C       -3.8612840    -0.4227650     0.3079770
  C       -2.4390410    -2.1168890    -0.6711390
  C        5.1038640    -0.8322750     0.2664150
  C       -3.6857840    -1.7096250    -0.1856360
  H        0.5383950    -1.1258400     1.2710410
  H        1.7737210     2.0503190    -1.3473030
  H        2.8902070    -1.8603380     1.4919100
  H        4.1335430     1.2826870    -1.1615780
  H       -0.4095800    -1.5185310    -1.0371660
  H       -4.8387790    -0.1097830     0.6721110
  H       -2.3031150    -3.1155080    -1.0770870
  H        5.8059070     0.0022690     0.1830070
  H        5.2850310    -1.3360150     1.2200590
  H        5.3367840    -1.5427250    -0.5345020
  H       -4.5250650    -2.4017370    -0.1822600
  H       -2.3845940     2.4838010     0.4485930
  H       -3.9825350     2.0742830     0.8527820
units angstrom
no_reorient  #important for SAPT in psi4, default
symmetry c1  #important for SAPT in psi4, default
}

set PROPERTIES_ORIGIN ["COM"]
properties('MP2/aug-cc-pvtz', properties = ['dipole'])
--------------------------------------------------------------------------

    Molecular point group: c1
  Charge       = 0
  Multiplicity = 1
  Basis Set: AUG-CC-PVTZ
    Blend: AUG-CC-PVTZ
  Basis Set: (AUG-CC-PVTZ AUX)
    Blend: AUG-CC-PVTZ-JKFIT

    Orbital Energies [Eh]
    ---------------------

    Doubly Occupied:

       1A    -20.536640     2A    -15.559527     3A    -11.337199
       4A    -11.296379     5A    -11.263704     6A    -11.252292
       7A    -11.251976     8A    -11.246620     9A    -11.242095
      10A    -11.238523    11A    -11.238175    12A    -11.237122
      13A    -11.236975    14A    -11.235607    15A    -11.231583
      16A    -11.228009    17A     -1.369789    18A     -1.226057
      19A     -1.170255    20A     -1.136688    21A     -1.067016
      22A     -1.034336    23A     -1.032004    24A     -0.996206
      25A     -0.956988    26A     -0.876865    27A     -0.838134
      28A     -0.828328    29A     -0.813646    30A     -0.766373
      31A     -0.712284    32A     -0.692400    33A     -0.685681
      34A     -0.665393    35A     -0.646203    36A     -0.632772
      37A     -0.614129    38A     -0.603376    39A     -0.597780
      40A     -0.588472    41A     -0.585541    42A     -0.583571
      43A     -0.555588    44A     -0.548147    45A     -0.532053
      46A     -0.522943    47A     -0.516253    48A     -0.507016
      49A     -0.485338    50A     -0.474723    51A     -0.451789
      52A     -0.418353    53A     -0.357951    54A     -0.347512
      55A     -0.326059    56A     -0.299870

  @DF-RHF Final Energy:  -667.26265160339779

   => Energetics <=

    Nuclear Repulsion Energy =            994.1512292511123405
    One-Electron Energy =               -2879.4351528644642713
    Two-Electron Energy =                1218.0212720099539183
    Total Energy =                       -667.2626516033978987
  Basis Set: (AUG-CC-PVTZ AUX)
    Blend: AUG-CC-PVTZ-RI
    Molecular point group: c1

    Geometry (in Angstrom), charge = 0, multiplicity = 1:

       Center              X                  Y                   Z               Mass
    ------------   -----------------  -----------------  -----------------  -----------------
         O           -0.509965174041     2.230013276416    -0.295356831762    15.994914619570
         N           -2.973089174041     1.755671276416     0.829113168238    14.003074004430
         C            1.040665825959     0.465189276416    -0.082968831762    12.000000000000
         C           -1.493112174041     0.060230276416    -0.138584831762    12.000000000000
         C           -0.347956174041     1.002959276416    -0.180375831762    12.000000000000
         C            3.719180825959    -0.379184723584     0.172650168238    12.000000000000
         C           -2.772942174041     0.489318276416     0.300698168238    12.000000000000
         C            1.361082825959    -0.635209723584     0.725444168238    12.000000000000
         C            2.067215825959     1.152983276416    -0.744984831762    12.000000000000
         C            2.593557625959    -1.013316523584     0.842089868238    12.000000000000
         C            3.385297825959     0.722237276416    -0.629231831762    12.000000000000
         C           -1.339301174041    -1.244256723584    -0.644981831762    12.000000000000
         C           -3.821437174041    -0.448447723584     0.312228168238    12.000000000000
         C           -2.399194174041    -2.142571723584    -0.666887831762    12.000000000000
         C            5.143710825959    -0.857957723584     0.270666168238    12.000000000000
         C           -3.645937174041    -1.735307723584    -0.181384831762    12.000000000000
         H            0.578241825959    -1.151522723584     1.275292168238     1.007825032230
         H            1.813567825959     2.024636276416    -1.343051831762     1.007825032230
         H            2.930053825959    -1.886020723584     1.496161168238     1.007825032230
         H            4.173389825959     1.257004276416    -1.157326831762     1.007825032230
         H           -0.369733174041    -1.544213723584    -1.032914831762     1.007825032230
         H           -4.798932174041    -0.135465723584     0.676362168238     1.007825032230
         H           -2.263268174041    -3.141190723584    -1.072835831762     1.007825032230
         H            5.845753825959    -0.023413723584     0.187258168238     1.007825032230
         H            5.324877825959    -1.361697723584     1.224310168238     1.007825032230
         H            5.376630825959    -1.568407723584    -0.530250831762     1.007825032230
         H           -4.485218174041    -2.427419723584    -0.178008831762     1.007825032230
         H           -2.344747174041     2.458118276416     0.452844168238     1.007825032230
         H           -3.942688174041     2.048600276416     0.857033168238     1.007825032230

  Basis Set: AUG-CC-PVTZ
    Blend: AUG-CC-PVTZ
  Basis Set: (AUG-CC-PVTZ AUX)
    Blend: AUG-CC-PVTZ-JKFIT
	 Reference Energy          =    -667.2626516033977850 [Eh]
	 Singles Energy            =      -0.0000000000000000 [Eh]
	 Same-Spin Energy          =      -0.7355566684636761 [Eh]
	 Opposite-Spin Energy      =      -2.2658345323183968 [Eh]
	 Correlation Energy        =      -3.0013912007820727 [Eh]
	 Total Energy              =    -670.2640428041798941 [Eh]

	 ================> DF-SCS-MP2 Energies <==================
	-----------------------------------------------------------
	 SCS Same-Spin Scale       =       0.3333333333333333 [-]
	 SCS Opposite-Spin Scale   =       1.2000000000000000 [-]
	 SCS Same-Spin Energy      =      -0.2451855561545587 [Eh]
	 SCS Opposite-Spin Energy  =      -2.7190014387820760 [Eh]
	 SCS Correlation Energy    =      -2.9641869949366346 [Eh]
	 SCS Total Energy          =    -670.2268385983344388 [Eh]
	-----------------------------------------------------------

  Dipole Moment: [D]
     X:     0.4376      Y:    -1.7954      Z:    -0.1326     Total:     1.8527

*** Psi4 exiting successfully. Buy a developer a beer!
