                               Psi4 1.4a3.dev225

  ==> Input File <==

--------------------------------------------------------------------------
#psi4
#
memory 32 gb

molecule  {
0 1
  O       -0.5498120     2.2556960    -0.2996080
  N       -3.0129360     1.7813540     0.8248620
  C        1.0008190     0.4908720    -0.0872200
  C       -1.5329590     0.0859130    -0.1428360
  C       -0.3878030     1.0286420    -0.1846270
  C        3.6793340    -0.3535020     0.1683990
  C       -2.8578685     0.5301148     0.3119199
  C        1.3212360    -0.6095270     0.7211930
  C        2.0273690     1.1786660    -0.7492360
  C        2.6489240    -1.0168440     0.8468500
  C        3.3454510     0.7479200    -0.6334830
  C       -1.3791480    -1.2185740    -0.6492330
  C       -3.8612840    -0.4227650     0.3079770
  C       -2.4390410    -2.1168890    -0.6711390
  C        5.1038640    -0.8322750     0.2664150
  C       -3.6857840    -1.7096250    -0.1856360
  H        0.5383950    -1.1258400     1.2710410
  H        1.7737210     2.0503190    -1.3473030
  H        2.8902070    -1.8603380     1.4919100
  H        4.1335430     1.2826870    -1.1615780
  H       -0.4095800    -1.5185310    -1.0371660
  H       -4.8387790    -0.1097830     0.6721110
  H       -2.3031150    -3.1155080    -1.0770870
  H        5.8059070     0.0022690     0.1830070
  H        5.2850310    -1.3360150     1.2200590
  H        5.3367840    -1.5427250    -0.5345020
  H       -4.5250650    -2.4017370    -0.1822600
  H       -2.3845940     2.4838010     0.4485930
  H       -3.9825350     2.0742830     0.8527820
units angstrom
no_reorient  #important for SAPT in psi4, default
symmetry c1  #important for SAPT in psi4, default
}

set PROPERTIES_ORIGIN ["COM"]
properties('MP2/aug-cc-pvtz', properties = ['dipole'])
--------------------------------------------------------------------------

    Molecular point group: c1
  Charge       = 0
  Multiplicity = 1
  Basis Set: AUG-CC-PVTZ
    Blend: AUG-CC-PVTZ
  Basis Set: (AUG-CC-PVTZ AUX)
    Blend: AUG-CC-PVTZ-JKFIT

    Orbital Energies [Eh]
    ---------------------

    Doubly Occupied:

       1A    -20.536793     2A    -15.563358     3A    -11.337575
       4A    -11.298542     5A    -11.256836     6A    -11.253872
       7A    -11.252400     8A    -11.249917     9A    -11.245774
      10A    -11.242992    11A    -11.241950    12A    -11.238584
      13A    -11.237354    14A    -11.232889    15A    -11.227854
      16A    -11.226891    17A     -1.370075    18A     -1.235882
      19A     -1.164647    20A     -1.136746    21A     -1.068935
      22A     -1.032734    23A     -1.019883    24A     -0.996690
      25A     -0.953304    26A     -0.878149    27A     -0.837788
      28A     -0.832247    29A     -0.813994    30A     -0.765963
      31A     -0.711849    32A     -0.695810    33A     -0.690430
      34A     -0.662081    35A     -0.644786    36A     -0.636609
      37A     -0.610687    38A     -0.605213    39A     -0.599271
      40A     -0.592095    41A     -0.583929    42A     -0.583300
      43A     -0.555813    44A     -0.545132    45A     -0.534389
      46A     -0.519184    47A     -0.511490    48A     -0.499805
      49A     -0.492956    50A     -0.482114    51A     -0.455529
      52A     -0.417935    53A     -0.349151    54A     -0.342417
      55A     -0.333461    56A     -0.297480

  @DF-RHF Final Energy:  -667.27334412928406

   => Energetics <=

    Nuclear Repulsion Energy =            992.3358366694184269
    One-Electron Energy =               -2875.8113009763510490
    Two-Electron Energy =                1216.2021201776487942
    Total Energy =                       -667.2733441292839416
  Basis Set: (AUG-CC-PVTZ AUX)
    Blend: AUG-CC-PVTZ-RI
    Molecular point group: c1

    Geometry (in Angstrom), charge = 0, multiplicity = 1:

       Center              X                  Y                   Z               Mass
    ------------   -----------------  -----------------  -----------------  -----------------
         O           -0.512815032946     2.230814588728    -0.296748640374    15.994914619570
         N           -2.975939032946     1.756472588728     0.827721359626    14.003074004430
         C            1.037815967054     0.465990588728    -0.084360640374    12.000000000000
         C           -1.495962032946     0.061031588728    -0.139976640374    12.000000000000
         C           -0.350806032946     1.003760588728    -0.181767640374    12.000000000000
         C            3.716330967054    -0.378383411272     0.171258359626    12.000000000000
         C           -2.820871532946     0.505233388728     0.314779259626    12.000000000000
         C            1.358232967054    -0.634408411272     0.724052359626    12.000000000000
         C            2.064365967054     1.153784588728    -0.746376640374    12.000000000000
         C            2.685920967054    -1.041725411272     0.849709359626    12.000000000000
         C            3.382447967054     0.723038588728    -0.630623640374    12.000000000000
         C           -1.342151032946    -1.243455411272    -0.646373640374    12.000000000000
         C           -3.824287032946    -0.447646411272     0.310836359626    12.000000000000
         C           -2.402044032946    -2.141770411272    -0.668279640374    12.000000000000
         C            5.140860967054    -0.857156411272     0.269274359626    12.000000000000
         C           -3.648787032946    -1.734506411272    -0.182776640374    12.000000000000
         H            0.575391967054    -1.150721411272     1.273900359626     1.007825032230
         H            1.810717967054     2.025437588728    -1.344443640374     1.007825032230
         H            2.927203967054    -1.885219411272     1.494769359626     1.007825032230
         H            4.170539967054     1.257805588728    -1.158718640374     1.007825032230
         H           -0.372583032946    -1.543412411272    -1.034306640374     1.007825032230
         H           -4.801782032946    -0.134664411272     0.674970359626     1.007825032230
         H           -2.266118032946    -3.140389411272    -1.074227640374     1.007825032230
         H            5.842903967054    -0.022612411272     0.185866359626     1.007825032230
         H            5.322027967054    -1.360896411272     1.222918359626     1.007825032230
         H            5.373780967054    -1.567606411272    -0.531642640374     1.007825032230
         H           -4.488068032946    -2.426618411272    -0.179400640374     1.007825032230
         H           -2.347597032946     2.458919588728     0.451452359626     1.007825032230
         H           -3.945538032946     2.049401588728     0.855641359626     1.007825032230

  Basis Set: AUG-CC-PVTZ
    Blend: AUG-CC-PVTZ
  Basis Set: (AUG-CC-PVTZ AUX)
    Blend: AUG-CC-PVTZ-JKFIT
	 Reference Energy          =    -667.2733441292840553 [Eh]
	 Singles Energy            =      -0.0000000000000000 [Eh]
	 Same-Spin Energy          =      -0.7357462198440645 [Eh]
	 Opposite-Spin Energy      =      -2.2656069175287104 [Eh]
	 Correlation Energy        =      -3.0013531373727749 [Eh]
	 Total Energy              =    -670.2746972666568581 [Eh]

	 ================> DF-SCS-MP2 Energies <==================
	-----------------------------------------------------------
	 SCS Same-Spin Scale       =       0.3333333333333333 [-]
	 SCS Opposite-Spin Scale   =       1.2000000000000000 [-]
	 SCS Same-Spin Energy      =      -0.2452487399480215 [Eh]
	 SCS Opposite-Spin Energy  =      -2.7187283010344525 [Eh]
	 SCS Correlation Energy    =      -2.9639770409824742 [Eh]
	 SCS Total Energy          =    -670.2373211702665685 [Eh]
	-----------------------------------------------------------

  Dipole Moment: [D]
     X:     0.2907      Y:    -1.6885      Z:    -0.0462     Total:     1.7140

*** Psi4 exiting successfully. Buy a developer a beer!
