                               Psi4 1.4a3.dev225

  ==> Input File <==

--------------------------------------------------------------------------
#psi4
#
memory 32 gb

molecule  {
0 1
  O       -0.5498120     2.2556960    -0.2996080
  N       -3.0129360     1.7813540     0.8248620
  C        1.0008190     0.4908720    -0.0872200
  C       -1.5329590     0.0859130    -0.1428360
  C       -0.3878030     1.0286420    -0.1846270
  C        3.5360935    -0.3652836     0.1984161
  C       -2.8127890     0.5150010     0.2964470
  C        1.3212360    -0.6095270     0.7211930
  C        2.0273690     1.1786660    -0.7492360
  C        2.6489240    -1.0168440     0.8468500
  C        3.3454510     0.7479200    -0.6334830
  C       -1.3791480    -1.2185740    -0.6492330
  C       -3.8612840    -0.4227650     0.3079770
  C       -2.4390410    -2.1168890    -0.6711390
  C        5.1038640    -0.8322750     0.2664150
  C       -3.6857840    -1.7096250    -0.1856360
  H        0.5383950    -1.1258400     1.2710410
  H        1.7737210     2.0503190    -1.3473030
  H        2.8902070    -1.8603380     1.4919100
  H        4.1335430     1.2826870    -1.1615780
  H       -0.4095800    -1.5185310    -1.0371660
  H       -4.8387790    -0.1097830     0.6721110
  H       -2.3031150    -3.1155080    -1.0770870
  H        5.8059070     0.0022690     0.1830070
  H        5.2850310    -1.3360150     1.2200590
  H        5.3367840    -1.5427250    -0.5345020
  H       -4.5250650    -2.4017370    -0.1822600
  H       -2.3845940     2.4838010     0.4485930
  H       -3.9825350     2.0742830     0.8527820
units angstrom
no_reorient  #important for SAPT in psi4, default
symmetry c1  #important for SAPT in psi4, default
}

set PROPERTIES_ORIGIN ["COM"]
properties('MP2/aug-cc-pvtz', properties = ['dipole'])
--------------------------------------------------------------------------

    Molecular point group: c1
  Charge       = 0
  Multiplicity = 1
  Basis Set: AUG-CC-PVTZ
    Blend: AUG-CC-PVTZ
  Basis Set: (AUG-CC-PVTZ AUX)
    Blend: AUG-CC-PVTZ-JKFIT

    Orbital Energies [Eh]
    ---------------------

    Doubly Occupied:

       1A    -20.538566     2A    -15.560431     3A    -11.339269
       4A    -11.297335     5A    -11.253286     6A    -11.253140
       7A    -11.252688     8A    -11.247840     9A    -11.245371
      10A    -11.243789    11A    -11.239615    12A    -11.238767
      13A    -11.233208    14A    -11.232378    15A    -11.228712
      16A    -11.225795    17A     -1.371712    18A     -1.226981
      19A     -1.178581    20A     -1.137895    21A     -1.066478
      22A     -1.036898    23A     -1.022680    24A     -0.996745
      25A     -0.943120    26A     -0.877580    27A     -0.851517
      28A     -0.836378    29A     -0.811526    30A     -0.768942
      31A     -0.714006    32A     -0.692308    33A     -0.686951
      34A     -0.663504    35A     -0.642328    36A     -0.635910
      37A     -0.615205    38A     -0.607946    39A     -0.603788
      40A     -0.597271    41A     -0.583969    42A     -0.573626
      43A     -0.553395    44A     -0.542209    45A     -0.533049
      46A     -0.520578    47A     -0.512729    48A     -0.508305
      49A     -0.489918    50A     -0.464701    51A     -0.452464
      52A     -0.419115    53A     -0.354527    54A     -0.349298
      55A     -0.338279    56A     -0.300794

  @DF-RHF Final Energy:  -667.25216333186074

   => Energetics <=

    Nuclear Repulsion Energy =            994.8945250955337087
    One-Electron Energy =               -2880.8665860890841941
    Two-Electron Energy =                1218.7198976616898562
    Total Energy =                       -667.2521633318606291
  Basis Set: (AUG-CC-PVTZ AUX)
    Blend: AUG-CC-PVTZ-RI
    Molecular point group: c1

    Geometry (in Angstrom), charge = 0, multiplicity = 1:

       Center              X                  Y                   Z               Mass
    ------------   -----------------  -----------------  -----------------  -----------------
         O           -0.507235053810     2.232343462424    -0.297575407956    15.994914619570
         N           -2.970359053810     1.758001462424     0.826894592044    14.003074004430
         C            1.043395946190     0.467519462424    -0.085187407956    12.000000000000
         C           -1.490382053810     0.062560462424    -0.140803407956    12.000000000000
         C           -0.345226053810     1.005289462424    -0.182594407956    12.000000000000
         C            3.578670446190    -0.388636137576     0.200448692044    12.000000000000
         C           -2.770212053810     0.491648462424     0.298479592044    12.000000000000
         C            1.363812946190    -0.632879537576     0.723225592044    12.000000000000
         C            2.069945946190     1.155313462424    -0.747203407956    12.000000000000
         C            2.691500946190    -1.040196537576     0.848882592044    12.000000000000
         C            3.388027946190     0.724567462424    -0.631450407956    12.000000000000
         C           -1.336571053810    -1.241926537576    -0.647200407956    12.000000000000
         C           -3.818707053810    -0.446117537576     0.310009592044    12.000000000000
         C           -2.396464053810    -2.140241537576    -0.669106407956    12.000000000000
         C            5.146440946190    -0.855627537576     0.268447592044    12.000000000000
         C           -3.643207053810    -1.732977537576    -0.183603407956    12.000000000000
         H            0.580971946190    -1.149192537576     1.273073592044     1.007825032230
         H            1.816297946190     2.026966462424    -1.345270407956     1.007825032230
         H            2.932783946190    -1.883690537576     1.493942592044     1.007825032230
         H            4.176119946190     1.259334462424    -1.159545407956     1.007825032230
         H           -0.367003053810    -1.541883537576    -1.035133407956     1.007825032230
         H           -4.796202053810    -0.133135537576     0.674143592044     1.007825032230
         H           -2.260538053810    -3.138860537576    -1.075054407956     1.007825032230
         H            5.848483946190    -0.021083537576     0.185039592044     1.007825032230
         H            5.327607946190    -1.359367537576     1.222091592044     1.007825032230
         H            5.379360946190    -1.566077537576    -0.532469407956     1.007825032230
         H           -4.482488053810    -2.425089537576    -0.180227407956     1.007825032230
         H           -2.342017053810     2.460448462424     0.450625592044     1.007825032230
         H           -3.939958053810     2.050930462424     0.854814592044     1.007825032230

  Basis Set: AUG-CC-PVTZ
    Blend: AUG-CC-PVTZ
  Basis Set: (AUG-CC-PVTZ AUX)
    Blend: AUG-CC-PVTZ-JKFIT
	 Reference Energy          =    -667.2521633318607428 [Eh]
	 Singles Energy            =      -0.0000000000000000 [Eh]
	 Same-Spin Energy          =      -0.7348504655192817 [Eh]
	 Opposite-Spin Energy      =      -2.2653329577387482 [Eh]
	 Correlation Energy        =      -3.0001834232580298 [Eh]
	 Total Energy              =    -670.2523467551187650 [Eh]

	 ================> DF-SCS-MP2 Energies <==================
	-----------------------------------------------------------
	 SCS Same-Spin Scale       =       0.3333333333333333 [-]
	 SCS Opposite-Spin Scale   =       1.2000000000000000 [-]
	 SCS Same-Spin Energy      =      -0.2449501551730939 [Eh]
	 SCS Opposite-Spin Energy  =      -2.7183995492864979 [Eh]
	 SCS Correlation Energy    =      -2.9633497044595916 [Eh]
	 SCS Total Energy          =    -670.2155130363203170 [Eh]
	-----------------------------------------------------------

  Dipole Moment: [D]
     X:     0.1261      Y:    -1.7204      Z:    -0.1246     Total:     1.7295

*** Psi4 exiting successfully. Buy a developer a beer!
