                               Psi4 1.4a3.dev225

  ==> Input File <==

--------------------------------------------------------------------------
#psi4
#
memory 32 gb

molecule  {
0 1
  O       -0.5498120     2.2556960    -0.2996080
  N       -2.8752316     1.8098179     0.7888710
  C        1.0008190     0.4908720    -0.0872200
  C       -1.5329590     0.0859130    -0.1428360
  C       -0.3878030     1.0286420    -0.1846270
  C        3.6793340    -0.3535020     0.1683990
  C       -2.8127890     0.5150010     0.2964470
  C        1.3212360    -0.6095270     0.7211930
  C        2.0273690     1.1786660    -0.7492360
  C        2.6489240    -1.0168440     0.8468500
  C        3.3454510     0.7479200    -0.6334830
  C       -1.3791480    -1.2185740    -0.6492330
  C       -3.8612840    -0.4227650     0.3079770
  C       -2.4390410    -2.1168890    -0.6711390
  C        5.1038640    -0.8322750     0.2664150
  C       -3.6857840    -1.7096250    -0.1856360
  H        0.5383950    -1.1258400     1.2710410
  H        1.7737210     2.0503190    -1.3473030
  H        2.8902070    -1.8603380     1.4919100
  H        4.1335430     1.2826870    -1.1615780
  H       -0.4095800    -1.5185310    -1.0371660
  H       -4.8387790    -0.1097830     0.6721110
  H       -2.3031150    -3.1155080    -1.0770870
  H        5.8059070     0.0022690     0.1830070
  H        5.2850310    -1.3360150     1.2200590
  H        5.3367840    -1.5427250    -0.5345020
  H       -4.5250650    -2.4017370    -0.1822600
  H       -2.3845940     2.4838010     0.4485930
  H       -3.9825350     2.0742830     0.8527820
units angstrom
no_reorient  #important for SAPT in psi4, default
symmetry c1  #important for SAPT in psi4, default
}

set PROPERTIES_ORIGIN ["COM"]
properties('MP2/aug-cc-pvtz', properties = ['dipole'])
--------------------------------------------------------------------------

    Molecular point group: c1
  Charge       = 0
  Multiplicity = 1
  Basis Set: AUG-CC-PVTZ
    Blend: AUG-CC-PVTZ
  Basis Set: (AUG-CC-PVTZ AUX)
    Blend: AUG-CC-PVTZ-JKFIT

    Orbital Energies [Eh]
    ---------------------

    Doubly Occupied:

       1A    -20.536406     2A    -15.562054     3A    -11.337046
       4A    -11.298778     5A    -11.256801     6A    -11.254904
       7A    -11.251891     8A    -11.250013     9A    -11.245720
      10A    -11.243039    11A    -11.238653    12A    -11.237342
      13A    -11.237122    14A    -11.236035    15A    -11.232876
      16A    -11.229263    17A     -1.370280    18A     -1.229493
      19A     -1.164744    20A     -1.138896    21A     -1.069304
      22A     -1.034546    23A     -1.020160    24A     -1.000586
      25A     -0.954035    26A     -0.878948    27A     -0.838551
      28A     -0.834270    29A     -0.818353    30A     -0.769226
      31A     -0.716183    32A     -0.704817    33A     -0.673050
      34A     -0.661771    35A     -0.644703    36A     -0.637773
      37A     -0.613875    38A     -0.605136    39A     -0.595927
      40A     -0.591894    41A     -0.583776    42A     -0.574282
      43A     -0.556603    44A     -0.545246    45A     -0.533757
      46A     -0.517568    47A     -0.511069    48A     -0.501463
      49A     -0.492979    50A     -0.480880    51A     -0.453949
      52A     -0.418626    53A     -0.350117    54A     -0.342647
      55A     -0.333360    56A     -0.302193

  @DF-RHF Final Energy:  -667.24539226059244

   => Energetics <=

    Nuclear Repulsion Energy =            994.5253303433821657
    One-Electron Energy =               -2880.1154926879135019
    Two-Electron Energy =                1218.3447700839387835
    Total Energy =                       -667.2453922605925527
  Basis Set: (AUG-CC-PVTZ AUX)
    Blend: AUG-CC-PVTZ-RI
    Molecular point group: c1

    Geometry (in Angstrom), charge = 0, multiplicity = 1:

       Center              X                  Y                   Z               Mass
    ------------   -----------------  -----------------  -----------------  -----------------
         O           -0.524512059231     2.229785612923    -0.293481656145    15.994914619570
         N           -2.849931659231     1.783907512923     0.794997343855    14.003074004430
         C            1.026118940769     0.464961612923    -0.081093656145    12.000000000000
         C           -1.507659059231     0.060002612923    -0.136709656145    12.000000000000
         C           -0.362503059231     1.002731612923    -0.178500656145    12.000000000000
         C            3.704633940769    -0.379412387077     0.174525343855    12.000000000000
         C           -2.787489059231     0.489090612923     0.302573343855    12.000000000000
         C            1.346535940769    -0.635437387077     0.727319343855    12.000000000000
         C            2.052668940769     1.152755612923    -0.743109656145    12.000000000000
         C            2.674223940769    -1.042754387077     0.852976343855    12.000000000000
         C            3.370750940769     0.722009612923    -0.627356656145    12.000000000000
         C           -1.353848059231    -1.244484387077    -0.643106656145    12.000000000000
         C           -3.835984059231    -0.448675387077     0.314103343855    12.000000000000
         C           -2.413741059231    -2.142799387077    -0.665012656145    12.000000000000
         C            5.129163940769    -0.858185387077     0.272541343855    12.000000000000
         C           -3.660484059231    -1.735535387077    -0.179509656145    12.000000000000
         H            0.563694940769    -1.151750387077     1.277167343855     1.007825032230
         H            1.799020940769     2.024408612923    -1.341176656145     1.007825032230
         H            2.915506940769    -1.886248387077     1.498036343855     1.007825032230
         H            4.158842940769     1.256776612923    -1.155451656145     1.007825032230
         H           -0.384280059231    -1.544441387077    -1.031039656145     1.007825032230
         H           -4.813479059231    -0.135693387077     0.678237343855     1.007825032230
         H           -2.277815059231    -3.141418387077    -1.070960656145     1.007825032230
         H            5.831206940769    -0.023641387077     0.189133343855     1.007825032230
         H            5.310330940769    -1.361925387077     1.226185343855     1.007825032230
         H            5.362083940769    -1.568635387077    -0.528375656145     1.007825032230
         H           -4.499765059231    -2.427647387077    -0.176133656145     1.007825032230
         H           -2.359294059231     2.457890612923     0.454719343855     1.007825032230
         H           -3.957235059231     2.048372612923     0.858908343855     1.007825032230

  Basis Set: AUG-CC-PVTZ
    Blend: AUG-CC-PVTZ
  Basis Set: (AUG-CC-PVTZ AUX)
    Blend: AUG-CC-PVTZ-JKFIT
	 Reference Energy          =    -667.2453922605924390 [Eh]
	 Singles Energy            =      -0.0000000000000000 [Eh]
	 Same-Spin Energy          =      -0.7360418939070966 [Eh]
	 Opposite-Spin Energy      =      -2.2672501511988159 [Eh]
	 Correlation Energy        =      -3.0032920451059124 [Eh]
	 Total Energy              =    -670.2486843056983616 [Eh]

	 ================> DF-SCS-MP2 Energies <==================
	-----------------------------------------------------------
	 SCS Same-Spin Scale       =       0.3333333333333333 [-]
	 SCS Opposite-Spin Scale   =       1.2000000000000000 [-]
	 SCS Same-Spin Energy      =      -0.2453472979690322 [Eh]
	 SCS Opposite-Spin Energy  =      -2.7207001814385792 [Eh]
	 SCS Correlation Energy    =      -2.9660474794076115 [Eh]
	 SCS Total Energy          =    -670.2114397400000598 [Eh]
	-----------------------------------------------------------

  Dipole Moment: [D]
     X:     0.2101      Y:    -1.8929      Z:    -0.0932     Total:     1.9068

*** Psi4 exiting successfully. Buy a developer a beer!
