                               Psi4 1.4a3.dev225

  ==> Input File <==

--------------------------------------------------------------------------
#psi4
#
memory 32 gb

molecule  {
0 1
  O       -0.5498120     2.2556960    -0.2996080
  N       -3.0129360     1.7813540     0.8248620
  C        1.0008190     0.4908720    -0.0872200
  C       -1.5329590     0.0859130    -0.1428360
  C       -0.3878030     1.0286420    -0.1846270
  C        3.6793340    -0.3535020     0.1683990
  C       -2.8127890     0.5150010     0.2964470
  C        1.3212360    -0.6095270     0.7211930
  C        2.0273690     1.1786660    -0.7492360
  C        2.6489240    -1.0168440     0.8468500
  C        3.3454510     0.7479200    -0.6334830
  C       -1.3791480    -1.2185740    -0.6492330
  C       -3.8612840    -0.4227650     0.3079770
  C       -2.4390410    -2.1168890    -0.6711390
  C        5.1038640    -0.8322750     0.2664150
  C       -3.6857840    -1.7096250    -0.1856360
  H        0.5383950    -1.1258400     1.2710410
  H        1.7737210     2.0503190    -1.3473030
  H        2.8902070    -1.8603380     1.4919100
  H        4.1335430     1.2826870    -1.1615780
  H       -0.4095800    -1.5185310    -1.0371660
  H       -4.8387790    -0.1097830     0.6721110
  H       -2.3031150    -3.1155080    -1.0770870
  H        5.8380004     0.0404196     0.1791941
  H        5.2850310    -1.3360150     1.2200590
  H        5.3367840    -1.5427250    -0.5345020
  H       -4.5250650    -2.4017370    -0.1822600
  H       -2.3845940     2.4838010     0.4485930
  H       -3.9825350     2.0742830     0.8527820
units angstrom
no_reorient  #important for SAPT in psi4, default
symmetry c1  #important for SAPT in psi4, default
}

set PROPERTIES_ORIGIN ["COM"]
properties('MP2/aug-cc-pvtz', properties = ['dipole'])
--------------------------------------------------------------------------

    Molecular point group: c1
  Charge       = 0
  Multiplicity = 1
  Basis Set: AUG-CC-PVTZ
    Blend: AUG-CC-PVTZ
  Basis Set: (AUG-CC-PVTZ AUX)
    Blend: AUG-CC-PVTZ-JKFIT

    Orbital Energies [Eh]
    ---------------------

    Doubly Occupied:

       1A    -20.538119     2A    -15.560090     3A    -11.338589
       4A    -11.296974     5A    -11.257767     6A    -11.252796
       7A    -11.252338     8A    -11.250788     9A    -11.246405
      10A    -11.243730    11A    -11.239485    12A    -11.239195
      13A    -11.239153    14A    -11.237897    15A    -11.232031
      16A    -11.228373    17A     -1.371174    18A     -1.226629
      19A     -1.165318    20A     -1.137177    21A     -1.069147
      22A     -1.034374    23A     -1.020718    24A     -0.996598
      25A     -0.952127    26A     -0.876556    27A     -0.838952
      28A     -0.835931    29A     -0.812975    30A     -0.766241
      31A     -0.712829    32A     -0.691758    33A     -0.686276
      34A     -0.660532    35A     -0.645373    36A     -0.636182
      37A     -0.614162    38A     -0.603804    39A     -0.599955
      40A     -0.592826    41A     -0.584885    42A     -0.581585
      43A     -0.554959    44A     -0.541112    45A     -0.531117
      46A     -0.517274    47A     -0.513384    48A     -0.505050
      49A     -0.493430    50A     -0.481906    51A     -0.452360
      52A     -0.419029    53A     -0.349807    54A     -0.343209
      55A     -0.334080    56A     -0.300429

  @DF-RHF Final Energy:  -667.27444999660042

   => Energetics <=

    Nuclear Repulsion Energy =            992.6656213595399549
    One-Electron Energy =               -2876.4702209820447933
    Two-Electron Energy =                1216.5301496259044143
    Total Energy =                       -667.2744499966004241
  Basis Set: (AUG-CC-PVTZ AUX)
    Blend: AUG-CC-PVTZ-RI
    Molecular point group: c1

    Geometry (in Angstrom), charge = 0, multiplicity = 1:

       Center              X                  Y                   Z               Mass
    ------------   -----------------  -----------------  -----------------  -----------------
         O           -0.515530804185     2.231491598031    -0.295850877263    15.994914619570
         N           -2.978654804185     1.757149598031     0.828619122737    14.003074004430
         C            1.035100195815     0.466667598031    -0.083462877263    12.000000000000
         C           -1.498677804185     0.061708598031    -0.139078877263    12.000000000000
         C           -0.353521804185     1.004437598031    -0.180869877263    12.000000000000
         C            3.713615195815    -0.377706401969     0.172156122737    12.000000000000
         C           -2.778507804185     0.490796598031     0.300204122737    12.000000000000
         C            1.355517195815    -0.633731401969     0.724950122737    12.000000000000
         C            2.061650195815     1.154461598031    -0.745478877263    12.000000000000
         C            2.683205195815    -1.041048401969     0.850607122737    12.000000000000
         C            3.379732195815     0.723715598031    -0.629725877263    12.000000000000
         C           -1.344866804185    -1.242778401969    -0.645475877263    12.000000000000
         C           -3.827002804185    -0.446969401969     0.311734122737    12.000000000000
         C           -2.404759804185    -2.141093401969    -0.667381877263    12.000000000000
         C            5.138145195815    -0.856479401969     0.270172122737    12.000000000000
         C           -3.651502804185    -1.733829401969    -0.181878877263    12.000000000000
         H            0.572676195815    -1.150044401969     1.274798122737     1.007825032230
         H            1.808002195815     2.026114598031    -1.343545877263     1.007825032230
         H            2.924488195815    -1.884542401969     1.495667122737     1.007825032230
         H            4.167824195815     1.258482598031    -1.157820877263     1.007825032230
         H           -0.375298804185    -1.542735401969    -1.033408877263     1.007825032230
         H           -4.804497804185    -0.133987401969     0.675868122737     1.007825032230
         H           -2.268833804185    -3.139712401969    -1.073329877263     1.007825032230
         H            5.872281595815     0.016215198031     0.182951222737     1.007825032230
         H            5.319312195815    -1.360219401969     1.223816122737     1.007825032230
         H            5.371065195815    -1.566929401969    -0.530744877263     1.007825032230
         H           -4.490783804185    -2.425941401969    -0.178502877263     1.007825032230
         H           -2.350312804185     2.459596598031     0.452350122737     1.007825032230
         H           -3.948253804185     2.050078598031     0.856539122737     1.007825032230

  Basis Set: AUG-CC-PVTZ
    Blend: AUG-CC-PVTZ
  Basis Set: (AUG-CC-PVTZ AUX)
    Blend: AUG-CC-PVTZ-JKFIT
	 Reference Energy          =    -667.2744499966004241 [Eh]
	 Singles Energy            =      -0.0000000000000000 [Eh]
	 Same-Spin Energy          =      -0.7355359498799959 [Eh]
	 Opposite-Spin Energy      =      -2.2658696340258180 [Eh]
	 Correlation Energy        =      -3.0014055839058140 [Eh]
	 Total Energy              =    -670.2758555805062315 [Eh]

	 ================> DF-SCS-MP2 Energies <==================
	-----------------------------------------------------------
	 SCS Same-Spin Scale       =       0.3333333333333333 [-]
	 SCS Opposite-Spin Scale   =       1.2000000000000000 [-]
	 SCS Same-Spin Energy      =      -0.2451786499599986 [Eh]
	 SCS Opposite-Spin Energy  =      -2.7190435608309813 [Eh]
	 SCS Correlation Energy    =      -2.9642222107909801 [Eh]
	 SCS Total Energy          =    -670.2386722073914598 [Eh]
	-----------------------------------------------------------

  Dipole Moment: [D]
     X:     0.3222      Y:    -1.8255      Z:    -0.1046     Total:     1.8567

*** Psi4 exiting successfully. Buy a developer a beer!
