                               Psi4 1.4a3.dev225

  ==> Input File <==

--------------------------------------------------------------------------
#psi4
#
memory 32 gb

molecule  {
0 1
  O       -0.5498120     2.2556960    -0.2996080
  N       -3.0129360     1.7813540     0.8248620
  C        1.0008190     0.4908720    -0.0872200
  C       -1.5329590     0.0859130    -0.1428360
  C       -0.3878030     1.0286420    -0.1846270
  C        3.6793340    -0.3535020     0.1683990
  C       -2.8127890     0.5150010     0.2964470
  C        1.2974847    -0.6123442     0.7264016
  C        2.0273690     1.1786660    -0.7492360
  C        2.6489240    -1.0168440     0.8468500
  C        3.3454510     0.7479200    -0.6334830
  C       -1.3791480    -1.2185740    -0.6492330
  C       -3.8612840    -0.4227650     0.3079770
  C       -2.4390410    -2.1168890    -0.6711390
  C        5.1038640    -0.8322750     0.2664150
  C       -3.6857840    -1.7096250    -0.1856360
  H        0.5383950    -1.1258400     1.2710410
  H        1.7737210     2.0503190    -1.3473030
  H        2.8902070    -1.8603380     1.4919100
  H        4.1335430     1.2826870    -1.1615780
  H       -0.4095800    -1.5185310    -1.0371660
  H       -4.8387790    -0.1097830     0.6721110
  H       -2.3031150    -3.1155080    -1.0770870
  H        5.8059070     0.0022690     0.1830070
  H        5.2850310    -1.3360150     1.2200590
  H        5.3367840    -1.5427250    -0.5345020
  H       -4.5250650    -2.4017370    -0.1822600
  H       -2.3845940     2.4838010     0.4485930
  H       -3.9825350     2.0742830     0.8527820
units angstrom
no_reorient  #important for SAPT in psi4, default
symmetry c1  #important for SAPT in psi4, default
}

set PROPERTIES_ORIGIN ["COM"]
properties('MP2/aug-cc-pvtz', properties = ['dipole'])
--------------------------------------------------------------------------

    Molecular point group: c1
  Charge       = 0
  Multiplicity = 1
  Basis Set: AUG-CC-PVTZ
    Blend: AUG-CC-PVTZ
  Basis Set: (AUG-CC-PVTZ AUX)
    Blend: AUG-CC-PVTZ-JKFIT

    Orbital Energies [Eh]
    ---------------------

    Doubly Occupied:

       1A    -20.537756     2A    -15.560018     3A    -11.337924
       4A    -11.296919     5A    -11.257089     6A    -11.252754
       7A    -11.252247     8A    -11.251479     9A    -11.246308
      10A    -11.244204    11A    -11.241424    12A    -11.239120
      13A    -11.238411    14A    -11.233170    15A    -11.232000
      16A    -11.228339    17A     -1.370871    18A     -1.226565
      19A     -1.163557    20A     -1.137076    21A     -1.070026
      22A     -1.034495    23A     -1.018733    24A     -0.996562
      25A     -0.953836    26A     -0.876935    27A     -0.840747
      28A     -0.836704    29A     -0.812844    30A     -0.765545
      31A     -0.712717    32A     -0.691875    33A     -0.686170
      34A     -0.660284    35A     -0.646773    36A     -0.637953
      37A     -0.613854    38A     -0.603891    39A     -0.599925
      40A     -0.592683    41A     -0.584622    42A     -0.583551
      43A     -0.556078    44A     -0.544377    45A     -0.531704
      46A     -0.517717    47A     -0.512921    48A     -0.504319
      49A     -0.496109    50A     -0.481111    51A     -0.452361
      52A     -0.418238    53A     -0.349597    54A     -0.341332
      55A     -0.334480    56A     -0.300391

  @DF-RHF Final Energy:  -667.27548830556907

   => Energetics <=

    Nuclear Repulsion Energy =            992.7473922744995889
    One-Electron Energy =               -2876.6283833642419268
    Two-Electron Energy =                1216.6055027841732681
    Total Energy =                       -667.2754883055690698
  Basis Set: (AUG-CC-PVTZ AUX)
    Blend: AUG-CC-PVTZ-RI
    Molecular point group: c1

    Geometry (in Angstrom), charge = 0, multiplicity = 1:

       Center              X                  Y                   Z               Mass
    ------------   -----------------  -----------------  -----------------  -----------------
         O           -0.514027438189     2.231833879545    -0.296165164454    15.994914619570
         N           -2.977151438189     1.757491879545     0.828304835546    14.003074004430
         C            1.036603561811     0.467009879545    -0.083777164454    12.000000000000
         C           -1.497174438189     0.062050879545    -0.139393164454    12.000000000000
         C           -0.352018438189     1.004779879545    -0.181184164454    12.000000000000
         C            3.715118561811    -0.377364120455     0.171841835546    12.000000000000
         C           -2.777004438189     0.491138879545     0.299889835546    12.000000000000
         C            1.333269261811    -0.636206320455     0.729844435546    12.000000000000
         C            2.063153561811     1.154803879545    -0.745793164454    12.000000000000
         C            2.684708561811    -1.040706120455     0.850292835546    12.000000000000
         C            3.381235561811     0.724057879545    -0.630040164454    12.000000000000
         C           -1.343363438189    -1.242436120455    -0.645790164454    12.000000000000
         C           -3.825499438189    -0.446627120455     0.311419835546    12.000000000000
         C           -2.403256438189    -2.140751120455    -0.667696164454    12.000000000000
         C            5.139648561811    -0.856137120455     0.269857835546    12.000000000000
         C           -3.649999438189    -1.733487120455    -0.182193164454    12.000000000000
         H            0.574179561811    -1.149702120455     1.274483835546     1.007825032230
         H            1.809505561811     2.026456879545    -1.343860164454     1.007825032230
         H            2.925991561811    -1.884200120455     1.495352835546     1.007825032230
         H            4.169327561811     1.258824879545    -1.158135164454     1.007825032230
         H           -0.373795438189    -1.542393120455    -1.033723164454     1.007825032230
         H           -4.802994438189    -0.133645120455     0.675553835546     1.007825032230
         H           -2.267330438189    -3.139370120455    -1.073644164454     1.007825032230
         H            5.841691561811    -0.021593120455     0.186449835546     1.007825032230
         H            5.320815561811    -1.359877120455     1.223501835546     1.007825032230
         H            5.372568561811    -1.566587120455    -0.531059164454     1.007825032230
         H           -4.489280438189    -2.425599120455    -0.178817164454     1.007825032230
         H           -2.348809438189     2.459938879545     0.452035835546     1.007825032230
         H           -3.946750438189     2.050420879545     0.856224835546     1.007825032230

  Basis Set: AUG-CC-PVTZ
    Blend: AUG-CC-PVTZ
  Basis Set: (AUG-CC-PVTZ AUX)
    Blend: AUG-CC-PVTZ-JKFIT
	 Reference Energy          =    -667.2754883055690698 [Eh]
	 Singles Energy            =      -0.0000000000000000 [Eh]
	 Same-Spin Energy          =      -0.7355498669904588 [Eh]
	 Opposite-Spin Energy      =      -2.2657276746551958 [Eh]
	 Correlation Energy        =      -3.0012775416456545 [Eh]
	 Total Energy              =    -670.2767658472147332 [Eh]

	 ================> DF-SCS-MP2 Energies <==================
	-----------------------------------------------------------
	 SCS Same-Spin Scale       =       0.3333333333333333 [-]
	 SCS Opposite-Spin Scale   =       1.2000000000000000 [-]
	 SCS Same-Spin Energy      =      -0.2451832889968196 [Eh]
	 SCS Opposite-Spin Energy  =      -2.7188732095862349 [Eh]
	 SCS Correlation Energy    =      -2.9640564985830546 [Eh]
	 SCS Total Energy          =    -670.2395448041521604 [Eh]
	-----------------------------------------------------------

  Dipole Moment: [D]
     X:     0.3563      Y:    -1.8166      Z:    -0.1031     Total:     1.8541

*** Psi4 exiting successfully. Buy a developer a beer!
