                               Psi4 1.4a3.dev225

  ==> Input File <==

--------------------------------------------------------------------------
#psi4
#
memory 32 gb

molecule  {
0 1
  O       -0.5498120     2.2556960    -0.2996080
  N       -3.0129360     1.7813540     0.8248620
  C        1.0008190     0.4908720    -0.0872200
  C       -1.5329590     0.0859130    -0.1428360
  C       -0.3878030     1.0286420    -0.1846270
  C        3.6793340    -0.3535020     0.1683990
  C       -2.8127890     0.5150010     0.2964470
  C        1.3212360    -0.6095270     0.7211930
  C        2.0273690     1.1786660    -0.7492360
  C        2.6489240    -1.0168440     0.8468500
  C        3.3454510     0.7479200    -0.6334830
  C       -1.3791480    -1.2185740    -0.6492330
  C       -3.8612840    -0.4227650     0.3079770
  C       -2.4390410    -2.1168890    -0.6711390
  C        5.1038640    -0.8322750     0.2664150
  C       -3.6857840    -1.7096250    -0.1856360
  H        0.5383950    -1.1258400     1.2710410
  H        1.7737210     2.0503190    -1.3473030
  H        2.8902070    -1.8603380     1.4919100
  H        4.1335430     1.2826870    -1.1615780
  H       -0.4095800    -1.5185310    -1.0371660
  H       -4.8387790    -0.1097830     0.6721110
  H       -2.3031150    -3.1155080    -1.0770870
  H        5.8059070     0.0022690     0.1830070
  H        5.2850310    -1.3360150     1.2200590
  H        5.3410357    -1.5556935    -0.5491219
  H       -4.5250650    -2.4017370    -0.1822600
  H       -2.3845940     2.4838010     0.4485930
  H       -3.9825350     2.0742830     0.8527820
units angstrom
no_reorient  #important for SAPT in psi4, default
symmetry c1  #important for SAPT in psi4, default
}

set PROPERTIES_ORIGIN ["COM"]
properties('MP2/aug-cc-pvtz', properties = ['dipole'])
--------------------------------------------------------------------------

    Molecular point group: c1
  Charge       = 0
  Multiplicity = 1
  Basis Set: AUG-CC-PVTZ
    Blend: AUG-CC-PVTZ
  Basis Set: (AUG-CC-PVTZ AUX)
    Blend: AUG-CC-PVTZ-JKFIT

    Orbital Energies [Eh]
    ---------------------

    Doubly Occupied:

       1A    -20.538052     2A    -15.560045     3A    -11.338521
       4A    -11.296921     5A    -11.257469     6A    -11.252745
       7A    -11.252278     8A    -11.250637     9A    -11.246373
      10A    -11.243626    11A    -11.239192    12A    -11.239137
      13A    -11.237892    14A    -11.235605    15A    -11.231981
      16A    -11.228318    17A     -1.371110    18A     -1.226581
      19A     -1.165235    20A     -1.137126    21A     -1.069375
      22A     -1.034462    23A     -1.020657    24A     -0.996559
      25A     -0.953540    26A     -0.876786    27A     -0.838905
      28A     -0.836297    29A     -0.812999    30A     -0.766196
      31A     -0.712753    32A     -0.691736    33A     -0.686225
      34A     -0.661217    35A     -0.645246    36A     -0.636528
      37A     -0.614236    38A     -0.603658    39A     -0.599801
      40A     -0.592679    41A     -0.584415    42A     -0.580911
      43A     -0.555890    44A     -0.544791    45A     -0.531929
      46A     -0.518103    47A     -0.513167    48A     -0.504669
      49A     -0.493554    50A     -0.481820    51A     -0.452314
      52A     -0.418962    53A     -0.349751    54A     -0.343133
      55A     -0.333875    56A     -0.300377

  @DF-RHF Final Energy:  -667.27608128084728

   => Energetics <=

    Nuclear Repulsion Energy =            992.7950052148926261
    One-Electron Energy =               -2876.7294453958834310
    Two-Electron Energy =                1216.6583589001434120
    Total Energy =                       -667.2760812808473929
  Basis Set: (AUG-CC-PVTZ AUX)
    Blend: AUG-CC-PVTZ-RI
    Molecular point group: c1

    Geometry (in Angstrom), charge = 0, multiplicity = 1:

       Center              X                  Y                   Z               Mass
    ------------   -----------------  -----------------  -----------------  -----------------
         O           -0.515397883293     2.231735649089    -0.295799282853    15.994914619570
         N           -2.978521883293     1.757393649089     0.828670717147    14.003074004430
         C            1.035233116707     0.466911649089    -0.083411282853    12.000000000000
         C           -1.498544883293     0.061952649089    -0.139027282853    12.000000000000
         C           -0.353388883293     1.004681649089    -0.180818282853    12.000000000000
         C            3.713748116707    -0.377462350911     0.172207717147    12.000000000000
         C           -2.778374883293     0.491040649089     0.300255717147    12.000000000000
         C            1.355650116707    -0.633487350911     0.725001717147    12.000000000000
         C            2.061783116707     1.154705649089    -0.745427282853    12.000000000000
         C            2.683338116707    -1.040804350911     0.850658717147    12.000000000000
         C            3.379865116707     0.723959649089    -0.629674282853    12.000000000000
         C           -1.344733883293    -1.242534350911    -0.645424282853    12.000000000000
         C           -3.826869883293    -0.446725350911     0.311785717147    12.000000000000
         C           -2.404626883293    -2.140849350911    -0.667330282853    12.000000000000
         C            5.138278116707    -0.856235350911     0.270223717147    12.000000000000
         C           -3.651369883293    -1.733585350911    -0.181827282853    12.000000000000
         H            0.572809116707    -1.149800350911     1.274849717147     1.007825032230
         H            1.808135116707     2.026358649089    -1.343494282853     1.007825032230
         H            2.924621116707    -1.884298350911     1.495718717147     1.007825032230
         H            4.167957116707     1.258726649089    -1.157769282853     1.007825032230
         H           -0.375165883293    -1.542491350911    -1.033357282853     1.007825032230
         H           -4.804364883293    -0.133743350911     0.675919717147     1.007825032230
         H           -2.268700883293    -3.139468350911    -1.073278282853     1.007825032230
         H            5.840321116707    -0.021691350911     0.186815717147     1.007825032230
         H            5.319445116707    -1.359975350911     1.223867717147     1.007825032230
         H            5.375449816707    -1.579653850911    -0.545313182853     1.007825032230
         H           -4.490650883293    -2.425697350911    -0.178451282853     1.007825032230
         H           -2.350179883293     2.459840649089     0.452401717147     1.007825032230
         H           -3.948120883293     2.050322649089     0.856590717147     1.007825032230

  Basis Set: AUG-CC-PVTZ
    Blend: AUG-CC-PVTZ
  Basis Set: (AUG-CC-PVTZ AUX)
    Blend: AUG-CC-PVTZ-JKFIT
	 Reference Energy          =    -667.2760812808472792 [Eh]
	 Singles Energy            =      -0.0000000000000000 [Eh]
	 Same-Spin Energy          =      -0.7355217184680921 [Eh]
	 Opposite-Spin Energy      =      -2.2656339043632299 [Eh]
	 Correlation Energy        =      -3.0011556228313219 [Eh]
	 Total Energy              =    -670.2772369036786131 [Eh]

	 ================> DF-SCS-MP2 Energies <==================
	-----------------------------------------------------------
	 SCS Same-Spin Scale       =       0.3333333333333333 [-]
	 SCS Opposite-Spin Scale   =       1.2000000000000000 [-]
	 SCS Same-Spin Energy      =      -0.2451739061560307 [Eh]
	 SCS Opposite-Spin Energy  =      -2.7187606852358757 [Eh]
	 SCS Correlation Energy    =      -2.9639345913919062 [Eh]
	 SCS Total Energy          =    -670.2400158722391552 [Eh]
	-----------------------------------------------------------

  Dipole Moment: [D]
     X:     0.3445      Y:    -1.8085      Z:    -0.1008     Total:     1.8438

*** Psi4 exiting successfully. Buy a developer a beer!
