                               Psi4 1.4a3.dev225

  ==> Input File <==

--------------------------------------------------------------------------
#psi4
#
memory 32 gb

molecule  {
0 1
  O       -0.5498120     2.2556960    -0.2996080
  N       -3.0129360     1.7813540     0.8248620
  C        1.0008190     0.4908720    -0.0872200
  C       -1.5329590     0.0859130    -0.1428360
  C       -0.3878030     1.0286420    -0.1846270
  C        3.6793340    -0.3535020     0.1683990
  C       -2.8127890     0.5150010     0.2964470
  C        1.3212360    -0.6095270     0.7211930
  C        2.0273690     1.1786660    -0.7492360
  C        2.6489240    -1.0168440     0.8468500
  C        3.3454510     0.7479200    -0.6334830
  C       -1.3791480    -1.2185740    -0.6492330
  C       -3.8612840    -0.4227650     0.3079770
  C       -2.4390410    -2.1168890    -0.6711390
  C        5.1038640    -0.8322750     0.2664150
  C       -3.6857840    -1.7096250    -0.1856360
  H        0.5383950    -1.1258400     1.2710410
  H        1.7737210     2.0503190    -1.3473030
  H        2.8902070    -1.8603380     1.4919100
  H        4.1335430     1.2826870    -1.1615780
  H       -0.4095800    -1.5185310    -1.0371660
  H       -4.8387790    -0.1097830     0.6721110
  H       -2.3031150    -3.1155080    -1.0770870
  H        5.8059070     0.0022690     0.1830070
  H        5.3015968    -1.3820766     1.3072594
  H        5.3367840    -1.5427250    -0.5345020
  H       -4.5250650    -2.4017370    -0.1822600
  H       -2.3845940     2.4838010     0.4485930
  H       -3.9825350     2.0742830     0.8527820
units angstrom
no_reorient  #important for SAPT in psi4, default
symmetry c1  #important for SAPT in psi4, default
}

set PROPERTIES_ORIGIN ["COM"]
properties('MP2/aug-cc-pvtz', properties = ['dipole'])
--------------------------------------------------------------------------

    Molecular point group: c1
  Charge       = 0
  Multiplicity = 1
  Basis Set: AUG-CC-PVTZ
    Blend: AUG-CC-PVTZ
  Basis Set: (AUG-CC-PVTZ AUX)
    Blend: AUG-CC-PVTZ-JKFIT

    Orbital Energies [Eh]
    ---------------------

    Doubly Occupied:

       1A    -20.538251     2A    -15.560152     3A    -11.338714
       4A    -11.297040     5A    -11.258257     6A    -11.252850
       7A    -11.252405     8A    -11.250758     9A    -11.246768
      10A    -11.244918    11A    -11.243938    12A    -11.239306
      13A    -11.239269    14A    -11.238638    15A    -11.232084
      16A    -11.228424    17A     -1.371301    18A     -1.226692
      19A     -1.165480    20A     -1.137240    21A     -1.068917
      22A     -1.034129    23A     -1.020966    24A     -0.996639
      25A     -0.950142    26A     -0.876040    27A     -0.839054
      28A     -0.836060    29A     -0.812436    30A     -0.766304
      31A     -0.712786    32A     -0.691681    33A     -0.686324
      34A     -0.661556    35A     -0.643399    36A     -0.636786
      37A     -0.614145    38A     -0.603871    39A     -0.599635
      40A     -0.592888    41A     -0.584737    42A     -0.583028
      43A     -0.552265    44A     -0.537726    45A     -0.528803
      46A     -0.518190    47A     -0.513476    48A     -0.505206
      49A     -0.492297    50A     -0.481778    51A     -0.452422
      52A     -0.419163    53A     -0.349910    54A     -0.343401
      55A     -0.334215    56A     -0.300490

  @DF-RHF Final Energy:  -667.26997306798796

   => Energetics <=

    Nuclear Repulsion Energy =            992.4692755885062070
    One-Electron Energy =               -2876.0717970761857032
    Two-Electron Energy =                1216.3325484196916477
    Total Energy =                       -667.2699730679878485
  Basis Set: (AUG-CC-PVTZ AUX)
    Blend: AUG-CC-PVTZ-RI
    Molecular point group: c1

    Geometry (in Angstrom), charge = 0, multiplicity = 1:

       Center              X                  Y                   Z               Mass
    ------------   -----------------  -----------------  -----------------  -----------------
         O           -0.515456672848     2.231893641035    -0.296285389846    15.994914619570
         N           -2.978580672848     1.757551641035     0.828184610154    14.003074004430
         C            1.035174327152     0.467069641035    -0.083897389846    12.000000000000
         C           -1.498603672848     0.062110641035    -0.139513389846    12.000000000000
         C           -0.353447672848     1.004839641035    -0.181304389846    12.000000000000
         C            3.713689327152    -0.377304358965     0.171721610154    12.000000000000
         C           -2.778433672848     0.491198641035     0.299769610154    12.000000000000
         C            1.355591327152    -0.633329358965     0.724515610154    12.000000000000
         C            2.061724327152     1.154863641035    -0.745913389846    12.000000000000
         C            2.683279327152    -1.040646358965     0.850172610154    12.000000000000
         C            3.379806327152     0.724117641035    -0.630160389846    12.000000000000
         C           -1.344792672848    -1.242376358965    -0.645910389846    12.000000000000
         C           -3.826928672848    -0.446567358965     0.311299610154    12.000000000000
         C           -2.404685672848    -2.140691358965    -0.667816389846    12.000000000000
         C            5.138219327152    -0.856077358965     0.269737610154    12.000000000000
         C           -3.651428672848    -1.733427358965    -0.182313389846    12.000000000000
         H            0.572750327152    -1.149642358965     1.274363610154     1.007825032230
         H            1.808076327152     2.026516641035    -1.343980389846     1.007825032230
         H            2.924562327152    -1.884140358965     1.495232610154     1.007825032230
         H            4.167898327152     1.258884641035    -1.158255389846     1.007825032230
         H           -0.375224672848    -1.542333358965    -1.033843389846     1.007825032230
         H           -4.804423672848    -0.133585358965     0.675433610154     1.007825032230
         H           -2.268759672848    -3.139310358965    -1.073764389846     1.007825032230
         H            5.840262327152    -0.021533358965     0.186329610154     1.007825032230
         H            5.335952127152    -1.405878958965     1.310582010154     1.007825032230
         H            5.371139327152    -1.566527358965    -0.531179389846     1.007825032230
         H           -4.490709672848    -2.425539358965    -0.178937389846     1.007825032230
         H           -2.350238672848     2.459998641035     0.451915610154     1.007825032230
         H           -3.948179672848     2.050480641035     0.856104610154     1.007825032230

  Basis Set: AUG-CC-PVTZ
    Blend: AUG-CC-PVTZ
  Basis Set: (AUG-CC-PVTZ AUX)
    Blend: AUG-CC-PVTZ-JKFIT
	 Reference Energy          =    -667.2699730679879622 [Eh]
	 Singles Energy            =      -0.0000000000000000 [Eh]
	 Same-Spin Energy          =      -0.7355542241716652 [Eh]
	 Opposite-Spin Energy      =      -2.2662823012769331 [Eh]
	 Correlation Energy        =      -3.0018365254485984 [Eh]
	 Total Energy              =    -670.2718095934366147 [Eh]

	 ================> DF-SCS-MP2 Energies <==================
	-----------------------------------------------------------
	 SCS Same-Spin Scale       =       0.3333333333333333 [-]
	 SCS Opposite-Spin Scale   =       1.2000000000000000 [-]
	 SCS Same-Spin Energy      =      -0.2451847413905550 [Eh]
	 SCS Opposite-Spin Energy  =      -2.7195387615323194 [Eh]
	 SCS Correlation Energy    =      -2.9647235029228747 [Eh]
	 SCS Total Energy          =    -670.2346965709108417 [Eh]
	-----------------------------------------------------------

  Dipole Moment: [D]
     X:     0.3085      Y:    -1.7840      Z:    -0.1468     Total:     1.8164

*** Psi4 exiting successfully. Buy a developer a beer!
