                               Psi4 1.4a3.dev225

  ==> Input File <==

--------------------------------------------------------------------------
#psi4
#
memory 32 gb

molecule  {
0 1
  O       -0.5498120     2.2556960    -0.2996080
  N       -3.0129360     1.7813540     0.8248620
  C        1.0008190     0.4908720    -0.0872200
  C       -1.5329590     0.0859130    -0.1428360
  C       -0.3878030     1.0286420    -0.1846270
  C        3.6793340    -0.3535020     0.1683990
  C       -2.8127890     0.5150010     0.2964470
  C        1.3212360    -0.6095270     0.7211930
  C        2.0273690     1.1786660    -0.7492360
  C        2.6489240    -1.0168440     0.8468500
  C        3.3454510     0.7479200    -0.6334830
  C       -1.3791480    -1.2185740    -0.6492330
  C       -3.8612840    -0.4227650     0.3079770
  C       -2.4390410    -2.1168890    -0.6711390
  C        5.1038640    -0.8322750     0.2664150
  C       -3.6857840    -1.7096250    -0.1856360
  H        0.5383950    -1.1258400     1.2710410
  H        1.7737210     2.0503190    -1.3473030
  H        2.8902070    -1.8603380     1.4919100
  H        4.1335430     1.2826870    -1.1615780
  H       -0.4095800    -1.5185310    -1.0371660
  H       -5.0182910    -0.0523054     0.7389824
  H       -2.3031150    -3.1155080    -1.0770870
  H        5.8059070     0.0022690     0.1830070
  H        5.2850310    -1.3360150     1.2200590
  H        5.3367840    -1.5427250    -0.5345020
  H       -4.5250650    -2.4017370    -0.1822600
  H       -2.3845940     2.4838010     0.4485930
  H       -3.9825350     2.0742830     0.8527820
units angstrom
no_reorient  #important for SAPT in psi4, default
symmetry c1  #important for SAPT in psi4, default
}

set PROPERTIES_ORIGIN ["COM"]
properties('MP2/aug-cc-pvtz', properties = ['dipole'])
--------------------------------------------------------------------------

    Molecular point group: c1
  Charge       = 0
  Multiplicity = 1
  Basis Set: AUG-CC-PVTZ
    Blend: AUG-CC-PVTZ
  Basis Set: (AUG-CC-PVTZ AUX)
    Blend: AUG-CC-PVTZ-JKFIT

    Orbital Energies [Eh]
    ---------------------

    Doubly Occupied:

       1A    -20.538792     2A    -15.559846     3A    -11.339467
       4A    -11.299502     5A    -11.257809     6A    -11.255414
       7A    -11.253535     8A    -11.253442     9A    -11.251133
      10A    -11.246855    11A    -11.244178    12A    -11.240938
      13A    -11.239563    14A    -11.238262    15A    -11.233572
      16A    -11.230095    17A     -1.371823    18A     -1.226550
      19A     -1.165727    20A     -1.138241    21A     -1.069925
      22A     -1.033868    23A     -1.020946    24A     -0.995011
      25A     -0.955114    26A     -0.877977    27A     -0.838769
      28A     -0.831353    29A     -0.813247    30A     -0.765365
      31A     -0.707717    32A     -0.691610    33A     -0.685915
      34A     -0.661176    35A     -0.644026    36A     -0.635041
      37A     -0.615065    38A     -0.602458    39A     -0.594838
      40A     -0.591364    41A     -0.584742    42A     -0.572422
      43A     -0.556626    44A     -0.545432    45A     -0.533422
      46A     -0.518891    47A     -0.510827    48A     -0.495042
      49A     -0.493029    50A     -0.481707    51A     -0.453051
      52A     -0.419544    53A     -0.351122    54A     -0.343716
      55A     -0.334486    56A     -0.301599

  @DF-RHF Final Energy:  -667.25453069622017

   => Energetics <=

    Nuclear Repulsion Energy =            991.8814634862685580
    One-Electron Energy =               -2874.8496177271686065
    Two-Electron Energy =                1215.7136235446798764
    Total Energy =                       -667.2545306962201721
  Basis Set: (AUG-CC-PVTZ AUX)
    Blend: AUG-CC-PVTZ-RI
    Molecular point group: c1

    Geometry (in Angstrom), charge = 0, multiplicity = 1:

       Center              X                  Y                   Z               Mass
    ------------   -----------------  -----------------  -----------------  -----------------
         O           -0.514520564924     2.231399327729    -0.296188335830    15.994914619570
         N           -2.977644564924     1.757057327729     0.828281664170    14.003074004430
         C            1.036110435076     0.466575327729    -0.083800335830    12.000000000000
         C           -1.497667564924     0.061616327729    -0.139416335830    12.000000000000
         C           -0.352511564924     1.004345327729    -0.181207335830    12.000000000000
         C            3.714625435076    -0.377798672271     0.171818664170    12.000000000000
         C           -2.777497564924     0.490704327729     0.299866664170    12.000000000000
         C            1.356527435076    -0.633823672271     0.724612664170    12.000000000000
         C            2.062660435076     1.154369327729    -0.745816335830    12.000000000000
         C            2.684215435076    -1.041140672271     0.850269664170    12.000000000000
         C            3.380742435076     0.723623327729    -0.630063335830    12.000000000000
         C           -1.343856564924    -1.242870672271    -0.645813335830    12.000000000000
         C           -3.825992564924    -0.447061672271     0.311396664170    12.000000000000
         C           -2.403749564924    -2.141185672271    -0.667719335830    12.000000000000
         C            5.139155435076    -0.856571672271     0.269834664170    12.000000000000
         C           -3.650492564924    -1.733921672271    -0.182216335830    12.000000000000
         H            0.573686435076    -1.150136672271     1.274460664170     1.007825032230
         H            1.809012435076     2.026022327729    -1.343883335830     1.007825032230
         H            2.925498435076    -1.884634672271     1.495329664170     1.007825032230
         H            4.168834435076     1.258390327729    -1.158158335830     1.007825032230
         H           -0.374288564924    -1.542827672271    -1.033746335830     1.007825032230
         H           -4.982999564924    -0.076602072271     0.742402064170     1.007825032230
         H           -2.267823564924    -3.139804672271    -1.073667335830     1.007825032230
         H            5.841198435076    -0.022027672271     0.186426664170     1.007825032230
         H            5.320322435076    -1.360311672271     1.223478664170     1.007825032230
         H            5.372075435076    -1.567021672271    -0.531082335830     1.007825032230
         H           -4.489773564924    -2.426033672271    -0.178840335830     1.007825032230
         H           -2.349302564924     2.459504327729     0.452012664170     1.007825032230
         H           -3.947243564924     2.049986327729     0.856201664170     1.007825032230

  Basis Set: AUG-CC-PVTZ
    Blend: AUG-CC-PVTZ
  Basis Set: (AUG-CC-PVTZ AUX)
    Blend: AUG-CC-PVTZ-JKFIT
	 Reference Energy          =    -667.2545306962201721 [Eh]
	 Singles Energy            =      -0.0000000000000000 [Eh]
	 Same-Spin Energy          =      -0.7360767324783254 [Eh]
	 Opposite-Spin Energy      =      -2.2677023419514910 [Eh]
	 Correlation Energy        =      -3.0037790744298163 [Eh]
	 Total Energy              =    -670.2583097706500439 [Eh]

	 ================> DF-SCS-MP2 Energies <==================
	-----------------------------------------------------------
	 SCS Same-Spin Scale       =       0.3333333333333333 [-]
	 SCS Opposite-Spin Scale   =       1.2000000000000000 [-]
	 SCS Same-Spin Energy      =      -0.2453589108261084 [Eh]
	 SCS Opposite-Spin Energy  =      -2.7212428103417889 [Eh]
	 SCS Correlation Energy    =      -2.9666017211678972 [Eh]
	 SCS Total Energy          =    -670.2211324173880485 [Eh]
	-----------------------------------------------------------

  Dipole Moment: [D]
     X:     0.4736      Y:    -1.8461      Z:    -0.1409     Total:     1.9111

*** Psi4 exiting successfully. Buy a developer a beer!
