                               Psi4 1.4a3.dev225

  ==> Input File <==

--------------------------------------------------------------------------
#psi4
#
memory 32 gb

molecule  {
0 1
  O       -0.5498120     2.2556960    -0.2996080
  N       -3.1036130     1.7546445     0.8456614
  C        1.0008190     0.4908720    -0.0872200
  C       -1.5329590     0.0859130    -0.1428360
  C       -0.3878030     1.0286420    -0.1846270
  C        3.6793340    -0.3535020     0.1683990
  C       -2.8127890     0.5150010     0.2964470
  C        1.3212360    -0.6095270     0.7211930
  C        2.0273690     1.1786660    -0.7492360
  C        2.6489240    -1.0168440     0.8468500
  C        3.3454510     0.7479200    -0.6334830
  C       -1.3791480    -1.2185740    -0.6492330
  C       -3.8612840    -0.4227650     0.3079770
  C       -2.4390410    -2.1168890    -0.6711390
  C        5.1038640    -0.8322750     0.2664150
  C       -3.6857840    -1.7096250    -0.1856360
  H        0.5383950    -1.1258400     1.2710410
  H        1.7737210     2.0503190    -1.3473030
  H        2.8902070    -1.8603380     1.4919100
  H        4.1335430     1.2826870    -1.1615780
  H       -0.4095800    -1.5185310    -1.0371660
  H       -4.8387790    -0.1097830     0.6721110
  H       -2.3031150    -3.1155080    -1.0770870
  H        5.8059070     0.0022690     0.1830070
  H        5.2850310    -1.3360150     1.2200590
  H        5.3367840    -1.5427250    -0.5345020
  H       -4.5250650    -2.4017370    -0.1822600
  H       -2.3845940     2.4838010     0.4485930
  H       -3.9825350     2.0742830     0.8527820
units angstrom
no_reorient  #important for SAPT in psi4, default
symmetry c1  #important for SAPT in psi4, default
}

set PROPERTIES_ORIGIN ["COM"]
properties('MP2/aug-cc-pvtz', properties = ['dipole'])
--------------------------------------------------------------------------

    Molecular point group: c1
  Charge       = 0
  Multiplicity = 1
  Basis Set: AUG-CC-PVTZ
    Blend: AUG-CC-PVTZ
  Basis Set: (AUG-CC-PVTZ AUX)
    Blend: AUG-CC-PVTZ-JKFIT

    Orbital Energies [Eh]
    ---------------------

    Doubly Occupied:

       1A    -20.539586     2A    -15.558028     3A    -11.339791
       4A    -11.297623     5A    -11.257882     6A    -11.252766
       7A    -11.251441     8A    -11.251187     9A    -11.246938
      10A    -11.244135    11A    -11.241163    12A    -11.239581
      13A    -11.238295    14A    -11.233601    15A    -11.229848
      16A    -11.228207    17A     -1.372220    18A     -1.228009
      19A     -1.165756    20A     -1.137697    21A     -1.069986
      22A     -1.034937    23A     -1.021122    24A     -0.996899
      25A     -0.955401    26A     -0.876892    27A     -0.840440
      28A     -0.838028    29A     -0.813998    30A     -0.765102
      31A     -0.720315    32A     -0.700263    33A     -0.674875
      34A     -0.660730    35A     -0.647092    36A     -0.635336
      37A     -0.621319    38A     -0.601319    39A     -0.596621
      40A     -0.593210    41A     -0.584449    42A     -0.578709
      43A     -0.555758    44A     -0.544628    45A     -0.530304
      46A     -0.518368    47A     -0.513691    48A     -0.506144
      49A     -0.494025    50A     -0.482918    51A     -0.451836
      52A     -0.418654    53A     -0.349811    54A     -0.343594
      55A     -0.334589    56A     -0.299773

  @DF-RHF Final Energy:  -667.26309200621904

   => Energetics <=

    Nuclear Repulsion Energy =            992.0249112823777295
    One-Electron Energy =               -2875.1262219677541907
    Two-Electron Energy =                1215.8382186791575350
    Total Energy =                       -667.2630920062190398
  Basis Set: (AUG-CC-PVTZ AUX)
    Blend: AUG-CC-PVTZ-RI
    Molecular point group: c1

    Geometry (in Angstrom), charge = 0, multiplicity = 1:

       Center              X                  Y                   Z               Mass
    ------------   -----------------  -----------------  -----------------  -----------------
         O           -0.509362623052     2.233445481468    -0.297248786658    15.994914619570
         N           -3.063163623052     1.732393981468     0.848020613342    14.003074004430
         C            1.041268376948     0.468621481468    -0.084860786658    12.000000000000
         C           -1.492509623052     0.063662481468    -0.140476786658    12.000000000000
         C           -0.347353623052     1.006391481468    -0.182267786658    12.000000000000
         C            3.719783376948    -0.375752518532     0.170758213342    12.000000000000
         C           -2.772339623052     0.492750481468     0.298806213342    12.000000000000
         C            1.361685376948    -0.631777518532     0.723552213342    12.000000000000
         C            2.067818376948     1.156415481468    -0.746876786658    12.000000000000
         C            2.689373376948    -1.039094518532     0.849209213342    12.000000000000
         C            3.385900376948     0.725669481468    -0.631123786658    12.000000000000
         C           -1.338698623052    -1.240824518532    -0.646873786658    12.000000000000
         C           -3.820834623052    -0.445015518532     0.310336213342    12.000000000000
         C           -2.398591623052    -2.139139518532    -0.668779786658    12.000000000000
         C            5.144313376948    -0.854525518532     0.268774213342    12.000000000000
         C           -3.645334623052    -1.731875518532    -0.183276786658    12.000000000000
         H            0.578844376948    -1.148090518532     1.273400213342     1.007825032230
         H            1.814170376948     2.028068481468    -1.344943786658     1.007825032230
         H            2.930656376948    -1.882588518532     1.494269213342     1.007825032230
         H            4.173992376948     1.260436481468    -1.159218786658     1.007825032230
         H           -0.369130623052    -1.540781518532    -1.034806786658     1.007825032230
         H           -4.798329623052    -0.132033518532     0.674470213342     1.007825032230
         H           -2.262665623052    -3.137758518532    -1.074727786658     1.007825032230
         H            5.846356376948    -0.019981518532     0.185366213342     1.007825032230
         H            5.325480376948    -1.358265518532     1.222418213342     1.007825032230
         H            5.377233376948    -1.564975518532    -0.532142786658     1.007825032230
         H           -4.484615623052    -2.423987518532    -0.179900786658     1.007825032230
         H           -2.344144623052     2.461550481468     0.450952213342     1.007825032230
         H           -3.942085623052     2.052032481468     0.855141213342     1.007825032230

  Basis Set: AUG-CC-PVTZ
    Blend: AUG-CC-PVTZ
  Basis Set: (AUG-CC-PVTZ AUX)
    Blend: AUG-CC-PVTZ-JKFIT
	 Reference Energy          =    -667.2630920062190398 [Eh]
	 Singles Energy            =      -0.0000000000000000 [Eh]
	 Same-Spin Energy          =      -0.7357285700321625 [Eh]
	 Opposite-Spin Energy      =      -2.2660266047256430 [Eh]
	 Correlation Energy        =      -3.0017551747578057 [Eh]
	 Total Energy              =    -670.2648471809768580 [Eh]

	 ================> DF-SCS-MP2 Energies <==================
	-----------------------------------------------------------
	 SCS Same-Spin Scale       =       0.3333333333333333 [-]
	 SCS Opposite-Spin Scale   =       1.2000000000000000 [-]
	 SCS Same-Spin Energy      =      -0.2452428566773875 [Eh]
	 SCS Opposite-Spin Energy  =      -2.7192319256707713 [Eh]
	 SCS Correlation Energy    =      -2.9644747823481588 [Eh]
	 SCS Total Energy          =    -670.2275667885671737 [Eh]
	-----------------------------------------------------------

  Dipole Moment: [D]
     X:     0.4913      Y:    -1.8091      Z:    -0.1417     Total:     1.8800

*** Psi4 exiting successfully. Buy a developer a beer!
