                               Psi4 1.4a3.dev225

  ==> Input File <==

--------------------------------------------------------------------------
#psi4
#
memory 32 gb

molecule  {
0 1
  O       -0.5498120     2.2556960    -0.2996080
  N       -3.0129360     1.7813540     0.8248620
  C        1.0008190     0.4908720    -0.0872200
  C       -1.5329590     0.0859130    -0.1428360
  C       -0.3878030     1.0286420    -0.1846270
  C        3.6793340    -0.3535020     0.1683990
  C       -2.9566779     0.5079804     0.2787065
  C        1.3212360    -0.6095270     0.7211930
  C        2.0273690     1.1786660    -0.7492360
  C        2.6489240    -1.0168440     0.8468500
  C        3.3454510     0.7479200    -0.6334830
  C       -1.3791480    -1.2185740    -0.6492330
  C       -3.8612840    -0.4227650     0.3079770
  C       -2.4390410    -2.1168890    -0.6711390
  C        5.1038640    -0.8322750     0.2664150
  C       -3.6857840    -1.7096250    -0.1856360
  H        0.5383950    -1.1258400     1.2710410
  H        1.7737210     2.0503190    -1.3473030
  H        2.8902070    -1.8603380     1.4919100
  H        4.1335430     1.2826870    -1.1615780
  H       -0.4095800    -1.5185310    -1.0371660
  H       -4.8387790    -0.1097830     0.6721110
  H       -2.3031150    -3.1155080    -1.0770870
  H        5.8059070     0.0022690     0.1830070
  H        5.2850310    -1.3360150     1.2200590
  H        5.3367840    -1.5427250    -0.5345020
  H       -4.5250650    -2.4017370    -0.1822600
  H       -2.3845940     2.4838010     0.4485930
  H       -3.9825350     2.0742830     0.8527820
units angstrom
no_reorient  #important for SAPT in psi4, default
symmetry c1  #important for SAPT in psi4, default
}

set PROPERTIES_ORIGIN ["COM"]
properties('MP2/aug-cc-pvtz', properties = ['dipole'])
--------------------------------------------------------------------------

    Molecular point group: c1
  Charge       = 0
  Multiplicity = 1
  Basis Set: AUG-CC-PVTZ
    Blend: AUG-CC-PVTZ
  Basis Set: (AUG-CC-PVTZ AUX)
    Blend: AUG-CC-PVTZ-JKFIT

    Orbital Energies [Eh]
    ---------------------

    Doubly Occupied:

       1A    -20.536273     2A    -15.558838     3A    -11.338486
       4A    -11.292730     5A    -11.257602     6A    -11.256929
       7A    -11.254245     8A    -11.249959     9A    -11.248486
      10A    -11.245958    11A    -11.243559    12A    -11.238643
      13A    -11.237492    14A    -11.232977    15A    -11.230246
      16A    -11.218600    17A     -1.369201    18A     -1.226866
      19A     -1.164742    20A     -1.138278    21A     -1.070002
      22A     -1.037205    23A     -1.020710    24A     -1.001425
      25A     -0.952600    26A     -0.884029    27A     -0.837798
      28A     -0.826638    29A     -0.811596    30A     -0.766448
      31A     -0.710716    32A     -0.695396    33A     -0.685576
      34A     -0.663613    35A     -0.643930    36A     -0.637523
      37A     -0.616943    38A     -0.599263    39A     -0.598209
      40A     -0.592034    41A     -0.583767    42A     -0.581527
      43A     -0.555597    44A     -0.545814    45A     -0.538681
      46A     -0.520317    47A     -0.511144    48A     -0.493360
      49A     -0.489369    50A     -0.479002    51A     -0.453870
      52A     -0.418634    53A     -0.352258    54A     -0.342816
      55A     -0.333539    56A     -0.301294

  @DF-RHF Final Energy:  -667.25190906590467

   => Energetics <=

    Nuclear Repulsion Energy =            991.5235725184932107
    One-Electron Energy =               -2874.1654600616784592
    Two-Electron Energy =                1215.3899784772804651
    Total Energy =                       -667.2519090659047833
  Basis Set: (AUG-CC-PVTZ AUX)
    Blend: AUG-CC-PVTZ-RI
    Molecular point group: c1

    Geometry (in Angstrom), charge = 0, multiplicity = 1:

       Center              X                  Y                   Z               Mass
    ------------   -----------------  -----------------  -----------------  -----------------
         O           -0.507198195399     2.232072822550    -0.294860618868    15.994914619570
         N           -2.970322195399     1.757730822550     0.829609381132    14.003074004430
         C            1.043432804601     0.467248822550    -0.082472618868    12.000000000000
         C           -1.490345195399     0.062289822550    -0.138088618868    12.000000000000
         C           -0.345189195399     1.005018822550    -0.179879618868    12.000000000000
         C            3.721947804601    -0.377125177450     0.173146381132    12.000000000000
         C           -2.914064095399     0.484357222550     0.283453881132    12.000000000000
         C            1.363849804601    -0.633150177450     0.725940381132    12.000000000000
         C            2.069982804601     1.155042822550    -0.744488618868    12.000000000000
         C            2.691537804601    -1.040467177450     0.851597381132    12.000000000000
         C            3.388064804601     0.724296822550    -0.628735618868    12.000000000000
         C           -1.336534195399    -1.242197177450    -0.644485618868    12.000000000000
         C           -3.818670195399    -0.446388177450     0.312724381132    12.000000000000
         C           -2.396427195399    -2.140512177450    -0.666391618868    12.000000000000
         C            5.146477804601    -0.855898177450     0.271162381132    12.000000000000
         C           -3.643170195399    -1.733248177450    -0.180888618868    12.000000000000
         H            0.581008804601    -1.149463177450     1.275788381132     1.007825032230
         H            1.816334804601     2.026695822550    -1.342555618868     1.007825032230
         H            2.932820804601    -1.883961177450     1.496657381132     1.007825032230
         H            4.176156804601     1.259063822550    -1.156830618868     1.007825032230
         H           -0.366966195399    -1.542154177450    -1.032418618868     1.007825032230
         H           -4.796165195399    -0.133406177450     0.676858381132     1.007825032230
         H           -2.260501195399    -3.139131177450    -1.072339618868     1.007825032230
         H            5.848520804601    -0.021354177450     0.187754381132     1.007825032230
         H            5.327644804601    -1.359638177450     1.224806381132     1.007825032230
         H            5.379397804601    -1.566348177450    -0.529754618868     1.007825032230
         H           -4.482451195399    -2.425360177450    -0.177512618868     1.007825032230
         H           -2.341980195399     2.460177822550     0.453340381132     1.007825032230
         H           -3.939921195399     2.050659822550     0.857529381132     1.007825032230

  Basis Set: AUG-CC-PVTZ
    Blend: AUG-CC-PVTZ
  Basis Set: (AUG-CC-PVTZ AUX)
    Blend: AUG-CC-PVTZ-JKFIT
	 Reference Energy          =    -667.2519090659046697 [Eh]
	 Singles Energy            =      -0.0000000000000000 [Eh]
	 Same-Spin Energy          =      -0.7357346808006203 [Eh]
	 Opposite-Spin Energy      =      -2.2668542706351067 [Eh]
	 Correlation Energy        =      -3.0025889514357269 [Eh]
	 Total Energy              =    -670.2544980173404383 [Eh]

	 ================> DF-SCS-MP2 Energies <==================
	-----------------------------------------------------------
	 SCS Same-Spin Scale       =       0.3333333333333333 [-]
	 SCS Opposite-Spin Scale   =       1.2000000000000000 [-]
	 SCS Same-Spin Energy      =      -0.2452448936002068 [Eh]
	 SCS Opposite-Spin Energy  =      -2.7202251247621279 [Eh]
	 SCS Correlation Energy    =      -2.9654700183623346 [Eh]
	 SCS Total Energy          =    -670.2173790842670087 [Eh]
	-----------------------------------------------------------

  Dipole Moment: [D]
     X:     0.3696      Y:    -1.9140      Z:    -0.1520     Total:     1.9553

*** Psi4 exiting successfully. Buy a developer a beer!
