                               Psi4 1.4a3.dev225

  ==> Input File <==

--------------------------------------------------------------------------
#psi4
#
memory 32 gb

molecule  {
0 1
  O       -0.5498120     2.2556960    -0.2996080
  N       -3.0129360     1.7813540     0.8248620
  C        1.0008190     0.4908720    -0.0872200
  C       -1.5329590     0.0859130    -0.1428360
  C       -0.3878030     1.0286420    -0.1846270
  C        3.6793340    -0.3535020     0.1683990
  C       -2.8127890     0.5150010     0.2964470
  C        1.3212360    -0.6095270     0.7211930
  C        2.0273690     1.1786660    -0.7492360
  C        2.6489240    -1.0168440     0.8468500
  C        3.3454510     0.7479200    -0.6334830
  C       -1.3791480    -1.2185740    -0.6492330
  C       -3.8612840    -0.4227650     0.3079770
  C       -2.4390410    -2.1168890    -0.6711390
  C        5.1038640    -0.8322750     0.2664150
  C       -3.6857840    -1.7096250    -0.1856360
  H        0.5744015    -1.1020924     1.2457510
  H        1.7737210     2.0503190    -1.3473030
  H        2.8902070    -1.8603380     1.4919100
  H        4.1335430     1.2826870    -1.1615780
  H       -0.4095800    -1.5185310    -1.0371660
  H       -4.8387790    -0.1097830     0.6721110
  H       -2.3031150    -3.1155080    -1.0770870
  H        5.8059070     0.0022690     0.1830070
  H        5.2850310    -1.3360150     1.2200590
  H        5.3367840    -1.5427250    -0.5345020
  H       -4.5250650    -2.4017370    -0.1822600
  H       -2.3845940     2.4838010     0.4485930
  H       -3.9825350     2.0742830     0.8527820
units angstrom
no_reorient  #important for SAPT in psi4, default
symmetry c1  #important for SAPT in psi4, default
}

set PROPERTIES_ORIGIN ["COM"]
properties('MP2/aug-cc-pvtz', properties = ['dipole'])
--------------------------------------------------------------------------

    Molecular point group: c1
  Charge       = 0
  Multiplicity = 1
  Basis Set: AUG-CC-PVTZ
    Blend: AUG-CC-PVTZ
  Basis Set: (AUG-CC-PVTZ AUX)
    Blend: AUG-CC-PVTZ-JKFIT

    Orbital Energies [Eh]
    ---------------------

    Doubly Occupied:

       1A    -20.537982     2A    -15.560074     3A    -11.338447
       4A    -11.296972     5A    -11.257083     6A    -11.252795
       7A    -11.252386     8A    -11.246041     9A    -11.245077
      10A    -11.243042    11A    -11.239237    12A    -11.238766
      13A    -11.237704    14A    -11.233082    15A    -11.232049
      16A    -11.228401    17A     -1.371047    18A     -1.226620
      19A     -1.165357    20A     -1.137176    21A     -1.069818
      22A     -1.034560    23A     -1.022027    24A     -0.996634
      25A     -0.954455    26A     -0.877150    27A     -0.841722
      28A     -0.837203    29A     -0.813161    30A     -0.766821
      31A     -0.713293    32A     -0.692611    33A     -0.686324
      34A     -0.662273    35A     -0.647136    36A     -0.638824
      37A     -0.614247    38A     -0.603875    39A     -0.600066
      40A     -0.594509    41A     -0.584757    42A     -0.583712
      43A     -0.556238    44A     -0.544623    45A     -0.531920
      46A     -0.518205    47A     -0.513419    48A     -0.504953
      49A     -0.494732    50A     -0.481952    51A     -0.452467
      52A     -0.418901    53A     -0.349887    54A     -0.343004
      55A     -0.333755    56A     -0.300407

  @DF-RHF Final Energy:  -667.27594105081164

   => Energetics <=

    Nuclear Repulsion Energy =            993.1180882744938572
    One-Electron Energy =               -2877.3501011236348859
    Two-Electron Energy =                1216.9560717983295035
    Total Energy =                       -667.2759410508115252
  Basis Set: (AUG-CC-PVTZ AUX)
    Blend: AUG-CC-PVTZ-RI
    Molecular point group: c1

    Geometry (in Angstrom), charge = 0, multiplicity = 1:

       Center              X                  Y                   Z               Mass
    ------------   -----------------  -----------------  -----------------  -----------------
         O           -0.515549485973     2.231560360341    -0.295748342027    15.994914619570
         N           -2.978673485973     1.757218360341     0.828721657973    14.003074004430
         C            1.035081514027     0.466736360341    -0.083360342027    12.000000000000
         C           -1.498696485973     0.061777360341    -0.138976342027    12.000000000000
         C           -0.353540485973     1.004506360341    -0.180767342027    12.000000000000
         C            3.713596514027    -0.377637639659     0.172258657973    12.000000000000
         C           -2.778526485973     0.490865360341     0.300306657973    12.000000000000
         C            1.355498514027    -0.633662639659     0.725052657973    12.000000000000
         C            2.061631514027     1.154530360341    -0.745376342027    12.000000000000
         C            2.683186514027    -1.040979639659     0.850709657973    12.000000000000
         C            3.379713514027     0.723784360341    -0.629623342027    12.000000000000
         C           -1.344885485973    -1.242709639659    -0.645373342027    12.000000000000
         C           -3.827021485973    -0.446900639659     0.311836657973    12.000000000000
         C           -2.404778485973    -2.141024639659    -0.667279342027    12.000000000000
         C            5.138126514027    -0.856410639659     0.270274657973    12.000000000000
         C           -3.651521485973    -1.733760639659    -0.181776342027    12.000000000000
         H            0.608664014027    -1.126228039659     1.249610657973     1.007825032230
         H            1.807983514027     2.026183360341    -1.343443342027     1.007825032230
         H            2.924469514027    -1.884473639659     1.495769657973     1.007825032230
         H            4.167805514027     1.258551360341    -1.157718342027     1.007825032230
         H           -0.375317485973    -1.542666639659    -1.033306342027     1.007825032230
         H           -4.804516485973    -0.133918639659     0.675970657973     1.007825032230
         H           -2.268852485973    -3.139643639659    -1.073227342027     1.007825032230
         H            5.840169514027    -0.021866639659     0.186866657973     1.007825032230
         H            5.319293514027    -1.360150639659     1.223918657973     1.007825032230
         H            5.371046514027    -1.566860639659    -0.530642342027     1.007825032230
         H           -4.490802485973    -2.425872639659    -0.178400342027     1.007825032230
         H           -2.350331485973     2.459665360341     0.452452657973     1.007825032230
         H           -3.948272485973     2.050147360341     0.856641657973     1.007825032230

  Basis Set: AUG-CC-PVTZ
    Blend: AUG-CC-PVTZ
  Basis Set: (AUG-CC-PVTZ AUX)
    Blend: AUG-CC-PVTZ-JKFIT
	 Reference Energy          =    -667.2759410508116389 [Eh]
	 Singles Energy            =      -0.0000000000000000 [Eh]
	 Same-Spin Energy          =      -0.7353552959356262 [Eh]
	 Opposite-Spin Energy      =      -2.2651004261361485 [Eh]
	 Correlation Energy        =      -3.0004557220717745 [Eh]
	 Total Energy              =    -670.2763967728834587 [Eh]

	 ================> DF-SCS-MP2 Energies <==================
	-----------------------------------------------------------
	 SCS Same-Spin Scale       =       0.3333333333333333 [-]
	 SCS Opposite-Spin Scale   =       1.2000000000000000 [-]
	 SCS Same-Spin Energy      =      -0.2451184319785421 [Eh]
	 SCS Opposite-Spin Energy  =      -2.7181205113633782 [Eh]
	 SCS Correlation Energy    =      -2.9632389433419202 [Eh]
	 SCS Total Energy          =    -670.2391799941535737 [Eh]
	-----------------------------------------------------------

  Dipole Moment: [D]
     X:     0.3418      Y:    -1.8175      Z:    -0.1017     Total:     1.8522

*** Psi4 exiting successfully. Buy a developer a beer!
