                               Psi4 1.4a3.dev225

  ==> Input File <==

--------------------------------------------------------------------------
#psi4
#
memory 32 gb

molecule  {
0 1
  O       -0.5498120     2.2556960    -0.2996080
  N       -3.0129360     1.7813540     0.8248620
  C        1.0008190     0.4908720    -0.0872200
  C       -1.5329590     0.0859130    -0.1428360
  C       -0.3878030     1.0286420    -0.1846270
  C        3.6793340    -0.3535020     0.1683990
  C       -2.8127890     0.5150010     0.2964470
  C        1.3212360    -0.6095270     0.7211930
  C        2.0273690     1.1786660    -0.7492360
  C        2.6489240    -1.0168440     0.8468500
  C        3.3454510     0.7479200    -0.6334830
  C       -1.3791480    -1.2185740    -0.6492330
  C       -3.8612840    -0.4227650     0.3079770
  C       -2.4390410    -2.1168890    -0.6711390
  C        5.1038640    -0.8322750     0.2664150
  C       -3.6857840    -1.7096250    -0.1856360
  H        0.5383950    -1.1258400     1.2710410
  H        1.7737210     2.0503190    -1.3473030
  H        2.8902070    -1.8603380     1.4919100
  H        4.1335430     1.2826870    -1.1615780
  H       -0.4095800    -1.5185310    -1.0371660
  H       -4.8387790    -0.1097830     0.6721110
  H       -2.3031150    -3.1155080    -1.0770870
  H        5.8059070     0.0022690     0.1830070
  H        5.2850310    -1.3360150     1.2200590
  H        5.3367840    -1.5427250    -0.5345020
  H       -4.5250650    -2.4017370    -0.1822600
  H       -2.3845940     2.4838010     0.4485930
  H       -3.9633969     2.0685011     0.8522309
units angstrom
no_reorient  #important for SAPT in psi4, default
symmetry c1  #important for SAPT in psi4, default
}

set PROPERTIES_ORIGIN ["COM"]
properties('MP2/aug-cc-pvtz', properties = ['dipole'])
--------------------------------------------------------------------------

    Molecular point group: c1
  Charge       = 0
  Multiplicity = 1
  Basis Set: AUG-CC-PVTZ
    Blend: AUG-CC-PVTZ
  Basis Set: (AUG-CC-PVTZ AUX)
    Blend: AUG-CC-PVTZ-JKFIT

    Orbital Energies [Eh]
    ---------------------

    Doubly Occupied:

       1A    -20.538022     2A    -15.557963     3A    -11.338498
       4A    -11.296893     5A    -11.257353     6A    -11.252778
       7A    -11.252280     8A    -11.250605     9A    -11.246341
      10A    -11.243569    11A    -11.239120    12A    -11.239118
      13A    -11.237824    14A    -11.233243    15A    -11.232035
      16A    -11.228359    17A     -1.371088    18A     -1.228456
      19A     -1.165233    20A     -1.137820    21A     -1.069586
      22A     -1.034630    23A     -1.020627    24A     -0.997254
      25A     -0.954689    26A     -0.877072    27A     -0.839058
      28A     -0.836872    29A     -0.813399    30A     -0.766216
      31A     -0.713615    32A     -0.693191    33A     -0.687424
      34A     -0.661282    35A     -0.645365    36A     -0.636534
      37A     -0.615046    38A     -0.603781    39A     -0.600109
      40A     -0.592698    41A     -0.585256    42A     -0.583951
      43A     -0.555856    44A     -0.544716    45A     -0.531934
      46A     -0.518100    47A     -0.513326    48A     -0.504905
      49A     -0.493512    50A     -0.482081    51A     -0.452510
      52A     -0.418975    53A     -0.349752    54A     -0.343103
      55A     -0.333985    56A     -0.300515

  @DF-RHF Final Energy:  -667.27697237591337

   => Energetics <=

    Nuclear Repulsion Energy =            993.0060363271246615
    One-Electron Energy =               -2877.1309752229949481
    Two-Electron Energy =                1216.8479665199570263
    Total Energy =                       -667.2769723759133740
  Basis Set: (AUG-CC-PVTZ AUX)
    Blend: AUG-CC-PVTZ-RI
    Molecular point group: c1

    Geometry (in Angstrom), charge = 0, multiplicity = 1:

       Center              X                  Y                   Z               Mass
    ------------   -----------------  -----------------  -----------------  -----------------
         O           -0.515468953435     2.231701339070    -0.295866449637    15.994914619570
         N           -2.978592953435     1.757359339070     0.828603550363    14.003074004430
         C            1.035162046565     0.466877339070    -0.083478449637    12.000000000000
         C           -1.498615953435     0.061918339070    -0.139094449637    12.000000000000
         C           -0.353459953435     1.004647339070    -0.180885449637    12.000000000000
         C            3.713677046565    -0.377496660930     0.172140550363    12.000000000000
         C           -2.778445953435     0.491006339070     0.300188550363    12.000000000000
         C            1.355579046565    -0.633521660930     0.724934550363    12.000000000000
         C            2.061712046565     1.154671339070    -0.745494449637    12.000000000000
         C            2.683267046565    -1.040838660930     0.850591550363    12.000000000000
         C            3.379794046565     0.723925339070    -0.629741449637    12.000000000000
         C           -1.344804953435    -1.242568660930    -0.645491449637    12.000000000000
         C           -3.826940953435    -0.446759660930     0.311718550363    12.000000000000
         C           -2.404697953435    -2.140883660930    -0.667397449637    12.000000000000
         C            5.138207046565    -0.856269660930     0.270156550363    12.000000000000
         C           -3.651440953435    -1.733619660930    -0.181894449637    12.000000000000
         H            0.572738046565    -1.149834660930     1.274782550363     1.007825032230
         H            1.808064046565     2.026324339070    -1.343561449637     1.007825032230
         H            2.924550046565    -1.884332660930     1.495651550363     1.007825032230
         H            4.167886046565     1.258692339070    -1.157836449637     1.007825032230
         H           -0.375236953435    -1.542525660930    -1.033424449637     1.007825032230
         H           -4.804435953435    -0.133777660930     0.675852550363     1.007825032230
         H           -2.268771953435    -3.139502660930    -1.073345449637     1.007825032230
         H            5.840250046565    -0.021725660930     0.186748550363     1.007825032230
         H            5.319374046565    -1.360009660930     1.223800550363     1.007825032230
         H            5.371127046565    -1.566719660930    -0.530760449637     1.007825032230
         H           -4.490721953435    -2.425731660930    -0.178518449637     1.007825032230
         H           -2.350250953435     2.459806339070     0.452334550363     1.007825032230
         H           -3.929053853435     2.044506439070     0.855972450363     1.007825032230

  Basis Set: AUG-CC-PVTZ
    Blend: AUG-CC-PVTZ
  Basis Set: (AUG-CC-PVTZ AUX)
    Blend: AUG-CC-PVTZ-JKFIT
	 Reference Energy          =    -667.2769723759133740 [Eh]
	 Singles Energy            =      -0.0000000000000000 [Eh]
	 Same-Spin Energy          =      -0.7353963969327838 [Eh]
	 Opposite-Spin Energy      =      -2.2651595592023268 [Eh]
	 Correlation Energy        =      -3.0005559561351105 [Eh]
	 Total Energy              =    -670.2775283320485187 [Eh]

	 ================> DF-SCS-MP2 Energies <==================
	-----------------------------------------------------------
	 SCS Same-Spin Scale       =       0.3333333333333333 [-]
	 SCS Opposite-Spin Scale   =       1.2000000000000000 [-]
	 SCS Same-Spin Energy      =      -0.2451321323109279 [Eh]
	 SCS Opposite-Spin Energy  =      -2.7181914710427919 [Eh]
	 SCS Correlation Energy    =      -2.9633236033537198 [Eh]
	 SCS Total Energy          =    -670.2402959792671027 [Eh]
	-----------------------------------------------------------

  Dipole Moment: [D]
     X:     0.3641      Y:    -1.8206      Z:    -0.1076     Total:     1.8597

*** Psi4 exiting successfully. Buy a developer a beer!
