                               Psi4 1.4a3.dev225

  ==> Input File <==

--------------------------------------------------------------------------
#psi4
#
memory 32 gb

molecule  {
0 1
  O       -0.5498120     2.2556960    -0.2996080
  N       -3.0129360     1.7813540     0.8248620
  C        1.0008190     0.4908720    -0.0872200
  C       -1.5329590     0.0859130    -0.1428360
  C       -0.3878030     1.0286420    -0.1846270
  C        3.6793340    -0.3535020     0.1683990
  C       -2.8127890     0.5150010     0.2964470
  C        1.3212360    -0.6095270     0.7211930
  C        2.0273690     1.1786660    -0.7492360
  C        2.6489240    -1.0168440     0.8468500
  C        3.3454510     0.7479200    -0.6334830
  C       -1.3791480    -1.2185740    -0.6492330
  C       -3.8612840    -0.4227650     0.3079770
  C       -2.4390410    -2.1168890    -0.6711390
  C        5.1038640    -0.8322750     0.2664150
  C       -3.6857840    -1.7096250    -0.1856360
  H        0.5383950    -1.1258400     1.2710410
  H        1.7737210     2.0503190    -1.3473030
  H        2.8902070    -1.8603380     1.4919100
  H        4.1335430     1.2826870    -1.1615780
  H       -0.4095800    -1.5185310    -1.0371660
  H       -4.8387790    -0.1097830     0.6721110
  H       -2.3031150    -3.1155080    -1.0770870
  H        5.8059070     0.0022690     0.1830070
  H        5.2850310    -1.3360150     1.2200590
  H        5.3367840    -1.5427250    -0.5345020
  H       -4.5250650    -2.4017370    -0.1822600
  H       -2.3845940     2.4838010     0.4485930
  H       -3.9346898     2.0598283     0.8514043
units angstrom
no_reorient  #important for SAPT in psi4, default
symmetry c1  #important for SAPT in psi4, default
}

set PROPERTIES_ORIGIN ["COM"]
properties('MP2/aug-cc-pvtz', properties = ['dipole'])
--------------------------------------------------------------------------

    Molecular point group: c1
  Charge       = 0
  Multiplicity = 1
  Basis Set: AUG-CC-PVTZ
    Blend: AUG-CC-PVTZ
  Basis Set: (AUG-CC-PVTZ AUX)
    Blend: AUG-CC-PVTZ-JKFIT

    Orbital Energies [Eh]
    ---------------------

    Doubly Occupied:

       1A    -20.538049     2A    -15.554768     3A    -11.338531
       4A    -11.296895     5A    -11.257379     6A    -11.252863
       7A    -11.252325     8A    -11.250636     9A    -11.246369
      10A    -11.243600    11A    -11.239149    12A    -11.239145
      13A    -11.237850    14A    -11.233264    15A    -11.232154
      16A    -11.228459    17A     -1.371124    18A     -1.231624
      19A     -1.165291    20A     -1.138942    21A     -1.069622
      22A     -1.034732    23A     -1.020664    24A     -0.998387
      25A     -0.954830    26A     -0.877201    27A     -0.839577
      28A     -0.837398    29A     -0.813876    30A     -0.766290
      31A     -0.715395    32A     -0.695918    33A     -0.688396
      34A     -0.661354    35A     -0.645580    36A     -0.636611
      37A     -0.616251    38A     -0.603904    39A     -0.600479
      40A     -0.592761    41A     -0.585987    42A     -0.584042
      43A     -0.555924    44A     -0.544792    45A     -0.531995
      46A     -0.518195    47A     -0.513455    48A     -0.504983
      49A     -0.493543    50A     -0.482142    51A     -0.452851
      52A     -0.419062    53A     -0.349800    54A     -0.343134
      55A     -0.334013    56A     -0.300768

  @DF-RHF Final Energy:  -667.27610153690750

   => Energetics <=

    Nuclear Repulsion Energy =            993.1981857548513517
    One-Electron Energy =               -2877.4839151869441594
    Two-Electron Energy =                1217.0096278951855311
    Total Energy =                       -667.2761015369073903
  Basis Set: (AUG-CC-PVTZ AUX)
    Blend: AUG-CC-PVTZ-RI
    Molecular point group: c1

    Geometry (in Angstrom), charge = 0, multiplicity = 1:

       Center              X                  Y                   Z               Mass
    ------------   -----------------  -----------------  -----------------  -----------------
         O           -0.515606005890     2.231742744455    -0.295862503311    15.994914619570
         N           -2.978730005890     1.757400744455     0.828607496689    14.003074004430
         C            1.035024994110     0.466918744455    -0.083474503311    12.000000000000
         C           -1.498753005890     0.061959744455    -0.139090503311    12.000000000000
         C           -0.353597005890     1.004688744455    -0.180881503311    12.000000000000
         C            3.713539994110    -0.377455255545     0.172144496689    12.000000000000
         C           -2.778583005890     0.491047744455     0.300192496689    12.000000000000
         C            1.355441994110    -0.633480255545     0.724938496689    12.000000000000
         C            2.061574994110     1.154712744455    -0.745490503311    12.000000000000
         C            2.683129994110    -1.040797255545     0.850595496689    12.000000000000
         C            3.379656994110     0.723966744455    -0.629737503311    12.000000000000
         C           -1.344942005890    -1.242527255545    -0.645487503311    12.000000000000
         C           -3.827078005890    -0.446718255545     0.311722496689    12.000000000000
         C           -2.404835005890    -2.140842255545    -0.667393503311    12.000000000000
         C            5.138069994110    -0.856228255545     0.270160496689    12.000000000000
         C           -3.651578005890    -1.733578255545    -0.181890503311    12.000000000000
         H            0.572600994110    -1.149793255545     1.274786496689     1.007825032230
         H            1.807926994110     2.026365744455    -1.343557503311     1.007825032230
         H            2.924412994110    -1.884291255545     1.495655496689     1.007825032230
         H            4.167748994110     1.258733744455    -1.157832503311     1.007825032230
         H           -0.375374005890    -1.542484255545    -1.033420503311     1.007825032230
         H           -4.804573005890    -0.133736255545     0.675856496689     1.007825032230
         H           -2.268909005890    -3.139461255545    -1.073341503311     1.007825032230
         H            5.840112994110    -0.021684255545     0.186752496689     1.007825032230
         H            5.319236994110    -1.359968255545     1.223804496689     1.007825032230
         H            5.370989994110    -1.566678255545    -0.530756503311     1.007825032230
         H           -4.490859005890    -2.425690255545    -0.178514503311     1.007825032230
         H           -2.350388005890     2.459847744455     0.452338496689     1.007825032230
         H           -3.900483805890     2.035875044455     0.855149796689     1.007825032230

  Basis Set: AUG-CC-PVTZ
    Blend: AUG-CC-PVTZ
  Basis Set: (AUG-CC-PVTZ AUX)
    Blend: AUG-CC-PVTZ-JKFIT
	 Reference Energy          =    -667.2761015369075039 [Eh]
	 Singles Energy            =      -0.0000000000000000 [Eh]
	 Same-Spin Energy          =      -0.7352122630483967 [Eh]
	 Opposite-Spin Energy      =      -2.2646593153500856 [Eh]
	 Correlation Energy        =      -2.9998715783984822 [Eh]
	 Total Energy              =    -670.2759731153059874 [Eh]

	 ================> DF-SCS-MP2 Energies <==================
	-----------------------------------------------------------
	 SCS Same-Spin Scale       =       0.3333333333333333 [-]
	 SCS Opposite-Spin Scale   =       1.2000000000000000 [-]
	 SCS Same-Spin Energy      =      -0.2450707543494656 [Eh]
	 SCS Opposite-Spin Energy  =      -2.7175911784201028 [Eh]
	 SCS Correlation Energy    =      -2.9626619327695685 [Eh]
	 SCS Total Energy          =    -670.2387634696771102 [Eh]
	-----------------------------------------------------------

  Dipole Moment: [D]
     X:     0.3824      Y:    -1.8301      Z:    -0.1111     Total:     1.8729

*** Psi4 exiting successfully. Buy a developer a beer!
