                               Psi4 1.4a3.dev225

  ==> Input File <==

--------------------------------------------------------------------------
#psi4
#
memory 32 gb

molecule  {
0 1
  O       -0.5498120     2.2556960    -0.2996080
  N       -3.0129360     1.7813540     0.8248620
  C        1.0008190     0.4908720    -0.0872200
  C       -1.5329590     0.0859130    -0.1428360
  C       -0.3878030     1.0286420    -0.1846270
  C        3.6793340    -0.3535020     0.1683990
  C       -2.8127890     0.5150010     0.2964470
  C        1.3212360    -0.6095270     0.7211930
  C        2.0273690     1.1786660    -0.7492360
  C        2.6489240    -1.0168440     0.8468500
  C        3.3454510     0.7479200    -0.6334830
  C       -1.3791480    -1.2185740    -0.6492330
  C       -3.8612840    -0.4227650     0.3079770
  C       -2.4390410    -2.1168890    -0.6711390
  C        5.1038640    -0.8322750     0.2664150
  C       -3.6857840    -1.7096250    -0.1856360
  H        0.5383950    -1.1258400     1.2710410
  H        1.7737210     2.0503190    -1.3473030
  H        2.8902070    -1.8603380     1.4919100
  H        4.1335430     1.2826870    -1.1615780
  H       -0.4095800    -1.5185310    -1.0371660
  H       -4.8387790    -0.1097830     0.6721110
  H       -2.3031150    -3.1155080    -1.0770870
  H        5.8059070     0.0022690     0.1830070
  H        5.2850310    -1.3360150     1.2200590
  H        5.3155255    -1.4778825    -0.4614026
  H       -4.5250650    -2.4017370    -0.1822600
  H       -2.3845940     2.4838010     0.4485930
  H       -3.9825350     2.0742830     0.8527820
units angstrom
no_reorient  #important for SAPT in psi4, default
symmetry c1  #important for SAPT in psi4, default
}

set PROPERTIES_ORIGIN ["COM"]
properties('MP2/aug-cc-pvtz', properties = ['dipole'])
--------------------------------------------------------------------------

    Molecular point group: c1
  Charge       = 0
  Multiplicity = 1
  Basis Set: AUG-CC-PVTZ
    Blend: AUG-CC-PVTZ
  Basis Set: (AUG-CC-PVTZ AUX)
    Blend: AUG-CC-PVTZ-JKFIT

    Orbital Energies [Eh]
    ---------------------

    Doubly Occupied:

       1A    -20.537862     2A    -15.559940     3A    -11.338339
       4A    -11.296812     5A    -11.256761     6A    -11.252650
       7A    -11.252171     8A    -11.250396     9A    -11.246144
      10A    -11.243302    11A    -11.239018    12A    -11.238774
      13A    -11.237508    14A    -11.231887    15A    -11.228226
      16A    -11.221014    17A     -1.370928    18A     -1.226475
      19A     -1.165157    20A     -1.137041    21A     -1.071059
      22A     -1.035379    23A     -1.020430    24A     -0.996550
      25A     -0.961194    26A     -0.878269    27A     -0.838639
      28A     -0.837430    29A     -0.813696    30A     -0.766131
      31A     -0.712759    32A     -0.692143    33A     -0.686182
      34A     -0.661600    35A     -0.645287    36A     -0.636405
      37A     -0.614457    38A     -0.606365    39A     -0.601788
      40A     -0.597042    41A     -0.592159    42A     -0.584119
      43A     -0.555493    44A     -0.544173    45A     -0.531760
      46A     -0.517854    47A     -0.513513    48A     -0.505563
      49A     -0.493258    50A     -0.482881    51A     -0.452213
      52A     -0.418775    53A     -0.349625    54A     -0.342904
      55A     -0.334465    56A     -0.300282

  @DF-RHF Final Energy:  -667.27065207070268

   => Energetics <=

    Nuclear Repulsion Energy =            993.3514286437691680
    One-Electron Energy =               -2877.7996711374285042
    Two-Electron Energy =                1217.1775904229566549
    Total Energy =                       -667.2706520707026812
  Basis Set: (AUG-CC-PVTZ AUX)
    Blend: AUG-CC-PVTZ-RI
    Molecular point group: c1

    Geometry (in Angstrom), charge = 0, multiplicity = 1:

       Center              X                  Y                   Z               Mass
    ------------   -----------------  -----------------  -----------------  -----------------
         O           -0.515276093369     2.231364166475    -0.296218069334    15.994914619570
         N           -2.978400093369     1.757022166475     0.828251930666    14.003074004430
         C            1.035354906631     0.466540166475    -0.083830069334    12.000000000000
         C           -1.498423093369     0.061581166475    -0.139446069334    12.000000000000
         C           -0.353267093369     1.004310166475    -0.181237069334    12.000000000000
         C            3.713869906631    -0.377833833525     0.171788930666    12.000000000000
         C           -2.778253093369     0.490669166475     0.299836930666    12.000000000000
         C            1.355771906631    -0.633858833525     0.724582930666    12.000000000000
         C            2.061904906631     1.154334166475    -0.745846069334    12.000000000000
         C            2.683459906631    -1.041175833525     0.850239930666    12.000000000000
         C            3.379986906631     0.723588166475    -0.630093069334    12.000000000000
         C           -1.344612093369    -1.242905833525    -0.645843069334    12.000000000000
         C           -3.826748093369    -0.447096833525     0.311366930666    12.000000000000
         C           -2.404505093369    -2.141220833525    -0.667749069334    12.000000000000
         C            5.138399906631    -0.856606833525     0.269804930666    12.000000000000
         C           -3.651248093369    -1.733956833525    -0.182246069334    12.000000000000
         H            0.572930906631    -1.150171833525     1.274430930666     1.007825032230
         H            1.808256906631     2.025987166475    -1.343913069334     1.007825032230
         H            2.924742906631    -1.884669833525     1.495299930666     1.007825032230
         H            4.168078906631     1.258355166475    -1.158188069334     1.007825032230
         H           -0.375044093369    -1.542862833525    -1.033776069334     1.007825032230
         H           -4.804243093369    -0.134114833525     0.675500930666     1.007825032230
         H           -2.268579093369    -3.139839833525    -1.073697069334     1.007825032230
         H            5.840442906631    -0.022062833525     0.186396930666     1.007825032230
         H            5.319566906631    -1.360346833525     1.223448930666     1.007825032230
         H            5.350061406631    -1.502214333525    -0.458012669334     1.007825032230
         H           -4.490529093369    -2.426068833525    -0.178870069334     1.007825032230
         H           -2.350058093369     2.459469166475     0.451982930666     1.007825032230
         H           -3.947999093369     2.049951166475     0.856171930666     1.007825032230

  Basis Set: AUG-CC-PVTZ
    Blend: AUG-CC-PVTZ
  Basis Set: (AUG-CC-PVTZ AUX)
    Blend: AUG-CC-PVTZ-JKFIT
	 Reference Energy          =    -667.2706520707026812 [Eh]
	 Singles Energy            =      -0.0000000000000000 [Eh]
	 Same-Spin Energy          =      -0.7355450073174270 [Eh]
	 Opposite-Spin Energy      =      -2.2650444737392146 [Eh]
	 Correlation Energy        =      -3.0005894810566414 [Eh]
	 Total Energy              =    -670.2712415517593172 [Eh]

	 ================> DF-SCS-MP2 Energies <==================
	-----------------------------------------------------------
	 SCS Same-Spin Scale       =       0.3333333333333333 [-]
	 SCS Opposite-Spin Scale   =       1.2000000000000000 [-]
	 SCS Same-Spin Energy      =      -0.2451816691058090 [Eh]
	 SCS Opposite-Spin Energy  =      -2.7180533684870576 [Eh]
	 SCS Correlation Energy    =      -2.9632350375928667 [Eh]
	 SCS Total Energy          =    -670.2338871082955620 [Eh]
	-----------------------------------------------------------

  Dipole Moment: [D]
     X:     0.3809      Y:    -1.8378      Z:    -0.1233     Total:     1.8809

*** Psi4 exiting successfully. Buy a developer a beer!
