                               Psi4 1.4a3.dev225

  ==> Input File <==

--------------------------------------------------------------------------
#psi4
#
memory 32 gb

molecule  {
0 1
  O       -0.5498120     2.2556960    -0.2996080
  N       -3.0129360     1.7813540     0.8248620
  C        1.0008190     0.4908720    -0.0872200
  C       -1.5329590     0.0859130    -0.1428360
  C       -0.3878030     1.0286420    -0.1846270
  C        3.6793340    -0.3535020     0.1683990
  C       -2.8127890     0.5150010     0.2964470
  C        1.3212360    -0.6095270     0.7211930
  C        2.0273690     1.1786660    -0.7492360
  C        2.6489240    -1.0168440     0.8468500
  C        3.3454510     0.7479200    -0.6334830
  C       -1.3791480    -1.2185740    -0.6492330
  C       -3.8612840    -0.4227650     0.3079770
  C       -2.4390410    -2.1168890    -0.6711390
  C        5.2930413    -0.8958559     0.2794315
  C       -3.6857840    -1.7096250    -0.1856360
  H        0.5383950    -1.1258400     1.2710410
  H        1.7737210     2.0503190    -1.3473030
  H        2.8902070    -1.8603380     1.4919100
  H        4.1335430     1.2826870    -1.1615780
  H       -0.4095800    -1.5185310    -1.0371660
  H       -4.8387790    -0.1097830     0.6721110
  H       -2.3031150    -3.1155080    -1.0770870
  H        5.8059070     0.0022690     0.1830070
  H        5.2850310    -1.3360150     1.2200590
  H        5.3367840    -1.5427250    -0.5345020
  H       -4.5250650    -2.4017370    -0.1822600
  H       -2.3845940     2.4838010     0.4485930
  H       -3.9825350     2.0742830     0.8527820
units angstrom
no_reorient  #important for SAPT in psi4, default
symmetry c1  #important for SAPT in psi4, default
}

set PROPERTIES_ORIGIN ["COM"]
properties('MP2/aug-cc-pvtz', properties = ['dipole'])
--------------------------------------------------------------------------

    Molecular point group: c1
  Charge       = 0
  Multiplicity = 1
  Basis Set: AUG-CC-PVTZ
    Blend: AUG-CC-PVTZ
  Basis Set: (AUG-CC-PVTZ AUX)
    Blend: AUG-CC-PVTZ-JKFIT

    Orbital Energies [Eh]
    ---------------------

    Doubly Occupied:

       1A    -20.537722     2A    -15.559823     3A    -11.338169
       4A    -11.296676     5A    -11.262851     6A    -11.252523
       7A    -11.252013     8A    -11.250031     9A    -11.245764
      10A    -11.243027    11A    -11.239006    12A    -11.238863
      13A    -11.237711    14A    -11.233597    15A    -11.231757
      16A    -11.228085    17A     -1.370772    18A     -1.226350
      19A     -1.160842    20A     -1.136508    21A     -1.059178
      22A     -1.029274    23A     -1.019326    24A     -0.996195
      25A     -0.958324    26A     -0.879188    27A     -0.837857
      28A     -0.835822    29A     -0.812973    30A     -0.765352
      31A     -0.712210    32A     -0.690273    33A     -0.685840
      34A     -0.657781    35A     -0.641283    36A     -0.632135
      37A     -0.614743    38A     -0.608023    39A     -0.602630
      40A     -0.595183    41A     -0.592069    42A     -0.583319
      43A     -0.578304    44A     -0.549562    45A     -0.532963
      46A     -0.518000    47A     -0.508217    48A     -0.495179
      49A     -0.485398    50A     -0.461962    51A     -0.451670
      52A     -0.418002    53A     -0.349414    54A     -0.342346
      55A     -0.336155    56A     -0.300167

  @DF-RHF Final Energy:  -667.24950374567584

   => Energetics <=

    Nuclear Repulsion Energy =            989.3519136262459597
    One-Electron Energy =               -2869.8460241329444216
    Two-Electron Energy =                1213.2446067610226237
    Total Energy =                       -667.2495037456758382
  Basis Set: (AUG-CC-PVTZ AUX)
    Blend: AUG-CC-PVTZ-RI
    Molecular point group: c1

    Geometry (in Angstrom), charge = 0, multiplicity = 1:

       Center              X                  Y                   Z               Mass
    ------------   -----------------  -----------------  -----------------  -----------------
         O           -0.526131401529     2.235288002651    -0.296609005889    15.994914619570
         N           -2.989255401529     1.760946002651     0.827860994111    14.003074004430
         C            1.024499598471     0.470464002651    -0.084221005889    12.000000000000
         C           -1.509278401529     0.065505002651    -0.139837005889    12.000000000000
         C           -0.364122401529     1.008234002651    -0.181628005889    12.000000000000
         C            3.703014598471    -0.373909997349     0.171397994111    12.000000000000
         C           -2.789108401529     0.494593002651     0.299445994111    12.000000000000
         C            1.344916598471    -0.629934997349     0.724191994111    12.000000000000
         C            2.051049598471     1.158258002651    -0.746237005889    12.000000000000
         C            2.672604598471    -1.037251997349     0.849848994111    12.000000000000
         C            3.369131598471     0.727512002651    -0.630484005889    12.000000000000
         C           -1.355467401529    -1.238981997349    -0.646234005889    12.000000000000
         C           -3.837603401529    -0.443172997349     0.310975994111    12.000000000000
         C           -2.415360401529    -2.137296997349    -0.668140005889    12.000000000000
         C            5.316721898471    -0.916263897349     0.282430494111    12.000000000000
         C           -3.662103401529    -1.730032997349    -0.182637005889    12.000000000000
         H            0.562075598471    -1.146247997349     1.274039994111     1.007825032230
         H            1.797401598471     2.029911002651    -1.344304005889     1.007825032230
         H            2.913887598471    -1.880745997349     1.494908994111     1.007825032230
         H            4.157223598471     1.262279002651    -1.158579005889     1.007825032230
         H           -0.385899401529    -1.538938997349    -1.034167005889     1.007825032230
         H           -4.815098401529    -0.130190997349     0.675109994111     1.007825032230
         H           -2.279434401529    -3.135915997349    -1.074088005889     1.007825032230
         H            5.829587598471    -0.018138997349     0.186005994111     1.007825032230
         H            5.308711598471    -1.356422997349     1.223057994111     1.007825032230
         H            5.360464598471    -1.563132997349    -0.531503005889     1.007825032230
         H           -4.501384401529    -2.422144997349    -0.179261005889     1.007825032230
         H           -2.360913401529     2.463393002651     0.451591994111     1.007825032230
         H           -3.958854401529     2.053875002651     0.855780994111     1.007825032230

  Basis Set: AUG-CC-PVTZ
    Blend: AUG-CC-PVTZ
  Basis Set: (AUG-CC-PVTZ AUX)
    Blend: AUG-CC-PVTZ-JKFIT
	 Reference Energy          =    -667.2495037456758382 [Eh]
	 Singles Energy            =      -0.0000000000000000 [Eh]
	 Same-Spin Energy          =      -0.7352851542552377 [Eh]
	 Opposite-Spin Energy      =      -2.2665899273940657 [Eh]
	 Correlation Energy        =      -3.0018750816493034 [Eh]
	 Total Energy              =    -670.2513788273251976 [Eh]

	 ================> DF-SCS-MP2 Energies <==================
	-----------------------------------------------------------
	 SCS Same-Spin Scale       =       0.3333333333333333 [-]
	 SCS Opposite-Spin Scale   =       1.2000000000000000 [-]
	 SCS Same-Spin Energy      =      -0.2450950514184125 [Eh]
	 SCS Opposite-Spin Energy  =      -2.7199079128728787 [Eh]
	 SCS Correlation Energy    =      -2.9650029642912914 [Eh]
	 SCS Total Energy          =    -670.2145067099671678 [Eh]
	-----------------------------------------------------------

  Dipole Moment: [D]
     X:     0.2672      Y:    -1.7861      Z:    -0.1071     Total:     1.8091

*** Psi4 exiting successfully. Buy a developer a beer!
