                               Psi4 1.4a3.dev225

  ==> Input File <==

--------------------------------------------------------------------------
#psi4
#
memory 32 gb

molecule  {
0 1
  O       -0.5498120     2.2556960    -0.2996080
  N       -3.0129360     1.7813540     0.8248620
  C        1.0008190     0.4908720    -0.0872200
  C       -1.5329590     0.0859130    -0.1428360
  C       -0.3878030     1.0286420    -0.1846270
  C        3.6793340    -0.3535020     0.1683990
  C       -2.8127890     0.5150010     0.2964470
  C        1.3212360    -0.6095270     0.7211930
  C        2.0273690     1.1786660    -0.7492360
  C        2.6489240    -1.0168440     0.8468500
  C        3.3454510     0.7479200    -0.6334830
  C       -1.3791480    -1.2185740    -0.6492330
  C       -3.8612840    -0.4227650     0.3079770
  C       -2.4771793    -2.1492132    -0.6719272
  C        5.1038640    -0.8322750     0.2664150
  C       -3.6857840    -1.7096250    -0.1856360
  H        0.5383950    -1.1258400     1.2710410
  H        1.7737210     2.0503190    -1.3473030
  H        2.8902070    -1.8603380     1.4919100
  H        4.1335430     1.2826870    -1.1615780
  H       -0.4095800    -1.5185310    -1.0371660
  H       -4.8387790    -0.1097830     0.6721110
  H       -2.3031150    -3.1155080    -1.0770870
  H        5.8059070     0.0022690     0.1830070
  H        5.2850310    -1.3360150     1.2200590
  H        5.3367840    -1.5427250    -0.5345020
  H       -4.5250650    -2.4017370    -0.1822600
  H       -2.3845940     2.4838010     0.4485930
  H       -3.9825350     2.0742830     0.8527820
units angstrom
no_reorient  #important for SAPT in psi4, default
symmetry c1  #important for SAPT in psi4, default
}

set PROPERTIES_ORIGIN ["COM"]
properties('MP2/aug-cc-pvtz', properties = ['dipole'])
--------------------------------------------------------------------------

    Molecular point group: c1
  Charge       = 0
  Multiplicity = 1
  Basis Set: AUG-CC-PVTZ
    Blend: AUG-CC-PVTZ
  Basis Set: (AUG-CC-PVTZ AUX)
    Blend: AUG-CC-PVTZ-JKFIT

    Orbital Energies [Eh]
    ---------------------

    Doubly Occupied:

       1A    -20.539334     2A    -15.559522     3A    -11.339769
       4A    -11.296355     5A    -11.259232     6A    -11.257902
       7A    -11.251170     8A    -11.249037     9A    -11.246956
      10A    -11.244255    11A    -11.241460    12A    -11.239599
      13A    -11.238343    14A    -11.233631    15A    -11.229650
      16A    -11.228873    17A     -1.372275    18A     -1.225974
      19A     -1.165734    20A     -1.134600    21A     -1.070511
      22A     -1.035691    23A     -1.021190    24A     -0.993156
      25A     -0.955184    26A     -0.875682    27A     -0.840119
      28A     -0.837454    29A     -0.813951    30A     -0.767133
      31A     -0.713121    32A     -0.691782    33A     -0.685368
      34A     -0.662054    35A     -0.646824    36A     -0.637851
      37A     -0.616318    38A     -0.601012    39A     -0.599419
      40A     -0.593164    41A     -0.585270    42A     -0.584245
      43A     -0.556099    44A     -0.543756    45A     -0.531587
      46A     -0.518378    47A     -0.511948    48A     -0.507896
      49A     -0.494014    50A     -0.483151    51A     -0.450412
      52A     -0.419419    53A     -0.350216    54A     -0.343638
      55A     -0.334518    56A     -0.298489

  @DF-RHF Final Energy:  -667.27338125250697

   => Energetics <=

    Nuclear Repulsion Energy =            992.1194993519188756
    One-Electron Energy =               -2875.3383826034778394
    Two-Electron Energy =                1215.9455019990521123
    Total Energy =                       -667.2733812525068515
  Basis Set: (AUG-CC-PVTZ AUX)
    Blend: AUG-CC-PVTZ-RI
    Molecular point group: c1

    Geometry (in Angstrom), charge = 0, multiplicity = 1:

       Center              X                  Y                   Z               Mass
    ------------   -----------------  -----------------  -----------------  -----------------
         O           -0.513209606669     2.233511210098    -0.295824275313    15.994914619570
         N           -2.976333606669     1.759169210098     0.828645724687    14.003074004430
         C            1.037421393331     0.468687210098    -0.083436275313    12.000000000000
         C           -1.496356606669     0.063728210098    -0.139052275313    12.000000000000
         C           -0.351200606669     1.006457210098    -0.180843275313    12.000000000000
         C            3.715936393331    -0.375686789902     0.172182724687    12.000000000000
         C           -2.776186606669     0.492816210098     0.300230724687    12.000000000000
         C            1.357838393331    -0.631711789902     0.724976724687    12.000000000000
         C            2.063971393331     1.156481210098    -0.745452275313    12.000000000000
         C            2.685526393331    -1.039028789902     0.850633724687    12.000000000000
         C            3.382053393331     0.725735210098    -0.629699275313    12.000000000000
         C           -1.342545606669    -1.240758789902    -0.645449275313    12.000000000000
         C           -3.824681606669    -0.444949789902     0.311760724687    12.000000000000
         C           -2.440576906669    -2.171397989902    -0.668143475313    12.000000000000
         C            5.140466393331    -0.854459789902     0.270198724687    12.000000000000
         C           -3.649181606669    -1.731809789902    -0.181852275313    12.000000000000
         H            0.574997393331    -1.148024789902     1.274824724687     1.007825032230
         H            1.810323393331     2.028134210098    -1.343519275313     1.007825032230
         H            2.926809393331    -1.882522789902     1.495693724687     1.007825032230
         H            4.170145393331     1.260502210098    -1.157794275313     1.007825032230
         H           -0.372977606669    -1.540715789902    -1.033382275313     1.007825032230
         H           -4.802176606669    -0.131967789902     0.675894724687     1.007825032230
         H           -2.266512606669    -3.137692789902    -1.073303275313     1.007825032230
         H            5.842509393331    -0.019915789902     0.186790724687     1.007825032230
         H            5.321633393331    -1.358199789902     1.223842724687     1.007825032230
         H            5.373386393331    -1.564909789902    -0.530718275313     1.007825032230
         H           -4.488462606669    -2.423921789902    -0.178476275313     1.007825032230
         H           -2.347991606669     2.461616210098     0.452376724687     1.007825032230
         H           -3.945932606669     2.052098210098     0.856565724687     1.007825032230

  Basis Set: AUG-CC-PVTZ
    Blend: AUG-CC-PVTZ
  Basis Set: (AUG-CC-PVTZ AUX)
    Blend: AUG-CC-PVTZ-JKFIT
	 Reference Energy          =    -667.2733812525069652 [Eh]
	 Singles Energy            =      -0.0000000000000000 [Eh]
	 Same-Spin Energy          =      -0.7354787012291164 [Eh]
	 Opposite-Spin Energy      =      -2.2657257820389112 [Eh]
	 Correlation Energy        =      -3.0012044832680278 [Eh]
	 Total Energy              =    -670.2745857357749628 [Eh]

	 ================> DF-SCS-MP2 Energies <==================
	-----------------------------------------------------------
	 SCS Same-Spin Scale       =       0.3333333333333333 [-]
	 SCS Opposite-Spin Scale   =       1.2000000000000000 [-]
	 SCS Same-Spin Energy      =      -0.2451595670763721 [Eh]
	 SCS Opposite-Spin Energy  =      -2.7188709384466931 [Eh]
	 SCS Correlation Energy    =      -2.9640305055230654 [Eh]
	 SCS Total Energy          =    -670.2374117580300208 [Eh]
	-----------------------------------------------------------

  Dipole Moment: [D]
     X:     0.4369      Y:    -1.8015      Z:    -0.1189     Total:     1.8575

*** Psi4 exiting successfully. Buy a developer a beer!
