                               Psi4 1.4a3.dev225

  ==> Input File <==

--------------------------------------------------------------------------
#psi4
#
memory 32 gb

molecule  {
0 1
  O       -0.5498120     2.2556960    -0.2996080
  N       -3.0129360     1.7813540     0.8248620
  C        1.0008190     0.4908720    -0.0872200
  C       -1.5329590     0.0859130    -0.1428360
  C       -0.3878030     1.0286420    -0.1846270
  C        3.6793340    -0.3535020     0.1683990
  C       -2.8127890     0.5150010     0.2964470
  C        1.3212360    -0.6095270     0.7211930
  C        2.0273690     1.1786660    -0.7492360
  C        2.6489240    -1.0168440     0.8468500
  C        3.3454510     0.7479200    -0.6334830
  C       -1.3791480    -1.2185740    -0.6492330
  C       -3.8612840    -0.4227650     0.3079770
  C       -2.5153175    -2.1815373    -0.6727155
  C        5.1038640    -0.8322750     0.2664150
  C       -3.6857840    -1.7096250    -0.1856360
  H        0.5383950    -1.1258400     1.2710410
  H        1.7737210     2.0503190    -1.3473030
  H        2.8902070    -1.8603380     1.4919100
  H        4.1335430     1.2826870    -1.1615780
  H       -0.4095800    -1.5185310    -1.0371660
  H       -4.8387790    -0.1097830     0.6721110
  H       -2.3031150    -3.1155080    -1.0770870
  H        5.8059070     0.0022690     0.1830070
  H        5.2850310    -1.3360150     1.2200590
  H        5.3367840    -1.5427250    -0.5345020
  H       -4.5250650    -2.4017370    -0.1822600
  H       -2.3845940     2.4838010     0.4485930
  H       -3.9825350     2.0742830     0.8527820
units angstrom
no_reorient  #important for SAPT in psi4, default
symmetry c1  #important for SAPT in psi4, default
}

set PROPERTIES_ORIGIN ["COM"]
properties('MP2/aug-cc-pvtz', properties = ['dipole'])
--------------------------------------------------------------------------

    Molecular point group: c1
  Charge       = 0
  Multiplicity = 1
  Basis Set: AUG-CC-PVTZ
    Blend: AUG-CC-PVTZ
  Basis Set: (AUG-CC-PVTZ AUX)
    Blend: AUG-CC-PVTZ-JKFIT

    Orbital Energies [Eh]
    ---------------------

    Doubly Occupied:

       1A    -20.540496     2A    -15.559172     3A    -11.340912
       4A    -11.295954     5A    -11.265208     6A    -11.258406
       7A    -11.251694     8A    -11.247518     9A    -11.245529
      10A    -11.244886    11A    -11.243619    12A    -11.240049
      13A    -11.238824    14A    -11.233993    15A    -11.229437
      16A    -11.227424    17A     -1.373345    18A     -1.225507
      19A     -1.166226    20A     -1.132623    21A     -1.071437
      22A     -1.037135    23A     -1.021786    24A     -0.990320
      25A     -0.955621    26A     -0.874432    27A     -0.841613
      28A     -0.838208    29A     -0.814466    30A     -0.768083
      31A     -0.713854    32A     -0.691739    33A     -0.685036
      34A     -0.662894    35A     -0.648655    36A     -0.639094
      37A     -0.618399    38A     -0.601508    39A     -0.596110
      40A     -0.593544    41A     -0.585888    42A     -0.584593
      43A     -0.556584    44A     -0.543381    45A     -0.534072
      46A     -0.519077    47A     -0.509508    48A     -0.505266
      49A     -0.494440    50A     -0.483992    51A     -0.449070
      52A     -0.419562    53A     -0.351443    54A     -0.344270
      55A     -0.334998    56A     -0.296572

  @DF-RHF Final Energy:  -667.26489065096439

   => Energetics <=

    Nuclear Repulsion Energy =            991.3876833643836335
    One-Electron Energy =               -2873.8302023292853846
    Two-Electron Energy =                1215.1776283139374755
    Total Energy =                       -667.2648906509643894
  Basis Set: (AUG-CC-PVTZ AUX)
    Blend: AUG-CC-PVTZ-RI
    Molecular point group: c1

    Geometry (in Angstrom), charge = 0, multiplicity = 1:

       Center              X                  Y                   Z               Mass
    ------------   -----------------  -----------------  -----------------  -----------------
         O           -0.511041634049     2.235348679190    -0.295779464263    15.994914619570
         N           -2.974165634049     1.761006679190     0.828690535737    14.003074004430
         C            1.039589365951     0.470524679190    -0.083391464263    12.000000000000
         C           -1.494188634049     0.065565679190    -0.139007464263    12.000000000000
         C           -0.349032634049     1.008294679190    -0.180798464263    12.000000000000
         C            3.718104365951    -0.373849320810     0.172227535737    12.000000000000
         C           -2.774018634049     0.494653679190     0.300275535737    12.000000000000
         C            1.360006365951    -0.629874320810     0.725021535737    12.000000000000
         C            2.066139365951     1.158318679190    -0.745407464263    12.000000000000
         C            2.687694365951    -1.037191320810     0.850678535737    12.000000000000
         C            3.384221365951     0.727572679190    -0.629654464263    12.000000000000
         C           -1.340377634049    -1.238921320810    -0.645404464263    12.000000000000
         C           -3.822513634049    -0.443112320810     0.311805535737    12.000000000000
         C           -2.476547134049    -2.201884620810    -0.668886964263    12.000000000000
         C            5.142634365951    -0.852622320810     0.270243535737    12.000000000000
         C           -3.647013634049    -1.729972320810    -0.181807464263    12.000000000000
         H            0.577165365951    -1.146187320810     1.274869535737     1.007825032230
         H            1.812491365951     2.029971679190    -1.343474464263     1.007825032230
         H            2.928977365951    -1.880685320810     1.495738535737     1.007825032230
         H            4.172313365951     1.262339679190    -1.157749464263     1.007825032230
         H           -0.370809634049    -1.538878320810    -1.033337464263     1.007825032230
         H           -4.800008634049    -0.130130320810     0.675939535737     1.007825032230
         H           -2.264344634049    -3.135855320810    -1.073258464263     1.007825032230
         H            5.844677365951    -0.018078320810     0.186835535737     1.007825032230
         H            5.323801365951    -1.356362320810     1.223887535737     1.007825032230
         H            5.375554365951    -1.563072320810    -0.530673464263     1.007825032230
         H           -4.486294634049    -2.422084320810    -0.178431464263     1.007825032230
         H           -2.345823634049     2.463453679190     0.452421535737     1.007825032230
         H           -3.943764634049     2.053935679190     0.856610535737     1.007825032230

  Basis Set: AUG-CC-PVTZ
    Blend: AUG-CC-PVTZ
  Basis Set: (AUG-CC-PVTZ AUX)
    Blend: AUG-CC-PVTZ-JKFIT
	 Reference Energy          =    -667.2648906509643894 [Eh]
	 Singles Energy            =      -0.0000000000000000 [Eh]
	 Same-Spin Energy          =      -0.7353477737524091 [Eh]
	 Opposite-Spin Energy      =      -2.2661521145013244 [Eh]
	 Correlation Energy        =      -3.0014998882537336 [Eh]
	 Total Energy              =    -670.2663905392181505 [Eh]

	 ================> DF-SCS-MP2 Energies <==================
	-----------------------------------------------------------
	 SCS Same-Spin Scale       =       0.3333333333333333 [-]
	 SCS Opposite-Spin Scale   =       1.2000000000000000 [-]
	 SCS Same-Spin Energy      =      -0.2451159245841364 [Eh]
	 SCS Opposite-Spin Energy  =      -2.7193825374015890 [Eh]
	 SCS Correlation Energy    =      -2.9644984619857255 [Eh]
	 SCS Total Energy          =    -670.2293891129501162 [Eh]
	-----------------------------------------------------------

  Dipole Moment: [D]
     X:     0.5200      Y:    -1.7855      Z:    -0.1308     Total:     1.8643

*** Psi4 exiting successfully. Buy a developer a beer!
