                               Psi4 1.4a3.dev225

  ==> Input File <==

--------------------------------------------------------------------------
#psi4
#
memory 32 gb

molecule  {
0 1
  O       -0.5498120     2.2556960    -0.2996080
  N       -3.0129360     1.7813540     0.8248620
  C        1.0008190     0.4908720    -0.0872200
  C       -1.5329590     0.0859130    -0.1428360
  C       -0.3878030     1.0286420    -0.1846270
  C        3.6793340    -0.3535020     0.1683990
  C       -2.8127890     0.5150010     0.2964470
  C        1.3212360    -0.6095270     0.7211930
  C        2.0273690     1.1786660    -0.7492360
  C        2.6489240    -1.0168440     0.8468500
  C        3.3454510     0.7479200    -0.6334830
  C       -1.3791480    -1.2185740    -0.6492330
  C       -3.8612840    -0.4227650     0.3079770
  C       -2.4542963    -2.1298187    -0.6714543
  C        5.1038640    -0.8322750     0.2664150
  C       -3.6857840    -1.7096250    -0.1856360
  H        0.5383950    -1.1258400     1.2710410
  H        1.7737210     2.0503190    -1.3473030
  H        2.8902070    -1.8603380     1.4919100
  H        4.1335430     1.2826870    -1.1615780
  H       -0.4095800    -1.5185310    -1.0371660
  H       -4.8387790    -0.1097830     0.6721110
  H       -2.3031150    -3.1155080    -1.0770870
  H        5.8059070     0.0022690     0.1830070
  H        5.2850310    -1.3360150     1.2200590
  H        5.3367840    -1.5427250    -0.5345020
  H       -4.5250650    -2.4017370    -0.1822600
  H       -2.3845940     2.4838010     0.4485930
  H       -3.9825350     2.0742830     0.8527820
units angstrom
no_reorient  #important for SAPT in psi4, default
symmetry c1  #important for SAPT in psi4, default
}

set PROPERTIES_ORIGIN ["COM"]
properties('MP2/aug-cc-pvtz', properties = ['dipole'])
--------------------------------------------------------------------------

    Molecular point group: c1
  Charge       = 0
  Multiplicity = 1
  Basis Set: AUG-CC-PVTZ
    Blend: AUG-CC-PVTZ
  Basis Set: (AUG-CC-PVTZ AUX)
    Blend: AUG-CC-PVTZ-JKFIT

    Orbital Energies [Eh]
    ---------------------

    Doubly Occupied:

       1A    -20.538556     2A    -15.559804     3A    -11.339010
       4A    -11.296664     5A    -11.257568     6A    -11.255159
       7A    -11.251238     8A    -11.250825     9A    -11.246583
      10A    -11.243840    11A    -11.240067    12A    -11.239304
      13A    -11.238027    14A    -11.233394    15A    -11.231028
      16A    -11.228539    17A     -1.371565    18A     -1.226310
      19A     -1.165415    20A     -1.136032    21A     -1.069945
      22A     -1.034965    23A     -1.020831    24A     -0.995139
      25A     -0.954849    26A     -0.876466    27A     -0.839321
      28A     -0.836883    29A     -0.813489    30A     -0.766558
      31A     -0.712850    32A     -0.691784    33A     -0.685830
      34A     -0.661557    35A     -0.645826    36A     -0.637036
      37A     -0.615043    38A     -0.602191    39A     -0.600093
      40A     -0.592866    41A     -0.584950    42A     -0.583986
      43A     -0.555900    44A     -0.544236    45A     -0.531370
      46A     -0.518004    47A     -0.513424    48A     -0.506380
      49A     -0.493709    50A     -0.482530    51A     -0.451470
      52A     -0.419154    53A     -0.349819    54A     -0.343289
      55A     -0.334196    56A     -0.299628

  @DF-RHF Final Energy:  -667.27600125426352

   => Energetics <=

    Nuclear Repulsion Energy =            992.5729908092856704
    One-Electron Energy =               -2876.2689859924030316
    Two-Electron Energy =                1216.4199939288537280
    Total Energy =                       -667.2760012542635195
  Basis Set: (AUG-CC-PVTZ AUX)
    Blend: AUG-CC-PVTZ-RI
    Molecular point group: c1

    Geometry (in Angstrom), charge = 0, multiplicity = 1:

       Center              X                  Y                   Z               Mass
    ------------   -----------------  -----------------  -----------------  -----------------
         O           -0.514510394788     2.232408726368    -0.295851157396    15.994914619570
         N           -2.977634394788     1.758066726368     0.828618842604    14.003074004430
         C            1.036120605212     0.467584726368    -0.083463157396    12.000000000000
         C           -1.497657394788     0.062625726368    -0.139079157396    12.000000000000
         C           -0.352501394788     1.005354726368    -0.180870157396    12.000000000000
         C            3.714635605212    -0.376789273632     0.172155842604    12.000000000000
         C           -2.777487394788     0.491713726368     0.300203842604    12.000000000000
         C            1.356537605212    -0.632814273632     0.724949842604    12.000000000000
         C            2.062670605212     1.155378726368    -0.745479157396    12.000000000000
         C            2.684225605212    -1.040131273632     0.850606842604    12.000000000000
         C            3.380752605212     0.724632726368    -0.629726157396    12.000000000000
         C           -1.343846394788    -1.241861273632    -0.645476157396    12.000000000000
         C           -3.825982394788    -0.446052273632     0.311733842604    12.000000000000
         C           -2.418994694788    -2.153105973632    -0.667697457396    12.000000000000
         C            5.139165605212    -0.855562273632     0.270171842604    12.000000000000
         C           -3.650482394788    -1.732912273632    -0.181879157396    12.000000000000
         H            0.573696605212    -1.149127273632     1.274797842604     1.007825032230
         H            1.809022605212     2.027031726368    -1.343546157396     1.007825032230
         H            2.925508605212    -1.883625273632     1.495666842604     1.007825032230
         H            4.168844605212     1.259399726368    -1.157821157396     1.007825032230
         H           -0.374278394788    -1.541818273632    -1.033409157396     1.007825032230
         H           -4.803477394788    -0.133070273632     0.675867842604     1.007825032230
         H           -2.267813394788    -3.138795273632    -1.073330157396     1.007825032230
         H            5.841208605212    -0.021018273632     0.186763842604     1.007825032230
         H            5.320332605212    -1.359302273632     1.223815842604     1.007825032230
         H            5.372085605212    -1.566012273632    -0.530745157396     1.007825032230
         H           -4.489763394788    -2.425024273632    -0.178503157396     1.007825032230
         H           -2.349292394788     2.460513726368     0.452349842604     1.007825032230
         H           -3.947233394788     2.050995726368     0.856538842604     1.007825032230

  Basis Set: AUG-CC-PVTZ
    Blend: AUG-CC-PVTZ
  Basis Set: (AUG-CC-PVTZ AUX)
    Blend: AUG-CC-PVTZ-JKFIT
	 Reference Energy          =    -667.2760012542635195 [Eh]
	 Singles Energy            =      -0.0000000000000000 [Eh]
	 Same-Spin Energy          =      -0.7355164825247593 [Eh]
	 Opposite-Spin Energy      =      -2.2655698036570620 [Eh]
	 Correlation Energy        =      -3.0010862861818213 [Eh]
	 Total Energy              =    -670.2770875404453363 [Eh]

	 ================> DF-SCS-MP2 Energies <==================
	-----------------------------------------------------------
	 SCS Same-Spin Scale       =       0.3333333333333333 [-]
	 SCS Opposite-Spin Scale   =       1.2000000000000000 [-]
	 SCS Same-Spin Energy      =      -0.2451721608415864 [Eh]
	 SCS Opposite-Spin Energy  =      -2.7186837643884743 [Eh]
	 SCS Correlation Energy    =      -2.9638559252300607 [Eh]
	 SCS Total Energy          =    -670.2398571794935833 [Eh]
	-----------------------------------------------------------

  Dipole Moment: [D]
     X:     0.3863      Y:    -1.8098      Z:    -0.1111     Total:     1.8539

*** Psi4 exiting successfully. Buy a developer a beer!
