                               Psi4 1.4a3.dev225

  ==> Input File <==

--------------------------------------------------------------------------
#psi4
#
memory 32 gb

molecule  {
0 1
  O       -0.5498120     2.2556960    -0.2996080
  N       -3.0129360     1.7813540     0.8248620
  C        1.0008190     0.4908720    -0.0872200
  C       -1.5329590     0.0859130    -0.1428360
  C       -0.3878030     1.0286420    -0.1846270
  C        3.6793340    -0.3535020     0.1683990
  C       -2.8127890     0.5150010     0.2964470
  C        1.3212360    -0.6095270     0.7211930
  C        2.0273690     1.1786660    -0.7492360
  C        2.6489240    -1.0168440     0.8468500
  C        3.3454510     0.7479200    -0.6334830
  C       -1.3791480    -1.2185740    -0.6492330
  C       -3.8612840    -0.4227650     0.3079770
  C       -2.4390410    -2.1168890    -0.6711390
  C        5.1038640    -0.8322750     0.2664150
  C       -3.6857840    -1.7096250    -0.1856360
  H        0.5383950    -1.1258400     1.2710410
  H        1.7737210     2.0503190    -1.3473030
  H        2.8902070    -1.8603380     1.4919100
  H        4.1335430     1.2826870    -1.1615780
  H       -0.4095800    -1.5185310    -1.0371660
  H       -4.9285350    -0.0810442     0.7055467
  H       -2.3031150    -3.1155080    -1.0770870
  H        5.8059070     0.0022690     0.1830070
  H        5.2850310    -1.3360150     1.2200590
  H        5.3367840    -1.5427250    -0.5345020
  H       -4.5250650    -2.4017370    -0.1822600
  H       -2.3845940     2.4838010     0.4485930
  H       -3.9825350     2.0742830     0.8527820
units angstrom
no_reorient  #important for SAPT in psi4, default
symmetry c1  #important for SAPT in psi4, default
}

set PROPERTIES_ORIGIN ["COM"]
properties('MP2/aug-cc-pvtz', properties = ['dipole'])
--------------------------------------------------------------------------

    Molecular point group: c1
  Charge       = 0
  Multiplicity = 1
  Basis Set: AUG-CC-PVTZ
    Blend: AUG-CC-PVTZ
  Basis Set: (AUG-CC-PVTZ AUX)
    Blend: AUG-CC-PVTZ-JKFIT

    Orbital Energies [Eh]
    ---------------------

    Doubly Occupied:

       1A    -20.538358     2A    -15.559898     3A    -11.338924
       4A    -11.298072     5A    -11.257545     6A    -11.253847
       7A    -11.252757     8A    -11.250827     9A    -11.246558
      10A    -11.243830    11A    -11.243325    12A    -11.239945
      13A    -11.239304    14A    -11.238008    15A    -11.233381
      16A    -11.229114    17A     -1.371404    18A     -1.226460
      19A     -1.165431    20A     -1.137558    21A     -1.069665
      22A     -1.033939    23A     -1.020715    24A     -0.995447
      25A     -0.954821    26A     -0.877392    27A     -0.838564
      28A     -0.833410    29A     -0.813079    30A     -0.765606
      31A     -0.709552    32A     -0.691606    33A     -0.685936
      34A     -0.661080    35A     -0.644324    36A     -0.635522
      37A     -0.614574    38A     -0.602256    39A     -0.596056
      40A     -0.592109    41A     -0.584568    42A     -0.579780
      43A     -0.556174    44A     -0.545005    45A     -0.532587
      46A     -0.518401    47A     -0.511528    48A     -0.501053
      49A     -0.493646    50A     -0.482062    51A     -0.452618
      52A     -0.419212    53A     -0.350319    54A     -0.343365
      55A     -0.334196    56A     -0.300890

  @DF-RHF Final Energy:  -667.26922101212710

   => Energetics <=

    Nuclear Repulsion Energy =            992.3577938281823663
    One-Electron Energy =               -2875.8428256365205016
    Two-Electron Energy =                1216.2158107962111444
    Total Energy =                       -667.2692210121269909
  Basis Set: (AUG-CC-PVTZ AUX)
    Blend: AUG-CC-PVTZ-RI
    Molecular point group: c1

    Geometry (in Angstrom), charge = 0, multiplicity = 1:

       Center              X                  Y                   Z               Mass
    ------------   -----------------  -----------------  -----------------  -----------------
         O           -0.514949074948     2.231536531525    -0.296028708255    15.994914619570
         N           -2.978073074948     1.757194531525     0.828441291745    14.003074004430
         C            1.035681925052     0.466712531525    -0.083640708255    12.000000000000
         C           -1.498096074948     0.061753531525    -0.139256708255    12.000000000000
         C           -0.352940074948     1.004482531525    -0.181047708255    12.000000000000
         C            3.714196925052    -0.377661468475     0.171978291745    12.000000000000
         C           -2.777926074948     0.490841531525     0.300026291745    12.000000000000
         C            1.356098925052    -0.633686468475     0.724772291745    12.000000000000
         C            2.062231925052     1.154506531525    -0.745656708255    12.000000000000
         C            2.683786925052    -1.041003468475     0.850429291745    12.000000000000
         C            3.380313925052     0.723760531525    -0.629903708255    12.000000000000
         C           -1.344285074948    -1.242733468475    -0.645653708255    12.000000000000
         C           -3.826421074948    -0.446924468475     0.311556291745    12.000000000000
         C           -2.404178074948    -2.141048468475    -0.667559708255    12.000000000000
         C            5.138726925052    -0.856434468475     0.269994291745    12.000000000000
         C           -3.650921074948    -1.733784468475    -0.182056708255    12.000000000000
         H            0.573257925052    -1.149999468475     1.274620291745     1.007825032230
         H            1.808583925052     2.026159531525    -1.343723708255     1.007825032230
         H            2.925069925052    -1.884497468475     1.495489291745     1.007825032230
         H            4.168405925052     1.258527531525    -1.157998708255     1.007825032230
         H           -0.374717074948    -1.542690468475    -1.033586708255     1.007825032230
         H           -4.893672074948    -0.105203668475     0.709125991745     1.007825032230
         H           -2.268252074948    -3.139667468475    -1.073507708255     1.007825032230
         H            5.840769925052    -0.021890468475     0.186586291745     1.007825032230
         H            5.319893925052    -1.360174468475     1.223638291745     1.007825032230
         H            5.371646925052    -1.566884468475    -0.530922708255     1.007825032230
         H           -4.490202074948    -2.425896468475    -0.178680708255     1.007825032230
         H           -2.349731074948     2.459641531525     0.452172291745     1.007825032230
         H           -3.947672074948     2.050123531525     0.856361291745     1.007825032230

  Basis Set: AUG-CC-PVTZ
    Blend: AUG-CC-PVTZ
  Basis Set: (AUG-CC-PVTZ AUX)
    Blend: AUG-CC-PVTZ-JKFIT
	 Reference Energy          =    -667.2692210121271046 [Eh]
	 Singles Energy            =      -0.0000000000000000 [Eh]
	 Same-Spin Energy          =      -0.7357807227898513 [Eh]
	 Opposite-Spin Energy      =      -2.2664557130376775 [Eh]
	 Correlation Energy        =      -3.0022364358275286 [Eh]
	 Total Energy              =    -670.2714574479546172 [Eh]

	 ================> DF-SCS-MP2 Energies <==================
	-----------------------------------------------------------
	 SCS Same-Spin Scale       =       0.3333333333333333 [-]
	 SCS Opposite-Spin Scale   =       1.2000000000000000 [-]
	 SCS Same-Spin Energy      =      -0.2452602409299504 [Eh]
	 SCS Opposite-Spin Energy  =      -2.7197468556452127 [Eh]
	 SCS Correlation Energy    =      -2.9650070965751629 [Eh]
	 SCS Total Energy          =    -670.2342281087022684 [Eh]
	-----------------------------------------------------------

  Dipole Moment: [D]
     X:     0.4050      Y:    -1.8291      Z:    -0.1210     Total:     1.8773

*** Psi4 exiting successfully. Buy a developer a beer!
