                               Psi4 1.4a3.dev225

  ==> Input File <==

--------------------------------------------------------------------------
#psi4
#
memory 32 gb

molecule  {
0 1
  O       -0.5498120     2.2556960    -0.2996080
  N       -3.0129360     1.7813540     0.8248620
  C        1.0008190     0.4908720    -0.0872200
  C       -1.5329590     0.0859130    -0.1428360
  C       -0.3878030     1.0286420    -0.1846270
  C        3.6793340    -0.3535020     0.1683990
  C       -2.8127890     0.5150010     0.2964470
  C        1.3212360    -0.6095270     0.7211930
  C        2.0273690     1.1786660    -0.7492360
  C        2.6489240    -1.0168440     0.8468500
  C        3.3590653     0.7845758    -0.6622938
  C       -1.3791480    -1.2185740    -0.6492330
  C       -3.8612840    -0.4227650     0.3079770
  C       -2.4390410    -2.1168890    -0.6711390
  C        5.1038640    -0.8322750     0.2664150
  C       -3.6857840    -1.7096250    -0.1856360
  H        0.5383950    -1.1258400     1.2710410
  H        1.7737210     2.0503190    -1.3473030
  H        2.8902070    -1.8603380     1.4919100
  H        4.1335430     1.2826870    -1.1615780
  H       -0.4095800    -1.5185310    -1.0371660
  H       -4.8387790    -0.1097830     0.6721110
  H       -2.3031150    -3.1155080    -1.0770870
  H        5.8059070     0.0022690     0.1830070
  H        5.2850310    -1.3360150     1.2200590
  H        5.3367840    -1.5427250    -0.5345020
  H       -4.5250650    -2.4017370    -0.1822600
  H       -2.3845940     2.4838010     0.4485930
  H       -3.9825350     2.0742830     0.8527820
units angstrom
no_reorient  #important for SAPT in psi4, default
symmetry c1  #important for SAPT in psi4, default
}

set PROPERTIES_ORIGIN ["COM"]
properties('MP2/aug-cc-pvtz', properties = ['dipole'])
--------------------------------------------------------------------------

    Molecular point group: c1
  Charge       = 0
  Multiplicity = 1
  Basis Set: AUG-CC-PVTZ
    Blend: AUG-CC-PVTZ
  Basis Set: (AUG-CC-PVTZ AUX)
    Blend: AUG-CC-PVTZ-JKFIT

    Orbital Energies [Eh]
    ---------------------

    Doubly Occupied:

       1A    -20.537471     2A    -15.559865     3A    -11.338352
       4A    -11.296771     5A    -11.262481     6A    -11.252611
       7A    -11.252110     8A    -11.252005     9A    -11.246333
      10A    -11.243417    11A    -11.239032    12A    -11.238848
      13A    -11.238736    14A    -11.233264    15A    -11.231860
      16A    -11.228190    17A     -1.370634    18A     -1.226410
      19A     -1.161621    20A     -1.136758    21A     -1.067502
      22A     -1.034337    23A     -1.021550    24A     -0.996428
      25A     -0.954116    26A     -0.875760    27A     -0.840315
      28A     -0.835834    29A     -0.810845    30A     -0.767389
      31A     -0.713568    32A     -0.691675    33A     -0.686276
      34A     -0.660858    35A     -0.643692    36A     -0.639654
      37A     -0.614073    38A     -0.604258    39A     -0.600957
      40A     -0.594481    41A     -0.584684    42A     -0.583286
      43A     -0.555710    44A     -0.546183    45A     -0.531392
      46A     -0.518562    47A     -0.513729    48A     -0.504927
      49A     -0.489889    50A     -0.480397    51A     -0.452179
      52A     -0.418960    53A     -0.349625    54A     -0.343800
      55A     -0.330727    56A     -0.300181

  @DF-RHF Final Energy:  -667.27336263973700

   => Energetics <=

    Nuclear Repulsion Energy =            992.0551745752843544
    One-Electron Energy =               -2875.2479443505649215
    Two-Electron Energy =                1215.9194071355434517
    Total Energy =                       -667.2733626397371154
  Basis Set: (AUG-CC-PVTZ AUX)
    Blend: AUG-CC-PVTZ-RI
    Molecular point group: c1

    Geometry (in Angstrom), charge = 0, multiplicity = 1:

       Center              X                  Y                   Z               Mass
    ------------   -----------------  -----------------  -----------------  -----------------
         O           -0.516151492227     2.229590029987    -0.294231325737    15.994914619570
         N           -2.979275492227     1.755248029987     0.830238674263    14.003074004430
         C            1.034479507773     0.464766029987    -0.081843325737    12.000000000000
         C           -1.499298492227     0.059807029987    -0.137459325737    12.000000000000
         C           -0.354142492227     1.002536029987    -0.179250325737    12.000000000000
         C            3.712994507773    -0.379607970013     0.173775674263    12.000000000000
         C           -2.779128492227     0.488895029987     0.301823674263    12.000000000000
         C            1.354896507773    -0.635632970013     0.726569674263    12.000000000000
         C            2.061029507773     1.152560029987    -0.743859325737    12.000000000000
         C            2.682584507773    -1.042949970013     0.852226674263    12.000000000000
         C            3.392725807773     0.758469829987    -0.656917125737    12.000000000000
         C           -1.345487492227    -1.244679970013    -0.643856325737    12.000000000000
         C           -3.827623492227    -0.448870970013     0.313353674263    12.000000000000
         C           -2.405380492227    -2.142994970013    -0.665762325737    12.000000000000
         C            5.137524507773    -0.858380970013     0.271791674263    12.000000000000
         C           -3.652123492227    -1.735730970013    -0.180259325737    12.000000000000
         H            0.572055507773    -1.151945970013     1.276417674263     1.007825032230
         H            1.807381507773     2.024213029987    -1.341926325737     1.007825032230
         H            2.923867507773    -1.886443970013     1.497286674263     1.007825032230
         H            4.167203507773     1.256581029987    -1.156201325737     1.007825032230
         H           -0.375919492227    -1.544636970013    -1.031789325737     1.007825032230
         H           -4.805118492227    -0.135888970013     0.677487674263     1.007825032230
         H           -2.269454492227    -3.141613970013    -1.071710325737     1.007825032230
         H            5.839567507773    -0.023836970013     0.188383674263     1.007825032230
         H            5.318691507773    -1.362120970013     1.225435674263     1.007825032230
         H            5.370444507773    -1.568830970013    -0.529125325737     1.007825032230
         H           -4.491404492227    -2.427842970013    -0.176883325737     1.007825032230
         H           -2.350933492227     2.457695029987     0.453969674263     1.007825032230
         H           -3.948874492227     2.048177029987     0.858158674263     1.007825032230

  Basis Set: AUG-CC-PVTZ
    Blend: AUG-CC-PVTZ
  Basis Set: (AUG-CC-PVTZ AUX)
    Blend: AUG-CC-PVTZ-JKFIT
	 Reference Energy          =    -667.2733626397370017 [Eh]
	 Singles Energy            =      -0.0000000000000000 [Eh]
	 Same-Spin Energy          =      -0.7354046792890746 [Eh]
	 Opposite-Spin Energy      =      -2.2657162520689949 [Eh]
	 Correlation Energy        =      -3.0011209313580696 [Eh]
	 Total Energy              =    -670.2744835710950611 [Eh]

	 ================> DF-SCS-MP2 Energies <==================
	-----------------------------------------------------------
	 SCS Same-Spin Scale       =       0.3333333333333333 [-]
	 SCS Opposite-Spin Scale   =       1.2000000000000000 [-]
	 SCS Same-Spin Energy      =      -0.2451348930963582 [Eh]
	 SCS Opposite-Spin Energy  =      -2.7188595024827937 [Eh]
	 SCS Correlation Energy    =      -2.9639943955791521 [Eh]
	 SCS Total Energy          =    -670.2373570353161085 [Eh]
	-----------------------------------------------------------

  Dipole Moment: [D]
     X:     0.3835      Y:    -1.8125      Z:    -0.1137     Total:     1.8561

*** Psi4 exiting successfully. Buy a developer a beer!
