                               Psi4 1.4a3.dev225

  ==> Input File <==

--------------------------------------------------------------------------
#psi4
#
memory 32 gb

molecule  {
0 1
  O       -0.5498120     2.2556960    -0.2996080
  N       -3.0129360     1.7813540     0.8248620
  C        1.0008190     0.4908720    -0.0872200
  C       -1.5329590     0.0859130    -0.1428360
  C       -0.3878030     1.0286420    -0.1846270
  C        3.6793340    -0.3535020     0.1683990
  C       -2.8127890     0.5150010     0.2964470
  C        1.3212360    -0.6095270     0.7211930
  C        2.0273690     1.1786660    -0.7492360
  C        2.7224860    -0.9694873     0.7984147
  C        3.3454510     0.7479200    -0.6334830
  C       -1.3791480    -1.2185740    -0.6492330
  C       -3.8612840    -0.4227650     0.3079770
  C       -2.4390410    -2.1168890    -0.6711390
  C        5.1038640    -0.8322750     0.2664150
  C       -3.6857840    -1.7096250    -0.1856360
  H        0.5383950    -1.1258400     1.2710410
  H        1.7737210     2.0503190    -1.3473030
  H        2.8902070    -1.8603380     1.4919100
  H        4.1335430     1.2826870    -1.1615780
  H       -0.4095800    -1.5185310    -1.0371660
  H       -4.8387790    -0.1097830     0.6721110
  H       -2.3031150    -3.1155080    -1.0770870
  H        5.8059070     0.0022690     0.1830070
  H        5.2850310    -1.3360150     1.2200590
  H        5.3367840    -1.5427250    -0.5345020
  H       -4.5250650    -2.4017370    -0.1822600
  H       -2.3845940     2.4838010     0.4485930
  H       -3.9825350     2.0742830     0.8527820
units angstrom
no_reorient  #important for SAPT in psi4, default
symmetry c1  #important for SAPT in psi4, default
}

set PROPERTIES_ORIGIN ["COM"]
properties('MP2/aug-cc-pvtz', properties = ['dipole'])
--------------------------------------------------------------------------

    Molecular point group: c1
  Charge       = 0
  Multiplicity = 1
  Basis Set: AUG-CC-PVTZ
    Blend: AUG-CC-PVTZ
  Basis Set: (AUG-CC-PVTZ AUX)
    Blend: AUG-CC-PVTZ-JKFIT

    Orbital Energies [Eh]
    ---------------------

    Doubly Occupied:

       1A    -20.539484     2A    -15.560745     3A    -11.339281
       4A    -11.297700     5A    -11.257017     6A    -11.253436
       7A    -11.252936     8A    -11.245610     9A    -11.243546
      10A    -11.242973    11A    -11.240022    12A    -11.238604
      13A    -11.237187    14A    -11.232648    15A    -11.231206
      16A    -11.228945    17A     -1.372359    18A     -1.227309
      19A     -1.171856    20A     -1.138247    21A     -1.076145
      22A     -1.036520    23A     -1.012815    24A     -0.997193
      25A     -0.954389    26A     -0.879074    27A     -0.847760
      28A     -0.837351    29A     -0.811264    30A     -0.762663
      31A     -0.712741    32A     -0.692191    33A     -0.686694
      34A     -0.663847    35A     -0.644418    36A     -0.637255
      37A     -0.614622    38A     -0.604684    39A     -0.601341
      40A     -0.587384    41A     -0.584975    42A     -0.583180
      43A     -0.555903    44A     -0.541682    45A     -0.532083
      46A     -0.520376    47A     -0.514242    48A     -0.505920
      49A     -0.486657    50A     -0.484511    51A     -0.453071
      52A     -0.418799    53A     -0.349876    54A     -0.348049
      55A     -0.335320    56A     -0.301080

  @DF-RHF Final Energy:  -667.26312877701116

   => Energetics <=

    Nuclear Repulsion Energy =            993.6753981105001685
    One-Electron Energy =               -2878.4226830717252597
    Two-Electron Energy =                1217.4841561842138162
    Total Energy =                       -667.2631287770111612
  Basis Set: (AUG-CC-PVTZ AUX)
    Blend: AUG-CC-PVTZ-RI
    Molecular point group: c1

    Geometry (in Angstrom), charge = 0, multiplicity = 1:

       Center              X                  Y                   Z               Mass
    ------------   -----------------  -----------------  -----------------  -----------------
         O           -0.519559229671     2.228981735464    -0.293115767618    15.994914619570
         N           -2.982683229671     1.754639735464     0.831354232382    14.003074004430
         C            1.031071770329     0.464157735464    -0.080727767618    12.000000000000
         C           -1.502706229671     0.059198735464    -0.136343767618    12.000000000000
         C           -0.357550229671     1.001927735464    -0.178134767618    12.000000000000
         C            3.709586770329    -0.380216264536     0.174891232382    12.000000000000
         C           -2.782536229671     0.488286735464     0.302939232382    12.000000000000
         C            1.351488770329    -0.636241264536     0.727685232382    12.000000000000
         C            2.057621770329     1.151951735464    -0.742743767618    12.000000000000
         C            2.752738770329    -0.996201564536     0.804906932382    12.000000000000
         C            3.375703770329     0.721205735464    -0.626990767618    12.000000000000
         C           -1.348895229671    -1.245288264536    -0.642740767618    12.000000000000
         C           -3.831031229671    -0.449479264536     0.314469232382    12.000000000000
         C           -2.408788229671    -2.143603264536    -0.664646767618    12.000000000000
         C            5.134116770329    -0.858989264536     0.272907232382    12.000000000000
         C           -3.655531229671    -1.736339264536    -0.179143767618    12.000000000000
         H            0.568647770329    -1.152554264536     1.277533232382     1.007825032230
         H            1.803973770329     2.023604735464    -1.340810767618     1.007825032230
         H            2.920459770329    -1.887052264536     1.498402232382     1.007825032230
         H            4.163795770329     1.255972735464    -1.155085767618     1.007825032230
         H           -0.379327229671    -1.545245264536    -1.030673767618     1.007825032230
         H           -4.808526229671    -0.136497264536     0.678603232382     1.007825032230
         H           -2.272862229671    -3.142222264536    -1.070594767618     1.007825032230
         H            5.836159770329    -0.024445264536     0.189499232382     1.007825032230
         H            5.315283770329    -1.362729264536     1.226551232382     1.007825032230
         H            5.367036770329    -1.569439264536    -0.528009767618     1.007825032230
         H           -4.494812229671    -2.428451264536    -0.175767767618     1.007825032230
         H           -2.354341229671     2.457086735464     0.455085232382     1.007825032230
         H           -3.952282229671     2.047568735464     0.859274232382     1.007825032230

  Basis Set: AUG-CC-PVTZ
    Blend: AUG-CC-PVTZ
  Basis Set: (AUG-CC-PVTZ AUX)
    Blend: AUG-CC-PVTZ-JKFIT
	 Reference Energy          =    -667.2631287770111612 [Eh]
	 Singles Energy            =      -0.0000000000000000 [Eh]
	 Same-Spin Energy          =      -0.7354154896205820 [Eh]
	 Opposite-Spin Energy      =      -2.2660655254396724 [Eh]
	 Correlation Energy        =      -3.0014810150602544 [Eh]
	 Total Energy              =    -670.2646097920713828 [Eh]

	 ================> DF-SCS-MP2 Energies <==================
	-----------------------------------------------------------
	 SCS Same-Spin Scale       =       0.3333333333333333 [-]
	 SCS Opposite-Spin Scale   =       1.2000000000000000 [-]
	 SCS Same-Spin Energy      =      -0.2451384965401940 [Eh]
	 SCS Opposite-Spin Energy  =      -2.7192786305276067 [Eh]
	 SCS Correlation Energy    =      -2.9644171270678008 [Eh]
	 SCS Total Energy          =    -670.2275459040789656 [Eh]
	-----------------------------------------------------------

  Dipole Moment: [D]
     X:     0.2338      Y:    -1.7739      Z:    -0.1253     Total:     1.7937

*** Psi4 exiting successfully. Buy a developer a beer!
