                               Psi4 1.4a3.dev225

  ==> Input File <==

--------------------------------------------------------------------------
#psi4
#
memory 32 gb

molecule  {
0 1
  O       -0.5498120     2.2556960    -0.2996080
  N       -3.0129360     1.7813540     0.8248620
  C        1.0008190     0.4908720    -0.0872200
  C       -1.5329590     0.0859130    -0.1428360
  C       -0.3878030     1.0286420    -0.1846270
  C        3.6793340    -0.3535020     0.1683990
  C       -2.8127890     0.5150010     0.2964470
  C        1.3212360    -0.6095270     0.7211930
  C        2.0273690     1.1786660    -0.7492360
  C        2.6489240    -1.0168440     0.8468500
  C        3.3454510     0.7479200    -0.6334830
  C       -1.3791480    -1.2185740    -0.6492330
  C       -3.8612840    -0.4227650     0.3079770
  C       -2.4390410    -2.1168890    -0.6711390
  C        5.1038640    -0.8322750     0.2664150
  C       -3.7749293    -1.6805046    -0.1509213
  H        0.5383950    -1.1258400     1.2710410
  H        1.7737210     2.0503190    -1.3473030
  H        2.8902070    -1.8603380     1.4919100
  H        4.1335430     1.2826870    -1.1615780
  H       -0.4095800    -1.5185310    -1.0371660
  H       -4.8387790    -0.1097830     0.6721110
  H       -2.3031150    -3.1155080    -1.0770870
  H        5.8059070     0.0022690     0.1830070
  H        5.2850310    -1.3360150     1.2200590
  H        5.3367840    -1.5427250    -0.5345020
  H       -4.5250650    -2.4017370    -0.1822600
  H       -2.3845940     2.4838010     0.4485930
  H       -3.9825350     2.0742830     0.8527820
units angstrom
no_reorient  #important for SAPT in psi4, default
symmetry c1  #important for SAPT in psi4, default
}

set PROPERTIES_ORIGIN ["COM"]
properties('MP2/aug-cc-pvtz', properties = ['dipole'])
--------------------------------------------------------------------------

    Molecular point group: c1
  Charge       = 0
  Multiplicity = 1
  Basis Set: AUG-CC-PVTZ
    Blend: AUG-CC-PVTZ
  Basis Set: (AUG-CC-PVTZ AUX)
    Blend: AUG-CC-PVTZ-JKFIT

    Orbital Energies [Eh]
    ---------------------

    Doubly Occupied:

       1A    -20.536720     2A    -15.563616     3A    -11.337153
       4A    -11.301192     5A    -11.256622     6A    -11.254464
       7A    -11.249811     8A    -11.248467     9A    -11.245562
      10A    -11.242693    11A    -11.238409    12A    -11.237106
      13A    -11.236425    14A    -11.235078    15A    -11.232693
      16A    -11.232250    17A     -1.369932    18A     -1.229081
      19A     -1.164377    20A     -1.132322    21A     -1.069434
      22A     -1.038924    23A     -1.020340    24A     -0.990264
      25A     -0.954133    26A     -0.879357    27A     -0.837655
      28A     -0.832984    29A     -0.814707    30A     -0.765834
      31A     -0.711627    32A     -0.699337    33A     -0.688724
      34A     -0.660325    35A     -0.644152    36A     -0.635622
      37A     -0.612396    38A     -0.605505    39A     -0.599568
      40A     -0.591639    41A     -0.584247    42A     -0.583500
      43A     -0.556064    44A     -0.549619    45A     -0.540219
      46A     -0.518375    47A     -0.509690    48A     -0.493056
      49A     -0.491679    50A     -0.479816    51A     -0.448063
      52A     -0.418117    53A     -0.357308    54A     -0.342980
      55A     -0.333230    56A     -0.294591

  @DF-RHF Final Energy:  -667.26515732852602

   => Energetics <=

    Nuclear Repulsion Energy =            991.8518521997200423
    One-Electron Energy =               -2874.8399113029167893
    Two-Electron Energy =                1215.7229017746708450
    Total Energy =                       -667.2651573285259019
  Basis Set: (AUG-CC-PVTZ AUX)
    Blend: AUG-CC-PVTZ-RI
    Molecular point group: c1

    Geometry (in Angstrom), charge = 0, multiplicity = 1:

       Center              X                  Y                   Z               Mass
    ------------   -----------------  -----------------  -----------------  -----------------
         O           -0.510310104873     2.230018381112    -0.297842443845    15.994914619570
         N           -2.973434104873     1.755676381112     0.826627556155    14.003074004430
         C            1.040320895127     0.465194381112    -0.085454443845    12.000000000000
         C           -1.493457104873     0.060235381112    -0.141070443845    12.000000000000
         C           -0.348301104873     1.002964381112    -0.182861443845    12.000000000000
         C            3.718835895127    -0.379179618888     0.170164556155    12.000000000000
         C           -2.773287104873     0.489323381112     0.298212556155    12.000000000000
         C            1.360737895127    -0.635204618888     0.722958556155    12.000000000000
         C            2.066870895127     1.152988381112    -0.747470443845    12.000000000000
         C            2.688425895127    -1.042521618888     0.848615556155    12.000000000000
         C            3.384952895127     0.722242381112    -0.631717443845    12.000000000000
         C           -1.339646104873    -1.244251618888    -0.647467443845    12.000000000000
         C           -3.821782104873    -0.448442618888     0.309742556155    12.000000000000
         C           -2.399539104873    -2.142566618888    -0.669373443845    12.000000000000
         C            5.143365895127    -0.857952618888     0.268180556155    12.000000000000
         C           -3.735427404873    -1.706182218888    -0.149155743845    12.000000000000
         H            0.577896895127    -1.151517618888     1.272806556155     1.007825032230
         H            1.813222895127     2.024641381112    -1.345537443845     1.007825032230
         H            2.929708895127    -1.886015618888     1.493675556155     1.007825032230
         H            4.173044895127     1.257009381112    -1.159812443845     1.007825032230
         H           -0.370078104873    -1.544208618888    -1.035400443845     1.007825032230
         H           -4.799277104873    -0.135460618888     0.673876556155     1.007825032230
         H           -2.263613104873    -3.141185618888    -1.075321443845     1.007825032230
         H            5.845408895127    -0.023408618888     0.184772556155     1.007825032230
         H            5.324532895127    -1.361692618888     1.221824556155     1.007825032230
         H            5.376285895127    -1.568402618888    -0.532736443845     1.007825032230
         H           -4.485563104873    -2.427414618888    -0.180494443845     1.007825032230
         H           -2.345092104873     2.458123381112     0.450358556155     1.007825032230
         H           -3.943033104873     2.048605381112     0.854547556155     1.007825032230

  Basis Set: AUG-CC-PVTZ
    Blend: AUG-CC-PVTZ
  Basis Set: (AUG-CC-PVTZ AUX)
    Blend: AUG-CC-PVTZ-JKFIT
	 Reference Energy          =    -667.2651573285260156 [Eh]
	 Singles Energy            =      -0.0000000000000000 [Eh]
	 Same-Spin Energy          =      -0.7352257810742406 [Eh]
	 Opposite-Spin Energy      =      -2.2662853052247827 [Eh]
	 Correlation Energy        =      -3.0015110862990233 [Eh]
	 Total Energy              =    -670.2666684148250624 [Eh]

	 ================> DF-SCS-MP2 Energies <==================
	-----------------------------------------------------------
	 SCS Same-Spin Scale       =       0.3333333333333333 [-]
	 SCS Opposite-Spin Scale   =       1.2000000000000000 [-]
	 SCS Same-Spin Energy      =      -0.2450752603580802 [Eh]
	 SCS Opposite-Spin Energy  =      -2.7195423662697391 [Eh]
	 SCS Correlation Energy    =      -2.9646176266278195 [Eh]
	 SCS Total Energy          =    -670.2297749551538573 [Eh]
	-----------------------------------------------------------

  Dipole Moment: [D]
     X:     0.2342      Y:    -1.7984      Z:    -0.0694     Total:     1.8149

*** Psi4 exiting successfully. Buy a developer a beer!
