                               Psi4 1.4a3.dev225

  ==> Input File <==

--------------------------------------------------------------------------
#psi4
#
memory 32 gb

molecule  {
0 1
  O       -0.5498120     2.2556960    -0.2996080
  N       -3.0129360     1.7813540     0.8248620
  C        1.0008190     0.4908720    -0.0872200
  C       -1.5329590     0.0859130    -0.1428360
  C       -0.3878030     1.0286420    -0.1846270
  C        3.6793340    -0.3535020     0.1683990
  C       -2.8127890     0.5150010     0.2964470
  C        1.3212360    -0.6095270     0.7211930
  C        2.0273690     1.1786660    -0.7492360
  C        2.6489240    -1.0168440     0.8468500
  C        3.3454510     0.7479200    -0.6334830
  C       -1.3791480    -1.2185740    -0.6492330
  C       -3.7867496    -0.3561020     0.3071574
  C       -2.4390410    -2.1168890    -0.6711390
  C        5.1038640    -0.8322750     0.2664150
  C       -3.6857840    -1.7096250    -0.1856360
  H        0.5383950    -1.1258400     1.2710410
  H        1.7737210     2.0503190    -1.3473030
  H        2.8902070    -1.8603380     1.4919100
  H        4.1335430     1.2826870    -1.1615780
  H       -0.4095800    -1.5185310    -1.0371660
  H       -4.8387790    -0.1097830     0.6721110
  H       -2.3031150    -3.1155080    -1.0770870
  H        5.8059070     0.0022690     0.1830070
  H        5.2850310    -1.3360150     1.2200590
  H        5.3367840    -1.5427250    -0.5345020
  H       -4.5250650    -2.4017370    -0.1822600
  H       -2.3845940     2.4838010     0.4485930
  H       -3.9825350     2.0742830     0.8527820
units angstrom
no_reorient  #important for SAPT in psi4, default
symmetry c1  #important for SAPT in psi4, default
}

set PROPERTIES_ORIGIN ["COM"]
properties('MP2/aug-cc-pvtz', properties = ['dipole'])
--------------------------------------------------------------------------

    Molecular point group: c1
  Charge       = 0
  Multiplicity = 1
  Basis Set: AUG-CC-PVTZ
    Blend: AUG-CC-PVTZ
  Basis Set: (AUG-CC-PVTZ AUX)
    Blend: AUG-CC-PVTZ-JKFIT

    Orbital Energies [Eh]
    ---------------------

    Doubly Occupied:

       1A    -20.538847     2A    -15.551727     3A    -11.339119
       4A    -11.279686     5A    -11.260216     6A    -11.257704
       7A    -11.254307     8A    -11.250963     9A    -11.246692
      10A    -11.244006    11A    -11.242747    12A    -11.239456
      13A    -11.238170    14A    -11.233522    15A    -11.231950
      16A    -11.228361    17A     -1.371642    18A     -1.228296
      19A     -1.165582    20A     -1.137221    21A     -1.069300
      22A     -1.031196    23A     -1.020304    24A     -1.007314
      25A     -0.954689    26A     -0.882912    27A     -0.838560
      28A     -0.835127    29A     -0.811040    30A     -0.767390
      31A     -0.711598    32A     -0.691115    33A     -0.683700
      34A     -0.661446    35A     -0.644088    36A     -0.635425
      37A     -0.614776    38A     -0.609805    39A     -0.598004
      40A     -0.592787    41A     -0.584696    42A     -0.576187
      43A     -0.557969    44A     -0.546931    45A     -0.538024
      46A     -0.520629    47A     -0.512366    48A     -0.495805
      49A     -0.493597    50A     -0.480903    51A     -0.449320
      52A     -0.420320    53A     -0.346184    54A     -0.340477
      55A     -0.334359    56A     -0.309634

  @DF-RHF Final Energy:  -667.26242592912831

   => Energetics <=

    Nuclear Repulsion Energy =            994.5650683642679724
    One-Electron Energy =               -2880.2385990840571139
    Two-Electron Energy =                1218.4111047906608292
    Total Energy =                       -667.2624259291283124
  Basis Set: (AUG-CC-PVTZ AUX)
    Blend: AUG-CC-PVTZ-RI
    Molecular point group: c1

    Geometry (in Angstrom), charge = 0, multiplicity = 1:

       Center              X                  Y                   Z               Mass
    ------------   -----------------  -----------------  -----------------  -----------------
         O           -0.519614505918     2.227884265479    -0.295822490375    15.994914619570
         N           -2.982738505918     1.753542265479     0.828647509625    14.003074004430
         C            1.031016494082     0.463060265479    -0.083434490375    12.000000000000
         C           -1.502761505918     0.058101265479    -0.139050490375    12.000000000000
         C           -0.357605505918     1.000830265479    -0.180841490375    12.000000000000
         C            3.709531494082    -0.381313734521     0.172184509625    12.000000000000
         C           -2.782591505918     0.487189265479     0.300232509625    12.000000000000
         C            1.351433494082    -0.637338734521     0.724978509625    12.000000000000
         C            2.057566494082     1.150854265479    -0.745450490375    12.000000000000
         C            2.679121494082    -1.044655734521     0.850635509625    12.000000000000
         C            3.375648494082     0.720108265479    -0.629697490375    12.000000000000
         C           -1.348950505918    -1.246385734521    -0.645447490375    12.000000000000
         C           -3.756552105918    -0.383913734521     0.310942909625    12.000000000000
         C           -2.408843505918    -2.144700734521    -0.667353490375    12.000000000000
         C            5.134061494082    -0.860086734521     0.270200509625    12.000000000000
         C           -3.655586505918    -1.737436734521    -0.181850490375    12.000000000000
         H            0.568592494082    -1.153651734521     1.274826509625     1.007825032230
         H            1.803918494082     2.022507265479    -1.343517490375     1.007825032230
         H            2.920404494082    -1.888149734521     1.495695509625     1.007825032230
         H            4.163740494082     1.254875265479    -1.157792490375     1.007825032230
         H           -0.379382505918    -1.546342734521    -1.033380490375     1.007825032230
         H           -4.808581505918    -0.137594734521     0.675896509625     1.007825032230
         H           -2.272917505918    -3.143319734521    -1.073301490375     1.007825032230
         H            5.836104494082    -0.025542734521     0.186792509625     1.007825032230
         H            5.315228494082    -1.363826734521     1.223844509625     1.007825032230
         H            5.366981494082    -1.570536734521    -0.530716490375     1.007825032230
         H           -4.494867505918    -2.429548734521    -0.178474490375     1.007825032230
         H           -2.354396505918     2.455989265479     0.452378509625     1.007825032230
         H           -3.952337505918     2.046471265479     0.856567509625     1.007825032230

  Basis Set: AUG-CC-PVTZ
    Blend: AUG-CC-PVTZ
  Basis Set: (AUG-CC-PVTZ AUX)
    Blend: AUG-CC-PVTZ-JKFIT
	 Reference Energy          =    -667.2624259291283124 [Eh]
	 Singles Energy            =      -0.0000000000000000 [Eh]
	 Same-Spin Energy          =      -0.7359456579710715 [Eh]
	 Opposite-Spin Energy      =      -2.2665619432538442 [Eh]
	 Correlation Energy        =      -3.0025076012249157 [Eh]
	 Total Energy              =    -670.2649335303532325 [Eh]

	 ================> DF-SCS-MP2 Energies <==================
	-----------------------------------------------------------
	 SCS Same-Spin Scale       =       0.3333333333333333 [-]
	 SCS Opposite-Spin Scale   =       1.2000000000000000 [-]
	 SCS Same-Spin Energy      =      -0.2453152193236905 [Eh]
	 SCS Opposite-Spin Energy  =      -2.7198743319046130 [Eh]
	 SCS Correlation Energy    =      -2.9651895512283035 [Eh]
	 SCS Total Energy          =    -670.2276154803565760 [Eh]
	-----------------------------------------------------------

  Dipole Moment: [D]
     X:     0.4840      Y:    -2.0333      Z:    -0.2185     Total:     2.1015

*** Psi4 exiting successfully. Buy a developer a beer!
