                               Psi4 1.4a3.dev225

  ==> Input File <==

--------------------------------------------------------------------------
#psi4
#
memory 32 gb

molecule  {
0 1
  O       -0.5498120     2.2556960    -0.2996080
  N       -3.0129360     1.7813540     0.8248620
  C        1.0008190     0.4908720    -0.0872200
  C       -1.5329590     0.0859130    -0.1428360
  C       -0.3878030     1.0286420    -0.1846270
  C        3.6793340    -0.3535020     0.1683990
  C       -2.8127890     0.5150010     0.2964470
  C        1.3166669    -0.5938353     0.7096650
  C        2.0273690     1.1786660    -0.7492360
  C        2.6489240    -1.0168440     0.8468500
  C        3.3454510     0.7479200    -0.6334830
  C       -1.3791480    -1.2185740    -0.6492330
  C       -3.8612840    -0.4227650     0.3079770
  C       -2.4390410    -2.1168890    -0.6711390
  C        5.1038640    -0.8322750     0.2664150
  C       -3.6857840    -1.7096250    -0.1856360
  H        0.5383950    -1.1258400     1.2710410
  H        1.7737210     2.0503190    -1.3473030
  H        2.8902070    -1.8603380     1.4919100
  H        4.1335430     1.2826870    -1.1615780
  H       -0.4095800    -1.5185310    -1.0371660
  H       -4.8387790    -0.1097830     0.6721110
  H       -2.3031150    -3.1155080    -1.0770870
  H        5.8059070     0.0022690     0.1830070
  H        5.2850310    -1.3360150     1.2200590
  H        5.3367840    -1.5427250    -0.5345020
  H       -4.5250650    -2.4017370    -0.1822600
  H       -2.3845940     2.4838010     0.4485930
  H       -3.9825350     2.0742830     0.8527820
units angstrom
no_reorient  #important for SAPT in psi4, default
symmetry c1  #important for SAPT in psi4, default
}

set PROPERTIES_ORIGIN ["COM"]
properties('MP2/aug-cc-pvtz', properties = ['dipole'])
--------------------------------------------------------------------------

    Molecular point group: c1
  Charge       = 0
  Multiplicity = 1
  Basis Set: AUG-CC-PVTZ
    Blend: AUG-CC-PVTZ
  Basis Set: (AUG-CC-PVTZ AUX)
    Blend: AUG-CC-PVTZ-JKFIT

    Orbital Energies [Eh]
    ---------------------

    Doubly Occupied:

       1A    -20.538382     2A    -15.560102     3A    -11.338696
       4A    -11.296966     5A    -11.256951     6A    -11.252772
       7A    -11.252319     8A    -11.250271     9A    -11.246105
      10A    -11.241885    11A    -11.239730    12A    -11.239172
      13A    -11.237672    14A    -11.233017    15A    -11.231990
      16A    -11.228320    17A     -1.371406    18A     -1.226632
      19A     -1.166223    20A     -1.137143    21A     -1.071053
      22A     -1.034735    23A     -1.019078    24A     -0.996588
      25A     -0.954738    26A     -0.877093    27A     -0.839363
      28A     -0.836126    29A     -0.813123    30A     -0.766619
      31A     -0.712921    32A     -0.691782    33A     -0.686301
      34A     -0.660990    35A     -0.645486    36A     -0.635194
      37A     -0.614501    38A     -0.604054    39A     -0.600606
      40A     -0.590957    41A     -0.584980    42A     -0.583773
      43A     -0.556008    44A     -0.544832    45A     -0.532059
      46A     -0.518047    47A     -0.512605    48A     -0.504731
      49A     -0.494271    50A     -0.482367    51A     -0.452276
      52A     -0.419022    53A     -0.349590    54A     -0.342433
      55A     -0.335239    56A     -0.300444

  @DF-RHF Final Energy:  -667.27631157530402

   => Energetics <=

    Nuclear Repulsion Energy =            993.1788917193782709
    One-Electron Energy =               -2877.4909325925841586
    Two-Electron Energy =                1217.0357292979019803
    Total Energy =                       -667.2763115753039074
  Basis Set: (AUG-CC-PVTZ AUX)
    Blend: AUG-CC-PVTZ-RI
    Molecular point group: c1

    Geometry (in Angstrom), charge = 0, multiplicity = 1:

       Center              X                  Y                   Z               Mass
    ------------   -----------------  -----------------  -----------------  -----------------
         O           -0.515117853688     2.230781737902    -0.295213769512    15.994914619570
         N           -2.978241853688     1.756439737902     0.829256230488    14.003074004430
         C            1.035513146312     0.465957737902    -0.082825769512    12.000000000000
         C           -1.498264853688     0.060998737902    -0.138441769512    12.000000000000
         C           -0.353108853688     1.003727737902    -0.180232769512    12.000000000000
         C            3.714028146312    -0.378416262098     0.172793230488    12.000000000000
         C           -2.778094853688     0.490086737902     0.300841230488    12.000000000000
         C            1.351361046312    -0.618749562098     0.714059230488    12.000000000000
         C            2.062063146312     1.153751737902    -0.744841769512    12.000000000000
         C            2.683618146312    -1.041758262098     0.851244230488    12.000000000000
         C            3.380145146312     0.723005737902    -0.629088769512    12.000000000000
         C           -1.344453853688    -1.243488262098    -0.644838769512    12.000000000000
         C           -3.826589853688    -0.447679262098     0.312371230488    12.000000000000
         C           -2.404346853688    -2.141803262098    -0.666744769512    12.000000000000
         C            5.138558146312    -0.857189262098     0.270809230488    12.000000000000
         C           -3.651089853688    -1.734539262098    -0.181241769512    12.000000000000
         H            0.573089146312    -1.150754262098     1.275435230488     1.007825032230
         H            1.808415146312     2.025404737902    -1.342908769512     1.007825032230
         H            2.924901146312    -1.885252262098     1.496304230488     1.007825032230
         H            4.168237146312     1.257772737902    -1.157183769512     1.007825032230
         H           -0.374885853688    -1.543445262098    -1.032771769512     1.007825032230
         H           -4.804084853688    -0.134697262098     0.676505230488     1.007825032230
         H           -2.268420853688    -3.140422262098    -1.072692769512     1.007825032230
         H            5.840601146312    -0.022645262098     0.187401230488     1.007825032230
         H            5.319725146312    -1.360929262098     1.224453230488     1.007825032230
         H            5.371478146312    -1.567639262098    -0.530107769512     1.007825032230
         H           -4.490370853688    -2.426651262098    -0.177865769512     1.007825032230
         H           -2.349899853688     2.458886737902     0.452987230488     1.007825032230
         H           -3.947840853688     2.049368737902     0.857176230488     1.007825032230

  Basis Set: AUG-CC-PVTZ
    Blend: AUG-CC-PVTZ
  Basis Set: (AUG-CC-PVTZ AUX)
    Blend: AUG-CC-PVTZ-JKFIT
	 Reference Energy          =    -667.2763115753040211 [Eh]
	 Singles Energy            =      -0.0000000000000000 [Eh]
	 Same-Spin Energy          =      -0.7354786774530694 [Eh]
	 Opposite-Spin Energy      =      -2.2654466365622361 [Eh]
	 Correlation Energy        =      -3.0009253140153054 [Eh]
	 Total Energy              =    -670.2772368893192834 [Eh]

	 ================> DF-SCS-MP2 Energies <==================
	-----------------------------------------------------------
	 SCS Same-Spin Scale       =       0.3333333333333333 [-]
	 SCS Opposite-Spin Scale   =       1.2000000000000000 [-]
	 SCS Same-Spin Energy      =      -0.2451595591510231 [Eh]
	 SCS Opposite-Spin Energy  =      -2.7185359638746833 [Eh]
	 SCS Correlation Energy    =      -2.9636955230257063 [Eh]
	 SCS Total Energy          =    -670.2400070983297837 [Eh]
	-----------------------------------------------------------

  Dipole Moment: [D]
     X:     0.3418      Y:    -1.8158      Z:    -0.1036     Total:     1.8506

*** Psi4 exiting successfully. Buy a developer a beer!
