                               Psi4 1.4a3.dev225

  ==> Input File <==

--------------------------------------------------------------------------
#psi4
#
memory 32 gb

molecule  {
0 1
  O       -0.5498120     2.2556960    -0.2996080
  N       -3.0129360     1.7813540     0.8248620
  C        1.0008190     0.4908720    -0.0872200
  C       -1.5329590     0.0859130    -0.1428360
  C       -0.3878030     1.0286420    -0.1846270
  C        3.6793340    -0.3535020     0.1683990
  C       -2.8127890     0.5150010     0.2964470
  C        1.3212360    -0.6095270     0.7211930
  C        2.0273690     1.1786660    -0.7492360
  C        2.6489240    -1.0168440     0.8468500
  C        3.3454510     0.7479200    -0.6334830
  C       -1.3791480    -1.2185740    -0.6492330
  C       -3.8612840    -0.4227650     0.3079770
  C       -2.4390410    -2.1168890    -0.6711390
  C        5.1038640    -0.8322750     0.2664150
  C       -3.7091539    -1.7143002    -0.1811609
  H        0.5383950    -1.1258400     1.2710410
  H        1.7737210     2.0503190    -1.3473030
  H        2.8902070    -1.8603380     1.4919100
  H        4.1335430     1.2826870    -1.1615780
  H       -0.4095800    -1.5185310    -1.0371660
  H       -4.8387790    -0.1097830     0.6721110
  H       -2.3031150    -3.1155080    -1.0770870
  H        5.8059070     0.0022690     0.1830070
  H        5.2850310    -1.3360150     1.2200590
  H        5.3367840    -1.5427250    -0.5345020
  H       -4.5250650    -2.4017370    -0.1822600
  H       -2.3845940     2.4838010     0.4485930
  H       -3.9825350     2.0742830     0.8527820
units angstrom
no_reorient  #important for SAPT in psi4, default
symmetry c1  #important for SAPT in psi4, default
}

set PROPERTIES_ORIGIN ["COM"]
properties('MP2/aug-cc-pvtz', properties = ['dipole'])
--------------------------------------------------------------------------

    Molecular point group: c1
  Charge       = 0
  Multiplicity = 1
  Basis Set: AUG-CC-PVTZ
    Blend: AUG-CC-PVTZ
  Basis Set: (AUG-CC-PVTZ AUX)
    Blend: AUG-CC-PVTZ-JKFIT

    Orbital Energies [Eh]
    ---------------------

    Doubly Occupied:

       1A    -20.537900     2A    -15.560431     3A    -11.338317
       4A    -11.297521     5A    -11.257242     6A    -11.253668
       7A    -11.251656     8A    -11.250481     9A    -11.246227
      10A    -11.243442    11A    -11.239003    12A    -11.238903
      13A    -11.237712    14A    -11.233154    15A    -11.232928
      16A    -11.230303    17A     -1.370956    18A     -1.226686
      19A     -1.165072    20A     -1.135063    21A     -1.069297
      22A     -1.034676    23A     -1.020550    24A     -0.995045
      25A     -0.954586    26A     -0.877985    27A     -0.838506
      28A     -0.835816    29A     -0.813384    30A     -0.766098
      31A     -0.712303    32A     -0.693964    33A     -0.686777
      34A     -0.661207    35A     -0.644911    36A     -0.636174
      37A     -0.614374    38A     -0.603962    39A     -0.599634
      40A     -0.592457    41A     -0.584325    42A     -0.583248
      43A     -0.555637    44A     -0.545515    45A     -0.535301
      46A     -0.518083    47A     -0.512473    48A     -0.502862
      49A     -0.493394    50A     -0.481735    51A     -0.450902
      52A     -0.418937    53A     -0.349946    54A     -0.343044
      55A     -0.333876    56A     -0.299307

  @DF-RHF Final Energy:  -667.27557567408326

   => Energetics <=

    Nuclear Repulsion Energy =            992.4225192321289342
    One-Electron Energy =               -2875.9822740002400678
    Two-Electron Energy =                1216.2841790940278770
    Total Energy =                       -667.2755756740832567
  Basis Set: (AUG-CC-PVTZ AUX)
    Blend: AUG-CC-PVTZ-RI
    Molecular point group: c1

    Geometry (in Angstrom), charge = 0, multiplicity = 1:

       Center              X                  Y                   Z               Mass
    ------------   -----------------  -----------------  -----------------  -----------------
         O           -0.514049118938     2.231939497878    -0.296123468518    15.994914619570
         N           -2.977173118938     1.757597497878     0.828346531482    14.003074004430
         C            1.036581881062     0.467115497878    -0.083735468518    12.000000000000
         C           -1.497196118938     0.062156497878    -0.139351468518    12.000000000000
         C           -0.352040118938     1.004885497878    -0.181142468518    12.000000000000
         C            3.715096881062    -0.377258502122     0.171883531482    12.000000000000
         C           -2.777026118938     0.491244497878     0.299931531482    12.000000000000
         C            1.356998881062    -0.633283502122     0.724677531482    12.000000000000
         C            2.063131881062     1.154909497878    -0.745751468518    12.000000000000
         C            2.684686881062    -1.040600502122     0.850334531482    12.000000000000
         C            3.381213881062     0.724163497878    -0.629998468518    12.000000000000
         C           -1.343385118938    -1.242330502122    -0.645748468518    12.000000000000
         C           -3.825521118938    -0.446521502122     0.311461531482    12.000000000000
         C           -2.403278118938    -2.140645502122    -0.667654468518    12.000000000000
         C            5.139626881062    -0.856031502122     0.269899531482    12.000000000000
         C           -3.673391018938    -1.738056702122    -0.177676368518    12.000000000000
         H            0.574157881062    -1.149596502122     1.274525531482     1.007825032230
         H            1.809483881062     2.026562497878    -1.343818468518     1.007825032230
         H            2.925969881062    -1.884094502122     1.495394531482     1.007825032230
         H            4.169305881062     1.258930497878    -1.158093468518     1.007825032230
         H           -0.373817118938    -1.542287502122    -1.033681468518     1.007825032230
         H           -4.803016118938    -0.133539502122     0.675595531482     1.007825032230
         H           -2.267352118938    -3.139264502122    -1.073602468518     1.007825032230
         H            5.841669881062    -0.021487502122     0.186491531482     1.007825032230
         H            5.320793881062    -1.359771502122     1.223543531482     1.007825032230
         H            5.372546881062    -1.566481502122    -0.531017468518     1.007825032230
         H           -4.489302118938    -2.425493502122    -0.178775468518     1.007825032230
         H           -2.348831118938     2.460044497878     0.452077531482     1.007825032230
         H           -3.946772118938     2.050526497878     0.856266531482     1.007825032230

  Basis Set: AUG-CC-PVTZ
    Blend: AUG-CC-PVTZ
  Basis Set: (AUG-CC-PVTZ AUX)
    Blend: AUG-CC-PVTZ-JKFIT
	 Reference Energy          =    -667.2755756740832567 [Eh]
	 Singles Energy            =      -0.0000000000000000 [Eh]
	 Same-Spin Energy          =      -0.7355275228479972 [Eh]
	 Opposite-Spin Energy      =      -2.2657179785406774 [Eh]
	 Correlation Energy        =      -3.0012455013886745 [Eh]
	 Total Energy              =    -670.2768211754719232 [Eh]

	 ================> DF-SCS-MP2 Energies <==================
	-----------------------------------------------------------
	 SCS Same-Spin Scale       =       0.3333333333333333 [-]
	 SCS Opposite-Spin Scale   =       1.2000000000000000 [-]
	 SCS Same-Spin Energy      =      -0.2451758409493324 [Eh]
	 SCS Opposite-Spin Energy  =      -2.7188615742488129 [Eh]
	 SCS Correlation Energy    =      -2.9640374151981455 [Eh]
	 SCS Total Energy          =    -670.2396130892814199 [Eh]
	-----------------------------------------------------------

  Dipole Moment: [D]
     X:     0.3357      Y:    -1.8168      Z:    -0.1007     Total:     1.8503

*** Psi4 exiting successfully. Buy a developer a beer!
