                               Psi4 1.4a3.dev225

  ==> Input File <==

--------------------------------------------------------------------------
#psi4
#
memory 32 gb

molecule  {
0 1
  O       -0.5498120     2.2556960    -0.2996080
  N       -3.0129360     1.7813540     0.8248620
  C        1.0008190     0.4908720    -0.0872200
  C       -1.5329590     0.0859130    -0.1428360
  C       -0.3878030     1.0286420    -0.1846270
  C        3.6793340    -0.3535020     0.1683990
  C       -2.8127890     0.5150010     0.2964470
  C        1.3212360    -0.6095270     0.7211930
  C        2.0273690     1.1786660    -0.7492360
  C        2.6489240    -1.0168440     0.8468500
  C        3.3454510     0.7479200    -0.6334830
  C       -1.3791480    -1.2185740    -0.6492330
  C       -3.8612840    -0.4227650     0.3079770
  C       -2.4390410    -2.1168890    -0.6711390
  C        5.1038640    -0.8322750     0.2664150
  C       -3.6857840    -1.7096250    -0.1856360
  H        0.5383950    -1.1258400     1.2710410
  H        1.7737210     2.0503190    -1.3473030
  H        2.8902070    -1.8603380     1.4919100
  H        4.1335430     1.2826870    -1.1615780
  H       -0.4095800    -1.5185310    -1.0371660
  H       -4.8387790    -0.1097830     0.6721110
  H       -2.3031150    -3.1155080    -1.0770870
  H        5.8059070     0.0022690     0.1830070
  H        5.2850310    -1.3360150     1.2200590
  H        5.3474133    -1.5751463    -0.5710517
  H       -4.5250650    -2.4017370    -0.1822600
  H       -2.3845940     2.4838010     0.4485930
  H       -3.9825350     2.0742830     0.8527820
units angstrom
no_reorient  #important for SAPT in psi4, default
symmetry c1  #important for SAPT in psi4, default
}

set PROPERTIES_ORIGIN ["COM"]
properties('MP2/aug-cc-pvtz', properties = ['dipole'])
--------------------------------------------------------------------------

    Molecular point group: c1
  Charge       = 0
  Multiplicity = 1
  Basis Set: AUG-CC-PVTZ
    Blend: AUG-CC-PVTZ
  Basis Set: (AUG-CC-PVTZ AUX)
    Blend: AUG-CC-PVTZ-JKFIT

    Orbital Energies [Eh]
    ---------------------

    Doubly Occupied:

       1A    -20.538127     2A    -15.560085     3A    -11.338592
       4A    -11.296963     5A    -11.257677     6A    -11.252781
       7A    -11.252319     8A    -11.250720     9A    -11.246453
      10A    -11.243752    11A    -11.239345    12A    -11.239183
      13A    -11.239110    14A    -11.238033    15A    -11.232017
      16A    -11.228353    17A     -1.371180    18A     -1.226622
      19A     -1.165306    20A     -1.137163    21A     -1.069144
      22A     -1.034332    23A     -1.020748    24A     -0.996584
      25A     -0.952102    26A     -0.876502    27A     -0.839001
      28A     -0.836089    29A     -0.812870    30A     -0.766245
      31A     -0.712783    32A     -0.691701    33A     -0.686256
      34A     -0.661220    35A     -0.645317    36A     -0.636605
      37A     -0.614271    38A     -0.603635    39A     -0.599819
      40A     -0.592751    41A     -0.584453    42A     -0.576024
      43A     -0.556002    44A     -0.544988    45A     -0.531984
      46A     -0.518211    47A     -0.513053    48A     -0.504356
      49A     -0.493653    50A     -0.481430    51A     -0.452352
      52A     -0.419034    53A     -0.349799    54A     -0.343213
      55A     -0.333737    56A     -0.300414

  @DF-RHF Final Energy:  -667.27451659784447

   => Energetics <=

    Nuclear Repulsion Energy =            992.6679915643060212
    One-Electron Energy =               -2876.4760993372442499
    Two-Electron Energy =                1216.5335911750937612
    Total Energy =                       -667.2745165978444675
  Basis Set: (AUG-CC-PVTZ AUX)
    Blend: AUG-CC-PVTZ-RI
    Molecular point group: c1

    Geometry (in Angstrom), charge = 0, multiplicity = 1:

       Center              X                  Y                   Z               Mass
    ------------   -----------------  -----------------  -----------------  -----------------
         O           -0.515428331013     2.231828519982    -0.295694586352    15.994914619570
         N           -2.978552331013     1.757486519982     0.828775413648    14.003074004430
         C            1.035202668987     0.467004519982    -0.083306586352    12.000000000000
         C           -1.498575331013     0.062045519982    -0.138922586352    12.000000000000
         C           -0.353419331013     1.004774519982    -0.180713586352    12.000000000000
         C            3.713717668987    -0.377369480018     0.172312413648    12.000000000000
         C           -2.778405331013     0.491133519982     0.300360413648    12.000000000000
         C            1.355619668987    -0.633394480018     0.725106413648    12.000000000000
         C            2.061752668987     1.154798519982    -0.745322586352    12.000000000000
         C            2.683307668987    -1.040711480018     0.850763413648    12.000000000000
         C            3.379834668987     0.724052519982    -0.629569586352    12.000000000000
         C           -1.344764331013    -1.242441480018    -0.645319586352    12.000000000000
         C           -3.826900331013    -0.446632480018     0.311890413648    12.000000000000
         C           -2.404657331013    -2.140756480018    -0.667225586352    12.000000000000
         C            5.138247668987    -0.856142480018     0.270328413648    12.000000000000
         C           -3.651400331013    -1.733492480018    -0.181722586352    12.000000000000
         H            0.572778668987    -1.149707480018     1.274954413648     1.007825032230
         H            1.808104668987     2.026451519982    -1.343389586352     1.007825032230
         H            2.924590668987    -1.884205480018     1.495823413648     1.007825032230
         H            4.167926668987     1.258819519982    -1.157664586352     1.007825032230
         H           -0.375196331013    -1.542398480018    -1.033252586352     1.007825032230
         H           -4.804395331013    -0.133650480018     0.676024413648     1.007825032230
         H           -2.268731331013    -3.139375480018    -1.073173586352     1.007825032230
         H            5.840290668987    -0.021598480018     0.186920413648     1.007825032230
         H            5.319414668987    -1.359882480018     1.223972413648     1.007825032230
         H            5.381796968987    -1.599013780018    -0.567138286352     1.007825032230
         H           -4.490681331013    -2.425604480018    -0.178346586352     1.007825032230
         H           -2.350210331013     2.459933519982     0.452506413648     1.007825032230
         H           -3.948151331013     2.050415519982     0.856695413648     1.007825032230

  Basis Set: AUG-CC-PVTZ
    Blend: AUG-CC-PVTZ
  Basis Set: (AUG-CC-PVTZ AUX)
    Blend: AUG-CC-PVTZ-JKFIT
	 Reference Energy          =    -667.2745165978444675 [Eh]
	 Singles Energy            =      -0.0000000000000000 [Eh]
	 Same-Spin Energy          =      -0.7355228247511200 [Eh]
	 Opposite-Spin Energy      =      -2.2658349360118302 [Eh]
	 Correlation Energy        =      -3.0013577607629500 [Eh]
	 Total Energy              =    -670.2758743586074388 [Eh]

	 ================> DF-SCS-MP2 Energies <==================
	-----------------------------------------------------------
	 SCS Same-Spin Scale       =       0.3333333333333333 [-]
	 SCS Opposite-Spin Scale   =       1.2000000000000000 [-]
	 SCS Same-Spin Energy      =      -0.2451742749170400 [Eh]
	 SCS Opposite-Spin Energy  =      -2.7190019232141962 [Eh]
	 SCS Correlation Energy    =      -2.9641761981312360 [Eh]
	 SCS Total Energy          =    -670.2386927959756804 [Eh]
	-----------------------------------------------------------

  Dipole Moment: [D]
     X:     0.3314      Y:    -1.7982      Z:    -0.0931     Total:     1.8309

*** Psi4 exiting successfully. Buy a developer a beer!
