                               Psi4 1.4a3.dev225

  ==> Input File <==

--------------------------------------------------------------------------
#psi4
#
memory 32 gb

molecule  {
0 1
  O       -0.5498120     2.2556960    -0.2996080
  N       -3.0129360     1.7813540     0.8248620
  C        1.0008190     0.4908720    -0.0872200
  C       -1.5329590     0.0859130    -0.1428360
  C       -0.3878030     1.0286420    -0.1846270
  C        3.6793340    -0.3535020     0.1683990
  C       -2.8127890     0.5150010     0.2964470
  C        1.3212360    -0.6095270     0.7211930
  C        2.0273690     1.1786660    -0.7492360
  C        2.6489240    -1.0168440     0.8468500
  C        3.3454510     0.7479200    -0.6334830
  C       -1.3791480    -1.2185740    -0.6492330
  C       -3.8612840    -0.4227650     0.3079770
  C       -2.4390410    -2.1168890    -0.6711390
  C        5.1038640    -0.8322750     0.2664150
  C       -3.6857840    -1.7096250    -0.1856360
  H        0.5383950    -1.1258400     1.2710410
  H        1.7737210     2.0503190    -1.3473030
  H        2.8902070    -1.8603380     1.4919100
  H        4.1335430     1.2826870    -1.1615780
  H       -0.4095800    -1.5185310    -1.0371660
  H       -4.8836570    -0.0954136     0.6888288
  H       -2.3031150    -3.1155080    -1.0770870
  H        5.8059070     0.0022690     0.1830070
  H        5.2850310    -1.3360150     1.2200590
  H        5.3367840    -1.5427250    -0.5345020
  H       -4.5250650    -2.4017370    -0.1822600
  H       -2.3845940     2.4838010     0.4485930
  H       -3.9825350     2.0742830     0.8527820
units angstrom
no_reorient  #important for SAPT in psi4, default
symmetry c1  #important for SAPT in psi4, default
}

set PROPERTIES_ORIGIN ["COM"]
properties('MP2/aug-cc-pvtz', properties = ['dipole'])
--------------------------------------------------------------------------

    Molecular point group: c1
  Charge       = 0
  Multiplicity = 1
  Basis Set: AUG-CC-PVTZ
    Blend: AUG-CC-PVTZ
  Basis Set: (AUG-CC-PVTZ AUX)
    Blend: AUG-CC-PVTZ-JKFIT

    Orbital Energies [Eh]
    ---------------------

    Doubly Occupied:

       1A    -20.538173     2A    -15.559952     3A    -11.338690
       4A    -11.297451     5A    -11.257434     6A    -11.253249
       7A    -11.252483     8A    -11.250699     9A    -11.246434
      10A    -11.243683    11A    -11.239508    12A    -11.239195
      13A    -11.237901    14A    -11.237760    15A    -11.233300
      16A    -11.228685    17A     -1.371226    18A     -1.226485
      19A     -1.165307    20A     -1.137300    21A     -1.069593
      22A     -1.034169    23A     -1.020644    24A     -0.995907
      25A     -0.954701    26A     -0.877167    27A     -0.838563
      28A     -0.834858    29A     -0.813067    30A     -0.765843
      31A     -0.710947    32A     -0.691668    33A     -0.686044
      34A     -0.661120    35A     -0.644671    36A     -0.635947
      37A     -0.614379    38A     -0.602472    39A     -0.597881
      40A     -0.592468    41A     -0.584546    42A     -0.582410
      43A     -0.555982    44A     -0.544825    45A     -0.532223
      46A     -0.518204    47A     -0.512253    48A     -0.503329
      49A     -0.493572    50A     -0.482068    51A     -0.452442
      52A     -0.419060    53A     -0.349996    54A     -0.343215
      55A     -0.334075    56A     -0.300601

  @DF-RHF Final Energy:  -667.27411307729187

   => Energetics <=

    Nuclear Repulsion Energy =            992.6133180685537809
    One-Electron Energy =               -2876.3632192887371275
    Two-Electron Energy =                1216.4757881428915880
    Total Energy =                       -667.2741130772917586
  Basis Set: (AUG-CC-PVTZ AUX)
    Blend: AUG-CC-PVTZ-RI
    Molecular point group: c1

    Geometry (in Angstrom), charge = 0, multiplicity = 1:

       Center              X                  Y                   Z               Mass
    ------------   -----------------  -----------------  -----------------  -----------------
         O           -0.515163329961     2.231605133423    -0.295948894228    15.994914619570
         N           -2.978287329961     1.757263133423     0.828521105772    14.003074004430
         C            1.035467670039     0.466781133423    -0.083560894228    12.000000000000
         C           -1.498310329961     0.061822133423    -0.139176894228    12.000000000000
         C           -0.353154329961     1.004551133423    -0.180967894228    12.000000000000
         C            3.713982670039    -0.377592866577     0.172058105772    12.000000000000
         C           -2.778140329961     0.490910133423     0.300106105772    12.000000000000
         C            1.355884670039    -0.633617866577     0.724852105772    12.000000000000
         C            2.062017670039     1.154575133423    -0.745576894228    12.000000000000
         C            2.683572670039    -1.040934866577     0.850509105772    12.000000000000
         C            3.380099670039     0.723829133423    -0.629823894228    12.000000000000
         C           -1.344499329961    -1.242664866577    -0.645573894228    12.000000000000
         C           -3.826635329961    -0.446855866577     0.311636105772    12.000000000000
         C           -2.404392329961    -2.140979866577    -0.667479894228    12.000000000000
         C            5.138512670039    -0.856365866577     0.270074105772    12.000000000000
         C           -3.651135329961    -1.733715866577    -0.181976894228    12.000000000000
         H            0.573043670039    -1.149930866577     1.274700105772     1.007825032230
         H            1.808369670039     2.026228133423    -1.343643894228     1.007825032230
         H            2.924855670039    -1.884428866577     1.495569105772     1.007825032230
         H            4.168191670039     1.258596133423    -1.157918894228     1.007825032230
         H           -0.374931329961    -1.542621866577    -1.033506894228     1.007825032230
         H           -4.849008329961    -0.119504466577     0.692487905772     1.007825032230
         H           -2.268466329961    -3.139598866577    -1.073427894228     1.007825032230
         H            5.840555670039    -0.021821866577     0.186666105772     1.007825032230
         H            5.319679670039    -1.360105866577     1.223718105772     1.007825032230
         H            5.371432670039    -1.566815866577    -0.530842894228     1.007825032230
         H           -4.490416329961    -2.425827866577    -0.178600894228     1.007825032230
         H           -2.349945329961     2.459710133423     0.452252105772     1.007825032230
         H           -3.947886329961     2.050192133423     0.856441105772     1.007825032230

  Basis Set: AUG-CC-PVTZ
    Blend: AUG-CC-PVTZ
  Basis Set: (AUG-CC-PVTZ AUX)
    Blend: AUG-CC-PVTZ-JKFIT
	 Reference Energy          =    -667.2741130772918723 [Eh]
	 Singles Energy            =      -0.0000000000000000 [Eh]
	 Same-Spin Energy          =      -0.7356451751943422 [Eh]
	 Opposite-Spin Energy      =      -2.2659395166718101 [Eh]
	 Correlation Energy        =      -3.0015846918661522 [Eh]
	 Total Energy              =    -670.2756977691580005 [Eh]

	 ================> DF-SCS-MP2 Energies <==================
	-----------------------------------------------------------
	 SCS Same-Spin Scale       =       0.3333333333333333 [-]
	 SCS Opposite-Spin Scale   =       1.2000000000000000 [-]
	 SCS Same-Spin Energy      =      -0.2452150583981141 [Eh]
	 SCS Opposite-Spin Energy  =      -2.7191274200061719 [Eh]
	 SCS Correlation Energy    =      -2.9643424784042858 [Eh]
	 SCS Total Energy          =    -670.2384555556961914 [Eh]
	-----------------------------------------------------------

  Dipole Moment: [D]
     X:     0.3766      Y:    -1.8215      Z:    -0.1127     Total:     1.8635

*** Psi4 exiting successfully. Buy a developer a beer!
