                               Psi4 1.4a3.dev225

  ==> Input File <==

--------------------------------------------------------------------------
#psi4
#
memory 32 gb

molecule  {
0 1
  O       -0.5498120     2.2556960    -0.2996080
  N       -3.0129360     1.7813540     0.8248620
  C        1.0008190     0.4908720    -0.0872200
  C       -1.5329590     0.0859130    -0.1428360
  C       -0.3878030     1.0286420    -0.1846270
  C        3.6793340    -0.3535020     0.1683990
  C       -2.6324709     0.4545458     0.2345554
  C        1.3212360    -0.6095270     0.7211930
  C        2.0273690     1.1786660    -0.7492360
  C        2.6489240    -1.0168440     0.8468500
  C        3.3454510     0.7479200    -0.6334830
  C       -1.3791480    -1.2185740    -0.6492330
  C       -3.8612840    -0.4227650     0.3079770
  C       -2.4390410    -2.1168890    -0.6711390
  C        5.1038640    -0.8322750     0.2664150
  C       -3.6857840    -1.7096250    -0.1856360
  H        0.5383950    -1.1258400     1.2710410
  H        1.7737210     2.0503190    -1.3473030
  H        2.8902070    -1.8603380     1.4919100
  H        4.1335430     1.2826870    -1.1615780
  H       -0.4095800    -1.5185310    -1.0371660
  H       -4.8387790    -0.1097830     0.6721110
  H       -2.3031150    -3.1155080    -1.0770870
  H        5.8059070     0.0022690     0.1830070
  H        5.2850310    -1.3360150     1.2200590
  H        5.3367840    -1.5427250    -0.5345020
  H       -4.5250650    -2.4017370    -0.1822600
  H       -2.3845940     2.4838010     0.4485930
  H       -3.9825350     2.0742830     0.8527820
units angstrom
no_reorient  #important for SAPT in psi4, default
symmetry c1  #important for SAPT in psi4, default
}

set PROPERTIES_ORIGIN ["COM"]
properties('MP2/aug-cc-pvtz', properties = ['dipole'])
--------------------------------------------------------------------------

    Molecular point group: c1
  Charge       = 0
  Multiplicity = 1
  Basis Set: AUG-CC-PVTZ
    Blend: AUG-CC-PVTZ
  Basis Set: (AUG-CC-PVTZ AUX)
    Blend: AUG-CC-PVTZ-JKFIT

    Orbital Energies [Eh]
    ---------------------

    Doubly Occupied:

       1A    -20.544451     2A    -15.545838     3A    -11.343422
       4A    -11.283958     5A    -11.259789     6A    -11.253825
       7A    -11.251462     8A    -11.249078     9A    -11.248201
      10A    -11.246915    11A    -11.246424    12A    -11.241616
      13A    -11.240066    14A    -11.235520    15A    -11.234913
      16A    -11.222102    17A     -1.376474    18A     -1.206924
      19A     -1.167456    20A     -1.130948    21A     -1.073738
      22A     -1.051481    23A     -1.024300    24A     -0.993307
      25A     -0.960105    26A     -0.875263    27A     -0.856331
      28A     -0.840583    29A     -0.807690    30A     -0.764712
      31A     -0.719319    32A     -0.682316    33A     -0.669028
      34A     -0.660130    35A     -0.648811    36A     -0.640393
      37A     -0.633275    38A     -0.602053    39A     -0.595387
      40A     -0.588924    41A     -0.585619    42A     -0.581524
      43A     -0.559393    44A     -0.546762    45A     -0.526640
      46A     -0.519885    47A     -0.514100    48A     -0.504121
      49A     -0.495720    50A     -0.481461    51A     -0.433428
      52A     -0.418844    53A     -0.362149    54A     -0.346726
      55A     -0.336430    56A     -0.308926

  @DF-RHF Final Energy:  -667.21766437127360

   => Energetics <=

    Nuclear Repulsion Energy =            995.4748365179805205
    One-Electron Energy =               -2881.9084854207094395
    Two-Electron Energy =                1219.2159845314554332
    Total Energy =                       -667.2176643712734858
  Basis Set: (AUG-CC-PVTZ AUX)
    Blend: AUG-CC-PVTZ-RI
    Molecular point group: c1

    Geometry (in Angstrom), charge = 0, multiplicity = 1:

       Center              X                  Y                   Z               Mass
    ------------   -----------------  -----------------  -----------------  -----------------
         O           -0.525627798763     2.235110321690    -0.292350841902    15.994914619570
         N           -2.988751798763     1.760768321690     0.832119158098    14.003074004430
         C            1.025003201237     0.470286321690    -0.079962841902    12.000000000000
         C           -1.508774798763     0.065327321690    -0.135578841902    12.000000000000
         C           -0.363618798763     1.008056321690    -0.177369841902    12.000000000000
         C            3.703518201237    -0.374087678310     0.175656158098    12.000000000000
         C           -2.608286698763     0.433960121690     0.241812558098    12.000000000000
         C            1.345420201237    -0.630112678310     0.728450158098    12.000000000000
         C            2.051553201237     1.158080321690    -0.741978841902    12.000000000000
         C            2.673108201237    -1.037429678310     0.854107158098    12.000000000000
         C            3.369635201237     0.727334321690    -0.626225841902    12.000000000000
         C           -1.354963798763    -1.239159678310    -0.641975841902    12.000000000000
         C           -3.837099798763    -0.443350678310     0.315234158098    12.000000000000
         C           -2.414856798763    -2.137474678310    -0.663881841902    12.000000000000
         C            5.128048201237    -0.852860678310     0.273672158098    12.000000000000
         C           -3.661599798763    -1.730210678310    -0.178378841902    12.000000000000
         H            0.562579201237    -1.146425678310     1.278298158098     1.007825032230
         H            1.797905201237     2.029733321690    -1.340045841902     1.007825032230
         H            2.914391201237    -1.880923678310     1.499167158098     1.007825032230
         H            4.157727201237     1.262101321690    -1.154320841902     1.007825032230
         H           -0.385395798763    -1.539116678310    -1.029908841902     1.007825032230
         H           -4.814594798763    -0.130368678310     0.679368158098     1.007825032230
         H           -2.278930798763    -3.136093678310    -1.069829841902     1.007825032230
         H            5.830091201237    -0.018316678310     0.190264158098     1.007825032230
         H            5.309215201237    -1.356600678310     1.227316158098     1.007825032230
         H            5.360968201237    -1.563310678310    -0.527244841902     1.007825032230
         H           -4.500880798763    -2.422322678310    -0.175002841902     1.007825032230
         H           -2.360409798763     2.463215321690     0.455850158098     1.007825032230
         H           -3.958350798763     2.053697321690     0.860039158098     1.007825032230

  Basis Set: AUG-CC-PVTZ
    Blend: AUG-CC-PVTZ
  Basis Set: (AUG-CC-PVTZ AUX)
    Blend: AUG-CC-PVTZ-JKFIT
	 Reference Energy          =    -667.2176643712735995 [Eh]
	 Singles Energy            =      -0.0000000000000000 [Eh]
	 Same-Spin Energy          =      -0.7342866225336746 [Eh]
	 Opposite-Spin Energy      =      -2.2679776322088516 [Eh]
	 Correlation Energy        =      -3.0022642547425260 [Eh]
	 Total Energy              =    -670.2199286260160989 [Eh]

	 ================> DF-SCS-MP2 Energies <==================
	-----------------------------------------------------------
	 SCS Same-Spin Scale       =       0.3333333333333333 [-]
	 SCS Opposite-Spin Scale   =       1.2000000000000000 [-]
	 SCS Same-Spin Energy      =      -0.2447622075112248 [Eh]
	 SCS Opposite-Spin Energy  =      -2.7215731586506218 [Eh]
	 SCS Correlation Energy    =      -2.9663353661618466 [Eh]
	 SCS Total Energy          =    -670.1839997374354425 [Eh]
	-----------------------------------------------------------

  Dipole Moment: [D]
     X:     0.7446      Y:    -2.3336      Z:    -0.3802     Total:     2.4789

*** Psi4 exiting successfully. Buy a developer a beer!
