                               Psi4 1.4a3.dev225

  ==> Input File <==

--------------------------------------------------------------------------
#psi4
#
memory 32 gb

molecule  {
0 1
  O       -0.5498120     2.2556960    -0.2996080
  N       -3.0129360     1.7813540     0.8248620
  C        1.0008190     0.4908720    -0.0872200
  C       -1.5329590     0.0859130    -0.1428360
  C       -0.3878030     1.0286420    -0.1846270
  C        3.6793340    -0.3535020     0.1683990
  C       -2.8127890     0.5150010     0.2964470
  C        1.3212360    -0.6095270     0.7211930
  C        2.0273690     1.1786660    -0.7492360
  C        2.6489240    -1.0168440     0.8468500
  C        3.3454510     0.7479200    -0.6334830
  C       -1.3791480    -1.2185740    -0.6492330
  C       -3.8612840    -0.4227650     0.3079770
  C       -2.4390410    -2.1168890    -0.6711390
  C        5.1038640    -0.8322750     0.2664150
  C       -3.6857840    -1.7096250    -0.1856360
  H        0.5383950    -1.1258400     1.2710410
  H        1.7970534     1.9701380    -1.2922884
  H        2.8902070    -1.8603380     1.4919100
  H        4.1335430     1.2826870    -1.1615780
  H       -0.4095800    -1.5185310    -1.0371660
  H       -4.8387790    -0.1097830     0.6721110
  H       -2.3031150    -3.1155080    -1.0770870
  H        5.8059070     0.0022690     0.1830070
  H        5.2850310    -1.3360150     1.2200590
  H        5.3367840    -1.5427250    -0.5345020
  H       -4.5250650    -2.4017370    -0.1822600
  H       -2.3845940     2.4838010     0.4485930
  H       -3.9825350     2.0742830     0.8527820
units angstrom
no_reorient  #important for SAPT in psi4, default
symmetry c1  #important for SAPT in psi4, default
}

set PROPERTIES_ORIGIN ["COM"]
properties('MP2/aug-cc-pvtz', properties = ['dipole'])
--------------------------------------------------------------------------

    Molecular point group: c1
  Charge       = 0
  Multiplicity = 1
  Basis Set: AUG-CC-PVTZ
    Blend: AUG-CC-PVTZ
  Basis Set: (AUG-CC-PVTZ AUX)
    Blend: AUG-CC-PVTZ-JKFIT

    Orbital Energies [Eh]
    ---------------------

    Doubly Occupied:

       1A    -20.538184     2A    -15.560044     3A    -11.338526
       4A    -11.296910     5A    -11.257000     6A    -11.252733
       7A    -11.252264     8A    -11.250162     9A    -11.243181
      10A    -11.239109    11A    -11.239064    12A    -11.237638
      13A    -11.234841    14A    -11.233055    15A    -11.231967
      16A    -11.228303    17A     -1.371236    18A     -1.226580
      19A     -1.165617    20A     -1.137122    21A     -1.069779
      22A     -1.035944    23A     -1.022856    24A     -0.996563
      25A     -0.954425    26A     -0.878082    27A     -0.843241
      28A     -0.836403    29A     -0.815977    30A     -0.767696
      31A     -0.713089    32A     -0.693361    33A     -0.686319
      34A     -0.664331    35A     -0.650947    36A     -0.638130
      37A     -0.614747    38A     -0.603826    39A     -0.600034
      40A     -0.597744    41A     -0.584748    42A     -0.583748
      43A     -0.556102    44A     -0.544644    45A     -0.532169
      46A     -0.518003    47A     -0.513816    48A     -0.505947
      49A     -0.496368    50A     -0.481934    51A     -0.452303
      52A     -0.418947    53A     -0.349715    54A     -0.343003
      55A     -0.333752    56A     -0.300365

  @DF-RHF Final Energy:  -667.27091200299935

   => Energetics <=

    Nuclear Repulsion Energy =            993.4343348775962568
    One-Electron Energy =               -2877.9453109396317814
    Two-Electron Energy =                1217.2400640590360581
    Total Energy =                       -667.2709120029994665
  Basis Set: (AUG-CC-PVTZ AUX)
    Blend: AUG-CC-PVTZ-RI
    Molecular point group: c1

    Geometry (in Angstrom), charge = 0, multiplicity = 1:

       Center              X                  Y                   Z               Mass
    ------------   -----------------  -----------------  -----------------  -----------------
         O           -0.515488977718     2.232056532707    -0.296131729501    15.994914619570
         N           -2.978612977718     1.757714532707     0.828338270499    14.003074004430
         C            1.035142022282     0.467232532707    -0.083743729501    12.000000000000
         C           -1.498635977718     0.062273532707    -0.139359729501    12.000000000000
         C           -0.353479977718     1.005002532707    -0.181150729501    12.000000000000
         C            3.713657022282    -0.377141467293     0.171875270499    12.000000000000
         C           -2.778465977718     0.491361532707     0.299923270499    12.000000000000
         C            1.355559022282    -0.633166467293     0.724669270499    12.000000000000
         C            2.061692022282     1.155026532707    -0.745759729501    12.000000000000
         C            2.683247022282    -1.040483467293     0.850326270499    12.000000000000
         C            3.379774022282     0.724280532707    -0.630006729501    12.000000000000
         C           -1.344824977718    -1.242213467293    -0.645756729501    12.000000000000
         C           -3.826960977718    -0.446404467293     0.311453270499    12.000000000000
         C           -2.404717977718    -2.140528467293    -0.667662729501    12.000000000000
         C            5.138187022282    -0.855914467293     0.269891270499    12.000000000000
         C           -3.651460977718    -1.733264467293    -0.182159729501    12.000000000000
         H            0.572718022282    -1.149479467293     1.274517270499     1.007825032230
         H            1.831376422282     1.946498532707    -1.288812129501     1.007825032230
         H            2.924530022282    -1.883977467293     1.495386270499     1.007825032230
         H            4.167866022282     1.259047532707    -1.158101729501     1.007825032230
         H           -0.375256977718    -1.542170467293    -1.033689729501     1.007825032230
         H           -4.804455977718    -0.133422467293     0.675587270499     1.007825032230
         H           -2.268791977718    -3.139147467293    -1.073610729501     1.007825032230
         H            5.840230022282    -0.021370467293     0.186483270499     1.007825032230
         H            5.319354022282    -1.359654467293     1.223535270499     1.007825032230
         H            5.371107022282    -1.566364467293    -0.531025729501     1.007825032230
         H           -4.490741977718    -2.425376467293    -0.178783729501     1.007825032230
         H           -2.350270977718     2.460161532707     0.452069270499     1.007825032230
         H           -3.948211977718     2.050643532707     0.856258270499     1.007825032230

  Basis Set: AUG-CC-PVTZ
    Blend: AUG-CC-PVTZ
  Basis Set: (AUG-CC-PVTZ AUX)
    Blend: AUG-CC-PVTZ-JKFIT
	 Reference Energy          =    -667.2709120029993528 [Eh]
	 Singles Energy            =      -0.0000000000000000 [Eh]
	 Same-Spin Energy          =      -0.7352468009399373 [Eh]
	 Opposite-Spin Energy      =      -2.2648446409519272 [Eh]
	 Correlation Energy        =      -3.0000914418918647 [Eh]
	 Total Energy              =    -670.2710034448912211 [Eh]

	 ================> DF-SCS-MP2 Energies <==================
	-----------------------------------------------------------
	 SCS Same-Spin Scale       =       0.3333333333333333 [-]
	 SCS Opposite-Spin Scale   =       1.2000000000000000 [-]
	 SCS Same-Spin Energy      =      -0.2450822669799791 [Eh]
	 SCS Opposite-Spin Energy  =      -2.7178135691423124 [Eh]
	 SCS Correlation Energy    =      -2.9628958361222915 [Eh]
	 SCS Total Energy          =    -670.2338078391215959 [Eh]
	-----------------------------------------------------------

  Dipole Moment: [D]
     X:     0.3554      Y:    -1.8173      Z:    -0.1109     Total:     1.8550

*** Psi4 exiting successfully. Buy a developer a beer!
