                               Psi4 1.4a3.dev225

  ==> Input File <==

--------------------------------------------------------------------------
#psi4
#
memory 32 gb

molecule  {
0 1
  O       -0.5498120     2.2556960    -0.2996080
  N       -3.0129360     1.7813540     0.8248620
  C        1.0008190     0.4908720    -0.0872200
  C       -1.5329590     0.0859130    -0.1428360
  C       -0.3878030     1.0286420    -0.1846270
  C        3.6793340    -0.3535020     0.1683990
  C       -2.8127890     0.5150010     0.2964470
  C        1.3212360    -0.6095270     0.7211930
  C        2.0273690     1.1786660    -0.7492360
  C        2.6679666    -1.0226860     0.8486523
  C        3.3454510     0.7479200    -0.6334830
  C       -1.3791480    -1.2185740    -0.6492330
  C       -3.8612840    -0.4227650     0.3079770
  C       -2.4390410    -2.1168890    -0.6711390
  C        5.1038640    -0.8322750     0.2664150
  C       -3.6857840    -1.7096250    -0.1856360
  H        0.5383950    -1.1258400     1.2710410
  H        1.7737210     2.0503190    -1.3473030
  H        2.8902070    -1.8603380     1.4919100
  H        4.1335430     1.2826870    -1.1615780
  H       -0.4095800    -1.5185310    -1.0371660
  H       -4.8387790    -0.1097830     0.6721110
  H       -2.3031150    -3.1155080    -1.0770870
  H        5.8059070     0.0022690     0.1830070
  H        5.2850310    -1.3360150     1.2200590
  H        5.3367840    -1.5427250    -0.5345020
  H       -4.5250650    -2.4017370    -0.1822600
  H       -2.3845940     2.4838010     0.4485930
  H       -3.9825350     2.0742830     0.8527820
units angstrom
no_reorient  #important for SAPT in psi4, default
symmetry c1  #important for SAPT in psi4, default
}

set PROPERTIES_ORIGIN ["COM"]
properties('MP2/aug-cc-pvtz', properties = ['dipole'])
--------------------------------------------------------------------------

    Molecular point group: c1
  Charge       = 0
  Multiplicity = 1
  Basis Set: AUG-CC-PVTZ
    Blend: AUG-CC-PVTZ
  Basis Set: (AUG-CC-PVTZ AUX)
    Blend: AUG-CC-PVTZ-JKFIT

    Orbital Energies [Eh]
    ---------------------

    Doubly Occupied:

       1A    -20.538263     2A    -15.560116     3A    -11.338721
       4A    -11.296996     5A    -11.256038     6A    -11.253047
       7A    -11.252807     8A    -11.252312     9A    -11.246338
      10A    -11.243873    11A    -11.239257    12A    -11.239224
      13A    -11.237951    14A    -11.232469    15A    -11.232035
      16A    -11.228357    17A     -1.371311    18A     -1.226654
      19A     -1.164539    20A     -1.137195    21A     -1.070276
      22A     -1.034907    23A     -1.018392    24A     -0.996608
      25A     -0.954006    26A     -0.877003    27A     -0.840375
      28A     -0.836559    29A     -0.812935    30A     -0.766257
      31A     -0.712882    32A     -0.691688    33A     -0.686324
      34A     -0.660555    35A     -0.645042    36A     -0.637679
      37A     -0.614210    38A     -0.603861    39A     -0.600804
      40A     -0.592574    41A     -0.584759    42A     -0.583674
      43A     -0.555890    44A     -0.544039    45A     -0.531868
      46A     -0.517459    47A     -0.512217    48A     -0.503927
      49A     -0.496326    50A     -0.481632    51A     -0.452368
      52A     -0.418967    53A     -0.349501    54A     -0.341176
      55A     -0.335665    56A     -0.300444

  @DF-RHF Final Energy:  -667.27607410390374

   => Energetics <=

    Nuclear Repulsion Energy =            992.6504610884884414
    One-Electron Energy =               -2876.4323628344013741
    Two-Electron Energy =                1216.5058276420090806
    Total Energy =                       -667.2760741039037384
  Basis Set: (AUG-CC-PVTZ AUX)
    Blend: AUG-CC-PVTZ-RI
    Molecular point group: c1

    Geometry (in Angstrom), charge = 0, multiplicity = 1:

       Center              X                  Y                   Z               Mass
    ------------   -----------------  -----------------  -----------------  -----------------
         O           -0.516460064885     2.232005824828    -0.295971532737    15.994914619570
         N           -2.979584064885     1.757663824828     0.828498467263    14.003074004430
         C            1.034170935115     0.467181824828    -0.083583532737    12.000000000000
         C           -1.499607064885     0.062222824828    -0.139199532737    12.000000000000
         C           -0.354451064885     1.004951824828    -0.180990532737    12.000000000000
         C            3.712685935115    -0.377192175172     0.172035467263    12.000000000000
         C           -2.779437064885     0.491310824828     0.300083467263    12.000000000000
         C            1.354587935115    -0.633217175172     0.724829467263    12.000000000000
         C            2.060720935115     1.154975824828    -0.745599532737    12.000000000000
         C            2.701318535115    -1.046376175172     0.852288767263    12.000000000000
         C            3.378802935115     0.724229824828    -0.629846532737    12.000000000000
         C           -1.345796064885    -1.242264175172    -0.645596532737    12.000000000000
         C           -3.827932064885    -0.446455175172     0.311613467263    12.000000000000
         C           -2.405689064885    -2.140579175172    -0.667502532737    12.000000000000
         C            5.137215935115    -0.855965175172     0.270051467263    12.000000000000
         C           -3.652432064885    -1.733315175172    -0.181999532737    12.000000000000
         H            0.571746935115    -1.149530175172     1.274677467263     1.007825032230
         H            1.807072935115     2.026628824828    -1.343666532737     1.007825032230
         H            2.923558935115    -1.884028175172     1.495546467263     1.007825032230
         H            4.166894935115     1.258996824828    -1.157941532737     1.007825032230
         H           -0.376228064885    -1.542221175172    -1.033529532737     1.007825032230
         H           -4.805427064885    -0.133473175172     0.675747467263     1.007825032230
         H           -2.269763064885    -3.139198175172    -1.073450532737     1.007825032230
         H            5.839258935115    -0.021421175172     0.186643467263     1.007825032230
         H            5.318382935115    -1.359705175172     1.223695467263     1.007825032230
         H            5.370135935115    -1.566415175172    -0.530865532737     1.007825032230
         H           -4.491713064885    -2.425427175172    -0.178623532737     1.007825032230
         H           -2.351242064885     2.460110824828     0.452229467263     1.007825032230
         H           -3.949183064885     2.050592824828     0.856418467263     1.007825032230

  Basis Set: AUG-CC-PVTZ
    Blend: AUG-CC-PVTZ
  Basis Set: (AUG-CC-PVTZ AUX)
    Blend: AUG-CC-PVTZ-JKFIT
	 Reference Energy          =    -667.2760741039037384 [Eh]
	 Singles Energy            =      -0.0000000000000000 [Eh]
	 Same-Spin Energy          =      -0.7354766188208323 [Eh]
	 Opposite-Spin Energy      =      -2.2655751480370419 [Eh]
	 Correlation Energy        =      -3.0010517668578740 [Eh]
	 Total Energy              =    -670.2771258707616653 [Eh]

	 ================> DF-SCS-MP2 Energies <==================
	-----------------------------------------------------------
	 SCS Same-Spin Scale       =       0.3333333333333333 [-]
	 SCS Opposite-Spin Scale   =       1.2000000000000000 [-]
	 SCS Same-Spin Energy      =      -0.2451588729402774 [Eh]
	 SCS Opposite-Spin Energy  =      -2.7186901776444503 [Eh]
	 SCS Correlation Energy    =      -2.9638490505847277 [Eh]
	 SCS Total Energy          =    -670.2399231544884515 [Eh]
	-----------------------------------------------------------

  Dipole Moment: [D]
     X:     0.3336      Y:    -1.8163      Z:    -0.1017     Total:     1.8495

*** Psi4 exiting successfully. Buy a developer a beer!
