                               Psi4 1.4a3.dev225

  ==> Input File <==

--------------------------------------------------------------------------
#psi4
#
memory 32 gb

molecule  {
0 1
  O       -0.5498120     2.2556960    -0.2996080
  N       -3.0129360     1.7813540     0.8248620
  C        1.0008190     0.4908720    -0.0872200
  C       -1.5329590     0.0859130    -0.1428360
  C       -0.3878030     1.0286420    -0.1846270
  C        3.6793340    -0.3535020     0.1683990
  C       -2.8127890     0.5150010     0.2964470
  C        1.3212360    -0.6095270     0.7211930
  C        2.0273690     1.1786660    -0.7492360
  C        2.6489240    -1.0168440     0.8468500
  C        3.3454510     0.7479200    -0.6334830
  C       -1.3791480    -1.2185740    -0.6492330
  C       -3.8612840    -0.4227650     0.3079770
  C       -2.4390410    -2.1168890    -0.6711390
  C        5.1038640    -0.8322750     0.2664150
  C       -3.6857840    -1.7096250    -0.1856360
  H        0.5383950    -1.1258400     1.2710410
  H        1.7737210     2.0503190    -1.3473030
  H        2.8902070    -1.8603380     1.4919100
  H        4.1335430     1.2826870    -1.1615780
  H       -0.4095800    -1.5185310    -1.0371660
  H       -4.8387790    -0.1097830     0.6721110
  H       -2.3031150    -3.1155080    -1.0770870
  H        5.7580630     0.0245095     0.0814045
  H        5.2850310    -1.3360150     1.2200590
  H        5.3367840    -1.5427250    -0.5345020
  H       -4.5250650    -2.4017370    -0.1822600
  H       -2.3845940     2.4838010     0.4485930
  H       -3.9825350     2.0742830     0.8527820
units angstrom
no_reorient  #important for SAPT in psi4, default
symmetry c1  #important for SAPT in psi4, default
}

set PROPERTIES_ORIGIN ["COM"]
properties('MP2/aug-cc-pvtz', properties = ['dipole'])
--------------------------------------------------------------------------

    Molecular point group: c1
  Charge       = 0
  Multiplicity = 1
  Basis Set: AUG-CC-PVTZ
    Blend: AUG-CC-PVTZ
  Basis Set: (AUG-CC-PVTZ AUX)
    Blend: AUG-CC-PVTZ-JKFIT

    Orbital Energies [Eh]
    ---------------------

    Doubly Occupied:

       1A    -20.537876     2A    -15.559965     3A    -11.338374
       4A    -11.296837     5A    -11.256969     6A    -11.252673
       7A    -11.252195     8A    -11.250566     9A    -11.246448
      10A    -11.243337    11A    -11.239045    12A    -11.238721
      13A    -11.237822    14A    -11.233672    15A    -11.231913
      16A    -11.228251    17A     -1.370956    18A     -1.226501
      19A     -1.165244    20A     -1.137061    21A     -1.069945
      22A     -1.034642    23A     -1.020659    24A     -0.996503
      25A     -0.954724    26A     -0.876742    27A     -0.839101
      28A     -0.836319    29A     -0.812828    30A     -0.766100
      31A     -0.712705    32A     -0.691543    33A     -0.686142
      34A     -0.661542    35A     -0.645932    36A     -0.636658
      37A     -0.614469    38A     -0.603691    39A     -0.599727
      40A     -0.592776    41A     -0.584676    42A     -0.578043
      43A     -0.560677    44A     -0.547077    45A     -0.532412
      46A     -0.516728    47A     -0.512703    48A     -0.504865
      49A     -0.494204    50A     -0.481112    51A     -0.452230
      52A     -0.418800    53A     -0.349679    54A     -0.343131
      55A     -0.333300    56A     -0.300298

  @DF-RHF Final Energy:  -667.27531474574300

   => Energetics <=

    Nuclear Repulsion Energy =            993.0107129045139800
    One-Electron Energy =               -2877.1578422941915960
    Two-Electron Energy =                1216.8718146439346128
    Total Energy =                       -667.2753147457428895
  Basis Set: (AUG-CC-PVTZ AUX)
    Blend: AUG-CC-PVTZ-RI
    Molecular point group: c1

    Geometry (in Angstrom), charge = 0, multiplicity = 1:

       Center              X                  Y                   Z               Mass
    ------------   -----------------  -----------------  -----------------  -----------------
         O           -0.515149169785     2.231567555486    -0.295384013500    15.994914619570
         N           -2.978273169785     1.757225555486     0.829085986500    14.003074004430
         C            1.035481830215     0.466743555486    -0.082996013500    12.000000000000
         C           -1.498296169785     0.061784555486    -0.138612013500    12.000000000000
         C           -0.353140169785     1.004513555486    -0.180403013500    12.000000000000
         C            3.713996830215    -0.377630444514     0.172622986500    12.000000000000
         C           -2.778126169785     0.490872555486     0.300670986500    12.000000000000
         C            1.355898830215    -0.633655444514     0.725416986500    12.000000000000
         C            2.062031830215     1.154537555486    -0.745012013500    12.000000000000
         C            2.683586830215    -1.040972444514     0.851073986500    12.000000000000
         C            3.380113830215     0.723791555486    -0.629259013500    12.000000000000
         C           -1.344485169785    -1.242702444514    -0.645009013500    12.000000000000
         C           -3.826621169785    -0.446893444514     0.312200986500    12.000000000000
         C           -2.404378169785    -2.141017444514    -0.666915013500    12.000000000000
         C            5.138526830215    -0.856403444514     0.270638986500    12.000000000000
         C           -3.651121169785    -1.733753444514    -0.181412013500    12.000000000000
         H            0.573057830215    -1.149968444514     1.275264986500     1.007825032230
         H            1.808383830215     2.026190555486    -1.343079013500     1.007825032230
         H            2.924869830215    -1.884466444514     1.496133986500     1.007825032230
         H            4.168205830215     1.258558555486    -1.157354013500     1.007825032230
         H           -0.374917169785    -1.542659444514    -1.032942013500     1.007825032230
         H           -4.804116169785    -0.133911444514     0.676334986500     1.007825032230
         H           -2.268452169785    -3.139636444514    -1.072863013500     1.007825032230
         H            5.792725830215     0.000381055486     0.085628486500     1.007825032230
         H            5.319693830215    -1.360143444514     1.224282986500     1.007825032230
         H            5.371446830215    -1.566853444514    -0.530278013500     1.007825032230
         H           -4.490402169785    -2.425865444514    -0.178036013500     1.007825032230
         H           -2.349931169785     2.459672555486     0.452816986500     1.007825032230
         H           -3.947872169785     2.050154555486     0.857005986500     1.007825032230

  Basis Set: AUG-CC-PVTZ
    Blend: AUG-CC-PVTZ
  Basis Set: (AUG-CC-PVTZ AUX)
    Blend: AUG-CC-PVTZ-JKFIT
	 Reference Energy          =    -667.2753147457430032 [Eh]
	 Singles Energy            =      -0.0000000000000000 [Eh]
	 Same-Spin Energy          =      -0.7356323556915116 [Eh]
	 Opposite-Spin Energy      =      -2.2656368074630664 [Eh]
	 Correlation Energy        =      -3.0012691631545780 [Eh]
	 Total Energy              =    -670.2765839088975781 [Eh]

	 ================> DF-SCS-MP2 Energies <==================
	-----------------------------------------------------------
	 SCS Same-Spin Scale       =       0.3333333333333333 [-]
	 SCS Opposite-Spin Scale   =       1.2000000000000000 [-]
	 SCS Same-Spin Energy      =      -0.2452107852305039 [Eh]
	 SCS Opposite-Spin Energy  =      -2.7187641689556794 [Eh]
	 SCS Correlation Energy    =      -2.9639749541861833 [Eh]
	 SCS Total Energy          =    -670.2392896999291452 [Eh]
	-----------------------------------------------------------

  Dipole Moment: [D]
     X:     0.3513      Y:    -1.8314      Z:    -0.1328     Total:     1.8695

*** Psi4 exiting successfully. Buy a developer a beer!
