                               Psi4 1.4a3.dev225

  ==> Input File <==

--------------------------------------------------------------------------
#psi4
#
memory 32 gb

molecule  {
0 1
  O       -0.5498120     2.2556960    -0.2996080
  N       -3.0129360     1.7813540     0.8248620
  C        1.0008190     0.4908720    -0.0872200
  C       -1.5329590     0.0859130    -0.1428360
  C       -0.3878030     1.0286420    -0.1846270
  C        3.6793340    -0.3535020     0.1683990
  C       -2.8366606     0.5128634     0.2930822
  C        1.3212360    -0.6095270     0.7211930
  C        2.0273690     1.1786660    -0.7492360
  C        2.6489240    -1.0168440     0.8468500
  C        3.3454510     0.7479200    -0.6334830
  C       -1.3791480    -1.2185740    -0.6492330
  C       -3.8612840    -0.4227650     0.3079770
  C       -2.4390410    -2.1168890    -0.6711390
  C        5.1038640    -0.8322750     0.2664150
  C       -3.6857840    -1.7096250    -0.1856360
  H        0.5383950    -1.1258400     1.2710410
  H        1.7737210     2.0503190    -1.3473030
  H        2.8902070    -1.8603380     1.4919100
  H        4.1335430     1.2826870    -1.1615780
  H       -0.4095800    -1.5185310    -1.0371660
  H       -4.8387790    -0.1097830     0.6721110
  H       -2.3031150    -3.1155080    -1.0770870
  H        5.8059070     0.0022690     0.1830070
  H        5.2850310    -1.3360150     1.2200590
  H        5.3367840    -1.5427250    -0.5345020
  H       -4.5250650    -2.4017370    -0.1822600
  H       -2.3845940     2.4838010     0.4485930
  H       -3.9825350     2.0742830     0.8527820
units angstrom
no_reorient  #important for SAPT in psi4, default
symmetry c1  #important for SAPT in psi4, default
}

set PROPERTIES_ORIGIN ["COM"]
properties('MP2/aug-cc-pvtz', properties = ['dipole'])
--------------------------------------------------------------------------

    Molecular point group: c1
  Charge       = 0
  Multiplicity = 1
  Basis Set: AUG-CC-PVTZ
    Blend: AUG-CC-PVTZ
  Basis Set: (AUG-CC-PVTZ AUX)
    Blend: AUG-CC-PVTZ-JKFIT

    Orbital Energies [Eh]
    ---------------------

    Doubly Occupied:

       1A    -20.537699     2A    -15.559852     3A    -11.338515
       4A    -11.296475     5A    -11.257274     6A    -11.253618
       7A    -11.252629     8A    -11.250484     9A    -11.246270
      10A    -11.243569    11A    -11.240911    12A    -11.239026
      13A    -11.237759    14A    -11.233191    15A    -11.229744
      16A    -11.228413    17A     -1.370735    18A     -1.226581
      19A     -1.165124    20A     -1.137154    21A     -1.069593
      22A     -1.034295    23A     -1.020496    24A     -0.997691
      25A     -0.954245    26A     -0.878169    27A     -0.838397
      28A     -0.834770    29A     -0.813421    30A     -0.766341
      31A     -0.712279    32A     -0.691927    33A     -0.686576
      34A     -0.661515    35A     -0.644778    36A     -0.636492
      37A     -0.611182    38A     -0.606301    39A     -0.599742
      40A     -0.592583    41A     -0.584589    42A     -0.583691
      43A     -0.555738    44A     -0.544704    45A     -0.533328
      46A     -0.518302    47A     -0.512738    48A     -0.503103
      49A     -0.493431    50A     -0.482020    51A     -0.452599
      52A     -0.419109    53A     -0.349700    54A     -0.342940
      55A     -0.333908    56A     -0.300598

  @DF-RHF Final Energy:  -667.27572605248190

   => Energetics <=

    Nuclear Repulsion Energy =            992.6513270341065436
    One-Electron Energy =               -2876.4414814692258915
    Two-Electron Energy =                1216.5144283826373339
    Total Energy =                       -667.2757260524820140
  Basis Set: (AUG-CC-PVTZ AUX)
    Blend: AUG-CC-PVTZ-RI
    Molecular point group: c1

    Geometry (in Angstrom), charge = 0, multiplicity = 1:

       Center              X                  Y                   Z               Mass
    ------------   -----------------  -----------------  -----------------  -----------------
         O           -0.514020599714     2.231795247565    -0.295677808038    15.994914619570
         N           -2.977144599714     1.757453247565     0.828792191962    14.003074004430
         C            1.036610400286     0.466971247565    -0.083289808038    12.000000000000
         C           -1.497167599714     0.062012247565    -0.138905808038    12.000000000000
         C           -0.352011599714     1.004741247565    -0.180696808038    12.000000000000
         C            3.715125400286    -0.377402752435     0.172329191962    12.000000000000
         C           -2.800869199714     0.488962647565     0.297012391962    12.000000000000
         C            1.357027400286    -0.633427752435     0.725123191962    12.000000000000
         C            2.063160400286     1.154765247565    -0.745305808038    12.000000000000
         C            2.684715400286    -1.040744752435     0.850780191962    12.000000000000
         C            3.381242400286     0.724019247565    -0.629552808038    12.000000000000
         C           -1.343356599714    -1.242474752435    -0.645302808038    12.000000000000
         C           -3.825492599714    -0.446665752435     0.311907191962    12.000000000000
         C           -2.403249599714    -2.140789752435    -0.667208808038    12.000000000000
         C            5.139655400286    -0.856175752435     0.270345191962    12.000000000000
         C           -3.649992599714    -1.733525752435    -0.181705808038    12.000000000000
         H            0.574186400286    -1.149740752435     1.274971191962     1.007825032230
         H            1.809512400286     2.026418247565    -1.343372808038     1.007825032230
         H            2.925998400286    -1.884238752435     1.495840191962     1.007825032230
         H            4.169334400286     1.258786247565    -1.157647808038     1.007825032230
         H           -0.373788599714    -1.542431752435    -1.033235808038     1.007825032230
         H           -4.802987599714    -0.133683752435     0.676041191962     1.007825032230
         H           -2.267323599714    -3.139408752435    -1.073156808038     1.007825032230
         H            5.841698400286    -0.021631752435     0.186937191962     1.007825032230
         H            5.320822400286    -1.359915752435     1.223989191962     1.007825032230
         H            5.372575400286    -1.566625752435    -0.530571808038     1.007825032230
         H           -4.489273599714    -2.425637752435    -0.178329808038     1.007825032230
         H           -2.348802599714     2.459900247565     0.452523191962     1.007825032230
         H           -3.946743599714     2.050382247565     0.856712191962     1.007825032230

  Basis Set: AUG-CC-PVTZ
    Blend: AUG-CC-PVTZ
  Basis Set: (AUG-CC-PVTZ AUX)
    Blend: AUG-CC-PVTZ-JKFIT
	 Reference Energy          =    -667.2757260524819003 [Eh]
	 Singles Energy            =      -0.0000000000000000 [Eh]
	 Same-Spin Energy          =      -0.7355862989781998 [Eh]
	 Opposite-Spin Energy      =      -2.2655549116816127 [Eh]
	 Correlation Energy        =      -3.0011412106598128 [Eh]
	 Total Energy              =    -670.2768672631417530 [Eh]

	 ================> DF-SCS-MP2 Energies <==================
	-----------------------------------------------------------
	 SCS Same-Spin Scale       =       0.3333333333333333 [-]
	 SCS Opposite-Spin Scale   =       1.2000000000000000 [-]
	 SCS Same-Spin Energy      =      -0.2451954329927333 [Eh]
	 SCS Opposite-Spin Energy  =      -2.7186658940179353 [Eh]
	 SCS Correlation Energy    =      -2.9638613270106684 [Eh]
	 SCS Total Energy          =    -670.2395873794926047 [Eh]
	-----------------------------------------------------------

  Dipole Moment: [D]
     X:     0.3546      Y:    -1.8291      Z:    -0.1117     Total:     1.8664

*** Psi4 exiting successfully. Buy a developer a beer!
