                               Psi4 1.4a3.dev225

  ==> Input File <==

--------------------------------------------------------------------------
#psi4
#
memory 32 gb

molecule  {
0 1
  O       -0.5498120     2.2556960    -0.2996080
  N       -3.0129360     1.7813540     0.8248620
  C        1.0008190     0.4908720    -0.0872200
  C       -1.3907575     0.1069344    -0.1752343
  C       -0.3878030     1.0286420    -0.1846270
  C        3.6793340    -0.3535020     0.1683990
  C       -2.8127890     0.5150010     0.2964470
  C        1.3212360    -0.6095270     0.7211930
  C        2.0273690     1.1786660    -0.7492360
  C        2.6489240    -1.0168440     0.8468500
  C        3.3454510     0.7479200    -0.6334830
  C       -1.3791480    -1.2185740    -0.6492330
  C       -3.8612840    -0.4227650     0.3079770
  C       -2.4390410    -2.1168890    -0.6711390
  C        5.1038640    -0.8322750     0.2664150
  C       -3.6857840    -1.7096250    -0.1856360
  H        0.5383950    -1.1258400     1.2710410
  H        1.7737210     2.0503190    -1.3473030
  H        2.8902070    -1.8603380     1.4919100
  H        4.1335430     1.2826870    -1.1615780
  H       -0.4095800    -1.5185310    -1.0371660
  H       -4.8387790    -0.1097830     0.6721110
  H       -2.3031150    -3.1155080    -1.0770870
  H        5.8059070     0.0022690     0.1830070
  H        5.2850310    -1.3360150     1.2200590
  H        5.3367840    -1.5427250    -0.5345020
  H       -4.5250650    -2.4017370    -0.1822600
  H       -2.3845940     2.4838010     0.4485930
  H       -3.9825350     2.0742830     0.8527820
units angstrom
no_reorient  #important for SAPT in psi4, default
symmetry c1  #important for SAPT in psi4, default
}

set PROPERTIES_ORIGIN ["COM"]
properties('MP2/aug-cc-pvtz', properties = ['dipole'])
--------------------------------------------------------------------------

    Molecular point group: c1
  Charge       = 0
  Multiplicity = 1
  Basis Set: AUG-CC-PVTZ
    Blend: AUG-CC-PVTZ
  Basis Set: (AUG-CC-PVTZ AUX)
    Blend: AUG-CC-PVTZ-JKFIT

    Orbital Energies [Eh]
    ---------------------

    Doubly Occupied:

       1A    -20.528603     2A    -15.567756     3A    -11.324617
       4A    -11.316656     5A    -11.263374     6A    -11.261282
       7A    -11.254042     8A    -11.247019     9A    -11.242039
      10A    -11.241069    11A    -11.238023    12A    -11.236308
      13A    -11.234853    14A    -11.232954    15A    -11.231048
      16A    -11.230022    17A     -1.366514    18A     -1.226964
      19A     -1.162869    20A     -1.137693    21A     -1.075683
      22A     -1.040170    23A     -1.017832    24A     -0.996354
      25A     -0.950550    26A     -0.894202    27A     -0.835193
      28A     -0.827115    29A     -0.814410    30A     -0.767688
      31A     -0.713087    32A     -0.702059    33A     -0.689977
      34A     -0.660285    35A     -0.642868    36A     -0.635184
      37A     -0.612195    38A     -0.606616    39A     -0.599364
      40A     -0.589293    41A     -0.582108    42A     -0.580765
      43A     -0.554451    44A     -0.544221    45A     -0.538712
      46A     -0.514853    47A     -0.510368    48A     -0.491488
      49A     -0.489716    50A     -0.476901    51A     -0.456114
      52A     -0.419393    53A     -0.355031    54A     -0.340663
      55A     -0.330837    56A     -0.296371

  @DF-RHF Final Energy:  -667.24959651205177

   => Energetics <=

    Nuclear Repulsion Energy =            993.2893395569303721
    One-Electron Energy =               -2877.6862278432336097
    Two-Electron Energy =                1217.1472917742514710
    Total Energy =                       -667.2495965120517667
  Basis Set: (AUG-CC-PVTZ AUX)
    Blend: AUG-CC-PVTZ-RI
    Molecular point group: c1

    Geometry (in Angstrom), charge = 0, multiplicity = 1:

       Center              X                  Y                   Z               Mass
    ------------   -----------------  -----------------  -----------------  -----------------
         O           -0.523461053999     2.230478770177    -0.294027393675    15.994914619570
         N           -2.986585053999     1.756136770177     0.830442606325    14.003074004430
         C            1.027169946001     0.465654770177    -0.081639393675    12.000000000000
         C           -1.364406553999     0.081717170177    -0.169653693675    12.000000000000
         C           -0.361452053999     1.003424770177    -0.179046393675    12.000000000000
         C            3.705684946001    -0.378719229823     0.173979606325    12.000000000000
         C           -2.786438053999     0.489783770177     0.302027606325    12.000000000000
         C            1.347586946001    -0.634744229823     0.726773606325    12.000000000000
         C            2.053719946001     1.153448770177    -0.743655393675    12.000000000000
         C            2.675274946001    -1.042061229823     0.852430606325    12.000000000000
         C            3.371801946001     0.722702770177    -0.627902393675    12.000000000000
         C           -1.352797053999    -1.243791229823    -0.643652393675    12.000000000000
         C           -3.834933053999    -0.447982229823     0.313557606325    12.000000000000
         C           -2.412690053999    -2.142106229823    -0.665558393675    12.000000000000
         C            5.130214946001    -0.857492229823     0.271995606325    12.000000000000
         C           -3.659433053999    -1.734842229823    -0.180055393675    12.000000000000
         H            0.564745946001    -1.151057229823     1.276621606325     1.007825032230
         H            1.800071946001     2.025101770177    -1.341722393675     1.007825032230
         H            2.916557946001    -1.885555229823     1.497490606325     1.007825032230
         H            4.159893946001     1.257469770177    -1.155997393675     1.007825032230
         H           -0.383229053999    -1.543748229823    -1.031585393675     1.007825032230
         H           -4.812428053999    -0.135000229823     0.677691606325     1.007825032230
         H           -2.276764053999    -3.140725229823    -1.071506393675     1.007825032230
         H            5.832257946001    -0.022948229823     0.188587606325     1.007825032230
         H            5.311381946001    -1.361232229823     1.225639606325     1.007825032230
         H            5.363134946001    -1.567942229823    -0.528921393675     1.007825032230
         H           -4.498714053999    -2.426954229823    -0.176679393675     1.007825032230
         H           -2.358243053999     2.458583770177     0.454173606325     1.007825032230
         H           -3.956184053999     2.049065770177     0.858362606325     1.007825032230

  Basis Set: AUG-CC-PVTZ
    Blend: AUG-CC-PVTZ
  Basis Set: (AUG-CC-PVTZ AUX)
    Blend: AUG-CC-PVTZ-JKFIT
	 Reference Energy          =    -667.2495965120517667 [Eh]
	 Singles Energy            =      -0.0000000000000000 [Eh]
	 Same-Spin Energy          =      -0.7369623502394631 [Eh]
	 Opposite-Spin Energy      =      -2.2678845179055616 [Eh]
	 Correlation Energy        =      -3.0048468681450249 [Eh]
	 Total Energy              =    -670.2544433801967898 [Eh]

	 ================> DF-SCS-MP2 Energies <==================
	-----------------------------------------------------------
	 SCS Same-Spin Scale       =       0.3333333333333333 [-]
	 SCS Opposite-Spin Scale   =       1.2000000000000000 [-]
	 SCS Same-Spin Energy      =      -0.2456541167464877 [Eh]
	 SCS Opposite-Spin Energy  =      -2.7214614214866737 [Eh]
	 SCS Correlation Energy    =      -2.9671155382331613 [Eh]
	 SCS Total Energy          =    -670.2167120502849684 [Eh]
	-----------------------------------------------------------

  Dipole Moment: [D]
     X:    -0.2348      Y:    -1.9199      Z:    -0.0146     Total:     1.9343

*** Psi4 exiting successfully. Buy a developer a beer!
