                               Psi4 1.4a3.dev225

  ==> Input File <==

--------------------------------------------------------------------------
#psi4
#
memory 32 gb

molecule  {
0 1
  O       -0.5498120     2.2556960    -0.2996080
  N       -3.0129360     1.7813540     0.8248620
  C        1.0008190     0.4908720    -0.0872200
  C       -1.5329590     0.0859130    -0.1428360
  C       -0.3878030     1.0286420    -0.1846270
  C        3.6793340    -0.3535020     0.1683990
  C       -2.8127890     0.5150010     0.2964470
  C        1.3212360    -0.6095270     0.7211930
  C        2.0273690     1.1786660    -0.7492360
  C        2.6489240    -1.0168440     0.8468500
  C        3.3454510     0.7479200    -0.6334830
  C       -1.3791480    -1.2185740    -0.6492330
  C       -3.8612840    -0.4227650     0.3079770
  C       -2.4390410    -2.1168890    -0.6711390
  C        5.1038640    -0.8322750     0.2664150
  C       -3.6412113    -1.7241852    -0.2029934
  H        0.5383950    -1.1258400     1.2710410
  H        1.7737210     2.0503190    -1.3473030
  H        2.8902070    -1.8603380     1.4919100
  H        4.1335430     1.2826870    -1.1615780
  H       -0.4095800    -1.5185310    -1.0371660
  H       -4.8387790    -0.1097830     0.6721110
  H       -2.3031150    -3.1155080    -1.0770870
  H        5.8059070     0.0022690     0.1830070
  H        5.2850310    -1.3360150     1.2200590
  H        5.3367840    -1.5427250    -0.5345020
  H       -4.5250650    -2.4017370    -0.1822600
  H       -2.3845940     2.4838010     0.4485930
  H       -3.9825350     2.0742830     0.8527820
units angstrom
no_reorient  #important for SAPT in psi4, default
symmetry c1  #important for SAPT in psi4, default
}

set PROPERTIES_ORIGIN ["COM"]
properties('MP2/aug-cc-pvtz', properties = ['dipole'])
--------------------------------------------------------------------------

    Molecular point group: c1
  Charge       = 0
  Multiplicity = 1
  Basis Set: AUG-CC-PVTZ
    Blend: AUG-CC-PVTZ
  Basis Set: (AUG-CC-PVTZ AUX)
    Blend: AUG-CC-PVTZ-JKFIT

    Orbital Energies [Eh]
    ---------------------

    Doubly Occupied:

       1A    -20.538756     2A    -15.558190     3A    -11.339241
       4A    -11.294688     5A    -11.257741     6A    -11.254332
       7A    -11.251225     8A    -11.251029     9A    -11.246757
      10A    -11.244042    11A    -11.240718    12A    -11.239492
      13A    -11.238204    14A    -11.233533    15A    -11.231786
      16A    -11.223971    17A     -1.371731    18A     -1.225325
      19A     -1.165684    20A     -1.140775    21A     -1.070129
      22A     -1.033841    23A     -1.020853    24A     -0.998522
      25A     -0.954906    26A     -0.876886    27A     -0.839982
      28A     -0.837769    29A     -0.811282    30A     -0.766252
      31A     -0.713583    32A     -0.690395    33A     -0.683901
      34A     -0.661497    35A     -0.645824    36A     -0.637102
      37A     -0.616317    38A     -0.603141    39A     -0.599939
      40A     -0.593191    41A     -0.585226    42A     -0.584024
      43A     -0.556129    44A     -0.544106    45A     -0.524733
      46A     -0.518027    47A     -0.515307    48A     -0.506543
      49A     -0.493899    50A     -0.482499    51A     -0.455103
      52A     -0.419287    53A     -0.347813    54A     -0.342787
      55A     -0.334363    56A     -0.302829

  @DF-RHF Final Energy:  -667.27334228046197

   => Energetics <=

    Nuclear Repulsion Energy =            993.4411585187697256
    One-Electron Energy =               -2877.9985882553828560
    Two-Electron Energy =                1217.2840874561511555
    Total Energy =                       -667.2733422804619750
  Basis Set: (AUG-CC-PVTZ AUX)
    Blend: AUG-CC-PVTZ-RI
    Molecular point group: c1

    Geometry (in Angstrom), charge = 0, multiplicity = 1:

       Center              X                  Y                   Z               Mass
    ------------   -----------------  -----------------  -----------------  -----------------
         O           -0.517911327865     2.232501412425    -0.294882396255    15.994914619570
         N           -2.981035327865     1.758159412425     0.829587603745    14.003074004430
         C            1.032719672135     0.467677412425    -0.082494396255    12.000000000000
         C           -1.501058327865     0.062718412425    -0.138110396255    12.000000000000
         C           -0.355902327865     1.005447412425    -0.179901396255    12.000000000000
         C            3.711234672135    -0.376696587575     0.173124603745    12.000000000000
         C           -2.780888327865     0.491806412425     0.301172603745    12.000000000000
         C            1.353136672135    -0.632721587575     0.725918603745    12.000000000000
         C            2.059269672135     1.155471412425    -0.744510396255    12.000000000000
         C            2.680824672135    -1.040038587575     0.851575603745    12.000000000000
         C            3.377351672135     0.724725412425    -0.628757396255    12.000000000000
         C           -1.347247327865    -1.241768587575    -0.644507396255    12.000000000000
         C           -3.829383327865    -0.445959587575     0.312702603745    12.000000000000
         C           -2.407140327865    -2.140083587575    -0.666413396255    12.000000000000
         C            5.135764672135    -0.855469587575     0.271140603745    12.000000000000
         C           -3.609310627865    -1.747379787575    -0.198267796255    12.000000000000
         H            0.570295672135    -1.149034587575     1.275766603745     1.007825032230
         H            1.805621672135     2.027124412425    -1.342577396255     1.007825032230
         H            2.922107672135    -1.883532587575     1.496635603745     1.007825032230
         H            4.165443672135     1.259492412425    -1.156852396255     1.007825032230
         H           -0.377679327865    -1.541725587575    -1.032440396255     1.007825032230
         H           -4.806878327865    -0.132977587575     0.676836603745     1.007825032230
         H           -2.271214327865    -3.138702587575    -1.072361396255     1.007825032230
         H            5.837807672135    -0.020925587575     0.187732603745     1.007825032230
         H            5.316931672135    -1.359209587575     1.224784603745     1.007825032230
         H            5.368684672135    -1.565919587575    -0.529776396255     1.007825032230
         H           -4.493164327865    -2.424931587575    -0.177534396255     1.007825032230
         H           -2.352693327865     2.460606412425     0.453318603745     1.007825032230
         H           -3.950634327865     2.051088412425     0.857507603745     1.007825032230

  Basis Set: AUG-CC-PVTZ
    Blend: AUG-CC-PVTZ
  Basis Set: (AUG-CC-PVTZ AUX)
    Blend: AUG-CC-PVTZ-JKFIT
	 Reference Energy          =    -667.2733422804619750 [Eh]
	 Singles Energy            =      -0.0000000000000000 [Eh]
	 Same-Spin Energy          =      -0.7355928546120397 [Eh]
	 Opposite-Spin Energy      =      -2.2655551102808245 [Eh]
	 Correlation Energy        =      -3.0011479648928643 [Eh]
	 Total Energy              =    -670.2744902453548548 [Eh]

	 ================> DF-SCS-MP2 Energies <==================
	-----------------------------------------------------------
	 SCS Same-Spin Scale       =       0.3333333333333333 [-]
	 SCS Opposite-Spin Scale   =       1.2000000000000000 [-]
	 SCS Same-Spin Energy      =      -0.2451976182040132 [Eh]
	 SCS Opposite-Spin Energy  =      -2.7186661323369892 [Eh]
	 SCS Correlation Energy    =      -2.9638637505410026 [Eh]
	 SCS Total Energy          =    -670.2372060310029838 [Eh]
	-----------------------------------------------------------

  Dipole Moment: [D]
     X:     0.4199      Y:    -1.8208      Z:    -0.1249     Total:     1.8728

*** Psi4 exiting successfully. Buy a developer a beer!
