                               Psi4 1.4a3.dev225

  ==> Input File <==

--------------------------------------------------------------------------
#psi4
#
memory 32 gb

molecule  {
0 1
  O       -0.5498120     2.2556960    -0.2996080
  N       -3.0129360     1.7813540     0.8248620
  C        1.0008190     0.4908720    -0.0872200
  C       -1.5329590     0.0859130    -0.1428360
  C       -0.3878030     1.0286420    -0.1846270
  C        3.6793340    -0.3535020     0.1683990
  C       -2.8127890     0.5150010     0.2964470
  C        1.3212360    -0.6095270     0.7211930
  C        2.0273690     1.1786660    -0.7492360
  C        2.6489240    -1.0168440     0.8468500
  C        3.3454510     0.7479200    -0.6334830
  C       -1.3791480    -1.2185740    -0.6492330
  C       -3.8147931    -0.4134355     0.2978019
  C       -2.4390410    -2.1168890    -0.6711390
  C        5.1038640    -0.8322750     0.2664150
  C       -3.6857840    -1.7096250    -0.1856360
  H        0.5383950    -1.1258400     1.2710410
  H        1.7737210     2.0503190    -1.3473030
  H        2.8902070    -1.8603380     1.4919100
  H        4.1335430     1.2826870    -1.1615780
  H       -0.4095800    -1.5185310    -1.0371660
  H       -4.8387790    -0.1097830     0.6721110
  H       -2.3031150    -3.1155080    -1.0770870
  H        5.8059070     0.0022690     0.1830070
  H        5.2850310    -1.3360150     1.2200590
  H        5.3367840    -1.5427250    -0.5345020
  H       -4.5250650    -2.4017370    -0.1822600
  H       -2.3845940     2.4838010     0.4485930
  H       -3.9825350     2.0742830     0.8527820
units angstrom
no_reorient  #important for SAPT in psi4, default
symmetry c1  #important for SAPT in psi4, default
}

set PROPERTIES_ORIGIN ["COM"]
properties('MP2/aug-cc-pvtz', properties = ['dipole'])
--------------------------------------------------------------------------

    Molecular point group: c1
  Charge       = 0
  Multiplicity = 1
  Basis Set: AUG-CC-PVTZ
    Blend: AUG-CC-PVTZ
  Basis Set: (AUG-CC-PVTZ AUX)
    Blend: AUG-CC-PVTZ-JKFIT

    Orbital Energies [Eh]
    ---------------------

    Doubly Occupied:

       1A    -20.538476     2A    -15.558059     3A    -11.338607
       4A    -11.290871     5A    -11.257435     6A    -11.253336
       7A    -11.252059     8A    -11.250682     9A    -11.246420
      10A    -11.243643    11A    -11.240205    12A    -11.239188
      13A    -11.237899    14A    -11.233308    15A    -11.231006
      16A    -11.229321    17A     -1.371385    18A     -1.227551
      19A     -1.165322    20A     -1.139149    21A     -1.069803
      22A     -1.034271    23A     -1.020622    24A     -1.000519
      25A     -0.954836    26A     -0.880022    27A     -0.838467
      28A     -0.834635    29A     -0.813663    30A     -0.766427
      31A     -0.711885    32A     -0.691658    33A     -0.686209
      34A     -0.661364    35A     -0.644377    36A     -0.636124
      37A     -0.614237    38A     -0.605837    39A     -0.597830
      40A     -0.592443    41A     -0.584585    42A     -0.581000
      43A     -0.556989    44A     -0.546003    45A     -0.535697
      46A     -0.519543    47A     -0.511995    48A     -0.499522
      49A     -0.493519    50A     -0.481858    51A     -0.452140
      52A     -0.419341    53A     -0.349236    54A     -0.342961
      55A     -0.334072    56A     -0.303541

  @DF-RHF Final Energy:  -667.27338969022662

   => Energetics <=

    Nuclear Repulsion Energy =            993.9188032853061259
    One-Electron Energy =               -2878.9620866105392452
    Two-Electron Energy =                1217.7698936350063832
    Total Energy =                       -667.2733896902266224
  Basis Set: (AUG-CC-PVTZ AUX)
    Blend: AUG-CC-PVTZ-RI
    Molecular point group: c1

    Geometry (in Angstrom), charge = 0, multiplicity = 1:

       Center              X                  Y                   Z               Mass
    ------------   -----------------  -----------------  -----------------  -----------------
         O           -0.518020368278     2.231143398269    -0.295290675349    15.994914619570
         N           -2.981144368278     1.756801398269     0.829179324651    14.003074004430
         C            1.032610631722     0.466319398269    -0.082902675349    12.000000000000
         C           -1.501167368278     0.061360398269    -0.138518675349    12.000000000000
         C           -0.356011368278     1.004089398269    -0.180309675349    12.000000000000
         C            3.711125631722    -0.378054601731     0.172716324651    12.000000000000
         C           -2.780997368278     0.490448398269     0.300764324651    12.000000000000
         C            1.353027631722    -0.634079601731     0.725510324651    12.000000000000
         C            2.059160631722     1.154113398269    -0.744918675349    12.000000000000
         C            2.680715631722    -1.041396601731     0.851167324651    12.000000000000
         C            3.377242631722     0.723367398269    -0.629165675349    12.000000000000
         C           -1.347356368278    -1.243126601731    -0.644915675349    12.000000000000
         C           -3.783001468278    -0.437988101731     0.302119224651    12.000000000000
         C           -2.407249368278    -2.141441601731    -0.666821675349    12.000000000000
         C            5.135655631722    -0.856827601731     0.270732324651    12.000000000000
         C           -3.653992368278    -1.734177601731    -0.181318675349    12.000000000000
         H            0.570186631722    -1.150392601731     1.275358324651     1.007825032230
         H            1.805512631722     2.025766398269    -1.342985675349     1.007825032230
         H            2.921998631722    -1.884890601731     1.496227324651     1.007825032230
         H            4.165334631722     1.258134398269    -1.157260675349     1.007825032230
         H           -0.377788368278    -1.543083601731    -1.032848675349     1.007825032230
         H           -4.806987368278    -0.134335601731     0.676428324651     1.007825032230
         H           -2.271323368278    -3.140060601731    -1.072769675349     1.007825032230
         H            5.837698631722    -0.022283601731     0.187324324651     1.007825032230
         H            5.316822631722    -1.360567601731     1.224376324651     1.007825032230
         H            5.368575631722    -1.567277601731    -0.530184675349     1.007825032230
         H           -4.493273368278    -2.426289601731    -0.177942675349     1.007825032230
         H           -2.352802368278     2.459248398269     0.452910324651     1.007825032230
         H           -3.950743368278     2.049730398269     0.857099324651     1.007825032230

  Basis Set: AUG-CC-PVTZ
    Blend: AUG-CC-PVTZ
  Basis Set: (AUG-CC-PVTZ AUX)
    Blend: AUG-CC-PVTZ-JKFIT
	 Reference Energy          =    -667.2733896902266224 [Eh]
	 Singles Energy            =      -0.0000000000000000 [Eh]
	 Same-Spin Energy          =      -0.7358774885352757 [Eh]
	 Opposite-Spin Energy      =      -2.2658862263877357 [Eh]
	 Correlation Energy        =      -3.0017637149230114 [Eh]
	 Total Energy              =    -670.2751534051495810 [Eh]

	 ================> DF-SCS-MP2 Energies <==================
	-----------------------------------------------------------
	 SCS Same-Spin Scale       =       0.3333333333333333 [-]
	 SCS Opposite-Spin Scale   =       1.2000000000000000 [-]
	 SCS Same-Spin Energy      =      -0.2452924961784252 [Eh]
	 SCS Opposite-Spin Energy  =      -2.7190634716652826 [Eh]
	 SCS Correlation Energy    =      -2.9643559678437077 [Eh]
	 SCS Total Energy          =    -670.2377456580703665 [Eh]
	-----------------------------------------------------------

  Dipole Moment: [D]
     X:     0.4014      Y:    -1.8898      Z:    -0.1466     Total:     1.9375

*** Psi4 exiting successfully. Buy a developer a beer!
