                               Psi4 1.4a3.dev225

  ==> Input File <==

--------------------------------------------------------------------------
#psi4
#
memory 32 gb

molecule  {
0 1
  O       -0.5498120     2.2556960    -0.2996080
  N       -3.0129360     1.7813540     0.8248620
  C        1.0008190     0.4908720    -0.0872200
  C       -1.5329590     0.0859130    -0.1428360
  C       -0.3878030     1.0286420    -0.1846270
  C        3.6793340    -0.3535020     0.1683990
  C       -2.8127890     0.5150010     0.2964470
  C        1.3212360    -0.6095270     0.7211930
  C        2.0273690     1.1786660    -0.7492360
  C        2.6489240    -1.0168440     0.8468500
  C        3.3454510     0.7479200    -0.6334830
  C       -1.3791480    -1.2185740    -0.6492330
  C       -3.8612840    -0.4227650     0.3079770
  C       -2.4390410    -2.1168890    -0.6711390
  C        5.1984526    -0.8640655     0.2729233
  C       -3.6857840    -1.7096250    -0.1856360
  H        0.5383950    -1.1258400     1.2710410
  H        1.7737210     2.0503190    -1.3473030
  H        2.8902070    -1.8603380     1.4919100
  H        4.1335430     1.2826870    -1.1615780
  H       -0.4095800    -1.5185310    -1.0371660
  H       -4.8387790    -0.1097830     0.6721110
  H       -2.3031150    -3.1155080    -1.0770870
  H        5.8059070     0.0022690     0.1830070
  H        5.2850310    -1.3360150     1.2200590
  H        5.3367840    -1.5427250    -0.5345020
  H       -4.5250650    -2.4017370    -0.1822600
  H       -2.3845940     2.4838010     0.4485930
  H       -3.9825350     2.0742830     0.8527820
units angstrom
no_reorient  #important for SAPT in psi4, default
symmetry c1  #important for SAPT in psi4, default
}

set PROPERTIES_ORIGIN ["COM"]
properties('MP2/aug-cc-pvtz', properties = ['dipole'])
--------------------------------------------------------------------------

    Molecular point group: c1
  Charge       = 0
  Multiplicity = 1
  Basis Set: AUG-CC-PVTZ
    Blend: AUG-CC-PVTZ
  Basis Set: (AUG-CC-PVTZ AUX)
    Blend: AUG-CC-PVTZ-JKFIT

    Orbital Energies [Eh]
    ---------------------

    Doubly Occupied:

       1A    -20.537863     2A    -15.559921     3A    -11.338322
       4A    -11.296785     5A    -11.260741     6A    -11.252622
       7A    -11.252132     8A    -11.250306     9A    -11.246041
      10A    -11.243273    11A    -11.239011    12A    -11.238984
      13A    -11.237717    14A    -11.231857    15A    -11.231768
      16A    -11.228190    17A     -1.370918    18A     -1.226453
      19A     -1.162579    20A     -1.136773    21A     -1.063209
      22A     -1.031870    23A     -1.019934    24A     -0.996366
      25A     -0.956123    26A     -0.878280    27A     -0.837883
      28A     -0.836622    29A     -0.813121    30A     -0.765730
      31A     -0.712450    32A     -0.690845    33A     -0.686013
      34A     -0.658988    35A     -0.642282    36A     -0.634118
      37A     -0.614241    38A     -0.603328    39A     -0.596643
      40A     -0.595442    41A     -0.592225    42A     -0.582664
      43A     -0.567505    44A     -0.549192    45A     -0.532821
      46A     -0.517680    47A     -0.508608    48A     -0.495048
      49A     -0.489202    50A     -0.482772    51A     -0.452138
      52A     -0.418588    53A     -0.349568    54A     -0.342697
      55A     -0.335451    56A     -0.300263

  @DF-RHF Final Energy:  -667.26946623839126

   => Energetics <=

    Nuclear Repulsion Energy =            991.0739745389016662
    One-Electron Energy =               -2873.3025415204674573
    Two-Electron Energy =                1214.9591007431745311
    Total Energy =                       -667.2694662383912600
  Basis Set: (AUG-CC-PVTZ AUX)
    Blend: AUG-CC-PVTZ-RI
    Molecular point group: c1

    Geometry (in Angstrom), charge = 0, multiplicity = 1:

       Center              X                  Y                   Z               Mass
    ------------   -----------------  -----------------  -----------------  -----------------
         O           -0.520754490409     2.233480871828    -0.296239046126    15.994914619570
         N           -2.983878490409     1.759138871828     0.828230953874    14.003074004430
         C            1.029876509591     0.468656871828    -0.083851046126    12.000000000000
         C           -1.503901490409     0.063697871828    -0.139467046126    12.000000000000
         C           -0.358745490409     1.006426871828    -0.181258046126    12.000000000000
         C            3.708391509591    -0.375717128172     0.171767953874    12.000000000000
         C           -2.783731490409     0.492785871828     0.299815953874    12.000000000000
         C            1.350293509591    -0.631742128172     0.724561953874    12.000000000000
         C            2.056426509591     1.156450871828    -0.745867046126    12.000000000000
         C            2.677981509591    -1.039059128172     0.850218953874    12.000000000000
         C            3.374508509591     0.725704871828    -0.630114046126    12.000000000000
         C           -1.350090490409    -1.240789128172    -0.645864046126    12.000000000000
         C           -3.832226490409    -0.444980128172     0.311345953874    12.000000000000
         C           -2.409983490409    -2.139104128172    -0.667770046126    12.000000000000
         C            5.227510109591    -0.886280628172     0.276292253874    12.000000000000
         C           -3.656726490409    -1.731840128172    -0.182267046126    12.000000000000
         H            0.567452509591    -1.148055128172     1.274409953874     1.007825032230
         H            1.802778509591     2.028103871828    -1.343934046126     1.007825032230
         H            2.919264509591    -1.882553128172     1.495278953874     1.007825032230
         H            4.162600509591     1.260471871828    -1.158209046126     1.007825032230
         H           -0.380522490409    -1.540746128172    -1.033797046126     1.007825032230
         H           -4.809721490409    -0.131998128172     0.675479953874     1.007825032230
         H           -2.274057490409    -3.137723128172    -1.073718046126     1.007825032230
         H            5.834964509591    -0.019946128172     0.186375953874     1.007825032230
         H            5.314088509591    -1.358230128172     1.223427953874     1.007825032230
         H            5.365841509591    -1.564940128172    -0.531133046126     1.007825032230
         H           -4.496007490409    -2.423952128172    -0.178891046126     1.007825032230
         H           -2.355536490409     2.461585871828     0.451961953874     1.007825032230
         H           -3.953477490409     2.052067871828     0.856150953874     1.007825032230

  Basis Set: AUG-CC-PVTZ
    Blend: AUG-CC-PVTZ
  Basis Set: (AUG-CC-PVTZ AUX)
    Blend: AUG-CC-PVTZ-JKFIT
	 Reference Energy          =    -667.2694662383912600 [Eh]
	 Singles Energy            =      -0.0000000000000000 [Eh]
	 Same-Spin Energy          =      -0.7350532818911300 [Eh]
	 Opposite-Spin Energy      =      -2.2654306438003307 [Eh]
	 Correlation Energy        =      -3.0004839256914604 [Eh]
	 Total Energy              =    -670.2699501640827293 [Eh]

	 ================> DF-SCS-MP2 Energies <==================
	-----------------------------------------------------------
	 SCS Same-Spin Scale       =       0.3333333333333333 [-]
	 SCS Opposite-Spin Scale   =       1.2000000000000000 [-]
	 SCS Same-Spin Energy      =      -0.2450177606303766 [Eh]
	 SCS Opposite-Spin Energy  =      -2.7185167725603967 [Eh]
	 SCS Correlation Energy    =      -2.9635345331907734 [Eh]
	 SCS Total Energy          =    -670.2330007715820557 [Eh]
	-----------------------------------------------------------

  Dipole Moment: [D]
     X:     0.3240      Y:    -1.8041      Z:    -0.1049     Total:     1.8360

*** Psi4 exiting successfully. Buy a developer a beer!
