                               Psi4 1.4a3.dev225

  ==> Input File <==

--------------------------------------------------------------------------
#psi4
#
memory 32 gb

molecule  {
0 1
  O       -0.5498120     2.2556960    -0.2996080
  N       -3.0129360     1.7813540     0.8248620
  C        1.0008190     0.4908720    -0.0872200
  C       -1.5329590     0.0859130    -0.1428360
  C       -0.3878030     1.0286420    -0.1846270
  C        3.6793340    -0.3535020     0.1683990
  C       -2.8127890     0.5150010     0.2964470
  C        1.3212360    -0.6095270     0.7211930
  C        2.0273690     1.1786660    -0.7492360
  C        2.6489240    -1.0168440     0.8468500
  C        3.3454510     0.7479200    -0.6334830
  C       -1.3791480    -1.2185740    -0.6492330
  C       -3.8612840    -0.4227650     0.3079770
  C       -2.5915940    -2.2461857    -0.6742920
  C        5.1038640    -0.8322750     0.2664150
  C       -3.6857840    -1.7096250    -0.1856360
  H        0.5383950    -1.1258400     1.2710410
  H        1.7737210     2.0503190    -1.3473030
  H        2.8902070    -1.8603380     1.4919100
  H        4.1335430     1.2826870    -1.1615780
  H       -0.4095800    -1.5185310    -1.0371660
  H       -4.8387790    -0.1097830     0.6721110
  H       -2.3031150    -3.1155080    -1.0770870
  H        5.8059070     0.0022690     0.1830070
  H        5.2850310    -1.3360150     1.2200590
  H        5.3367840    -1.5427250    -0.5345020
  H       -4.5250650    -2.4017370    -0.1822600
  H       -2.3845940     2.4838010     0.4485930
  H       -3.9825350     2.0742830     0.8527820
units angstrom
no_reorient  #important for SAPT in psi4, default
symmetry c1  #important for SAPT in psi4, default
}

set PROPERTIES_ORIGIN ["COM"]
properties('MP2/aug-cc-pvtz', properties = ['dipole'])
--------------------------------------------------------------------------

    Molecular point group: c1
  Charge       = 0
  Multiplicity = 1
  Basis Set: AUG-CC-PVTZ
    Blend: AUG-CC-PVTZ
  Basis Set: (AUG-CC-PVTZ AUX)
    Blend: AUG-CC-PVTZ-JKFIT

    Orbital Energies [Eh]
    ---------------------

    Doubly Occupied:

       1A    -20.542168     2A    -15.558974     3A    -11.342593
       4A    -11.295681     5A    -11.273879     6A    -11.259144
       7A    -11.252464     8A    -11.248336     9A    -11.247026
      10A    -11.245821    11A    -11.240716    12A    -11.239724
      13A    -11.239537    14A    -11.234533    15A    -11.231160
      16A    -11.223385    17A     -1.374926    18A     -1.224941
      19A     -1.166956    20A     -1.129920    21A     -1.073178
      22A     -1.040391    23A     -1.022760    24A     -0.986611
      25A     -0.955989    26A     -0.872214    27A     -0.844662
      28A     -0.839156    29A     -0.815095    30A     -0.770031
      31A     -0.716505    32A     -0.691739    33A     -0.686756
      34A     -0.664254    35A     -0.652006    36A     -0.640792
      37A     -0.621690    38A     -0.602419    39A     -0.594592
      40A     -0.590509    41A     -0.587348    42A     -0.584630
      43A     -0.557927    44A     -0.544474    45A     -0.538322
      46A     -0.519560    47A     -0.510907    48A     -0.495448
      49A     -0.485506    50A     -0.484323    51A     -0.447765
      52A     -0.418096    53A     -0.355379    54A     -0.345308
      55A     -0.335660    56A     -0.293240

  @DF-RHF Final Energy:  -667.23535736103736

   => Energetics <=

    Nuclear Repulsion Energy =            989.9926934156386551
    One-Electron Energy =               -2870.9418424959826552
    Two-Electron Energy =                1213.7137917193065277
    Total Energy =                       -667.2353573610373587
  Basis Set: (AUG-CC-PVTZ AUX)
    Blend: AUG-CC-PVTZ-RI
    Molecular point group: c1

    Geometry (in Angstrom), charge = 0, multiplicity = 1:

       Center              X                  Y                   Z               Mass
    ------------   -----------------  -----------------  -----------------  -----------------
         O           -0.506705683126     2.239023628744    -0.295689847846    15.994914619570
         N           -2.969829683126     1.764681628744     0.828780152154    14.003074004430
         C            1.043925316874     0.474199628744    -0.083301847846    12.000000000000
         C           -1.489852683126     0.069240628744    -0.138917847846    12.000000000000
         C           -0.344696683126     1.011969628744    -0.180708847846    12.000000000000
         C            3.722440316874    -0.370174371256     0.172317152154    12.000000000000
         C           -2.769682683126     0.498328628744     0.300365152154    12.000000000000
         C            1.364342316874    -0.626199371256     0.725111152154    12.000000000000
         C            2.070475316874     1.161993628744    -0.745317847846    12.000000000000
         C            2.692030316874    -1.033516371256     0.850768152154    12.000000000000
         C            3.388557316874     0.731247628744    -0.629564847846    12.000000000000
         C           -1.336041683126    -1.235246371256    -0.645314847846    12.000000000000
         C           -3.818177683126    -0.439437371256     0.311895152154    12.000000000000
         C           -2.548487683126    -2.262858071256    -0.670373847846    12.000000000000
         C            5.146970316874    -0.848947371256     0.270333152154    12.000000000000
         C           -3.642677683126    -1.726297371256    -0.181717847846    12.000000000000
         H            0.581501316874    -1.142512371256     1.274959152154     1.007825032230
         H            1.816827316874     2.033646628744    -1.343384847846     1.007825032230
         H            2.933313316874    -1.877010371256     1.495828152154     1.007825032230
         H            4.176649316874     1.266014628744    -1.157659847846     1.007825032230
         H           -0.366473683126    -1.535203371256    -1.033247847846     1.007825032230
         H           -4.795672683126    -0.126455371256     0.676029152154     1.007825032230
         H           -2.260008683126    -3.132180371256    -1.073168847846     1.007825032230
         H            5.849013316874    -0.014403371256     0.186925152154     1.007825032230
         H            5.328137316874    -1.352687371256     1.223977152154     1.007825032230
         H            5.379890316874    -1.559397371256    -0.530583847846     1.007825032230
         H           -4.481958683126    -2.418409371256    -0.178341847846     1.007825032230
         H           -2.341487683126     2.467128628744     0.452511152154     1.007825032230
         H           -3.939428683126     2.057610628744     0.856700152154     1.007825032230

  Basis Set: AUG-CC-PVTZ
    Blend: AUG-CC-PVTZ
  Basis Set: (AUG-CC-PVTZ AUX)
    Blend: AUG-CC-PVTZ-JKFIT
	 Reference Energy          =    -667.2353573610373587 [Eh]
	 Singles Energy            =      -0.0000000000000000 [Eh]
	 Same-Spin Energy          =      -0.7349535065606525 [Eh]
	 Opposite-Spin Energy      =      -2.2675168628015325 [Eh]
	 Correlation Energy        =      -3.0024703693621850 [Eh]
	 Total Energy              =    -670.2378277303995446 [Eh]

	 ================> DF-SCS-MP2 Energies <==================
	-----------------------------------------------------------
	 SCS Same-Spin Scale       =       0.3333333333333333 [-]
	 SCS Opposite-Spin Scale   =       1.2000000000000000 [-]
	 SCS Same-Spin Energy      =      -0.2449845021868842 [Eh]
	 SCS Opposite-Spin Energy  =      -2.7210202353618391 [Eh]
	 SCS Correlation Energy    =      -2.9660047375487233 [Eh]
	 SCS Total Energy          =    -670.2013620985860598 [Eh]
	-----------------------------------------------------------

  Dipole Moment: [D]
     X:     0.6778      Y:    -1.7498      Z:    -0.1515     Total:     1.8826

*** Psi4 exiting successfully. Buy a developer a beer!
