                               Psi4 1.4a3.dev225

  ==> Input File <==

--------------------------------------------------------------------------
#psi4
#
memory 32 gb

molecule  {
0 1
  O       -0.5498120     2.2556960    -0.2996080
  N       -3.0129360     1.7813540     0.8248620
  C        1.0008190     0.4908720    -0.0872200
  C       -1.5329590     0.0859130    -0.1428360
  C       -0.3878030     1.0286420    -0.1846270
  C        3.6793340    -0.3535020     0.1683990
  C       -2.8127890     0.5150010     0.2964470
  C        1.3212360    -0.6095270     0.7211930
  C        2.0273690     1.1786660    -0.7492360
  C        2.6489240    -1.0168440     0.8468500
  C        3.3380405     0.7297861    -0.6191283
  C       -1.3791480    -1.2185740    -0.6492330
  C       -3.8612840    -0.4227650     0.3079770
  C       -2.4390410    -2.1168890    -0.6711390
  C        5.1038640    -0.8322750     0.2664150
  C       -3.6857840    -1.7096250    -0.1856360
  H        0.5383950    -1.1258400     1.2710410
  H        1.7737210     2.0503190    -1.3473030
  H        2.8902070    -1.8603380     1.4919100
  H        4.1335430     1.2826870    -1.1615780
  H       -0.4095800    -1.5185310    -1.0371660
  H       -4.8387790    -0.1097830     0.6721110
  H       -2.3031150    -3.1155080    -1.0770870
  H        5.8059070     0.0022690     0.1830070
  H        5.2850310    -1.3360150     1.2200590
  H        5.3367840    -1.5427250    -0.5345020
  H       -4.5250650    -2.4017370    -0.1822600
  H       -2.3845940     2.4838010     0.4485930
  H       -3.9825350     2.0742830     0.8527820
units angstrom
no_reorient  #important for SAPT in psi4, default
symmetry c1  #important for SAPT in psi4, default
}

set PROPERTIES_ORIGIN ["COM"]
properties('MP2/aug-cc-pvtz', properties = ['dipole'])
--------------------------------------------------------------------------

    Molecular point group: c1
  Charge       = 0
  Multiplicity = 1
  Basis Set: AUG-CC-PVTZ
    Blend: AUG-CC-PVTZ
  Basis Set: (AUG-CC-PVTZ AUX)
    Blend: AUG-CC-PVTZ-JKFIT

    Orbital Energies [Eh]
    ---------------------

    Doubly Occupied:

       1A    -20.538296     2A    -15.560111     3A    -11.338562
       4A    -11.296973     5A    -11.254694     6A    -11.252792
       7A    -11.252342     8A    -11.249923     9A    -11.246441
      10A    -11.243674    11A    -11.239276    12A    -11.239164
      13A    -11.237403    14A    -11.233245    15A    -11.232022
      16A    -11.228365    17A     -1.371304    18A     -1.226644
      19A     -1.167234    20A     -1.137284    21A     -1.070705
      22A     -1.034734    23A     -1.020137    24A     -0.996622
      25A     -0.954937    26A     -0.877767    27A     -0.839248
      28A     -0.836036    29A     -0.814119    30A     -0.765468
      31A     -0.712456    32A     -0.691936    33A     -0.686213
      34A     -0.661521    35A     -0.646218    36A     -0.635109
      37A     -0.614339    38A     -0.603623    39A     -0.599458
      40A     -0.591389    41A     -0.584877    42A     -0.583907
      43A     -0.555860    44A     -0.543889    45A     -0.532218
      46A     -0.518061    47A     -0.513480    48A     -0.505646
      49A     -0.492767    50A     -0.482819    51A     -0.452358
      52A     -0.418876    53A     -0.349853    54A     -0.343126
      55A     -0.335326    56A     -0.300452

  @DF-RHF Final Energy:  -667.27589620027777

   => Energetics <=

    Nuclear Repulsion Energy =            993.3083292624353362
    One-Electron Energy =               -2877.7458595129833157
    Two-Electron Energy =                1217.1616340502700950
    Total Energy =                       -667.2758962002778844
  Basis Set: (AUG-CC-PVTZ AUX)
    Blend: AUG-CC-PVTZ-RI
    Molecular point group: c1

    Geometry (in Angstrom), charge = 0, multiplicity = 1:

       Center              X                  Y                   Z               Mass
    ------------   -----------------  -----------------  -----------------  -----------------
         O           -0.514956333810     2.232704560023    -0.296685076101    15.994914619570
         N           -2.978080333810     1.758362560023     0.827784923899    14.003074004430
         C            1.035674666190     0.467880560023    -0.084297076101    12.000000000000
         C           -1.498103333810     0.062921560023    -0.139913076101    12.000000000000
         C           -0.352947333810     1.005650560023    -0.181704076101    12.000000000000
         C            3.714189666190    -0.376493439977     0.171321923899    12.000000000000
         C           -2.777933333810     0.492009560023     0.299369923899    12.000000000000
         C            1.356091666190    -0.632518439977     0.724115923899    12.000000000000
         C            2.062224666190     1.155674560023    -0.746313076101    12.000000000000
         C            2.683779666190    -1.039835439977     0.849772923899    12.000000000000
         C            3.372896166190     0.706794660023    -0.616205376101    12.000000000000
         C           -1.344292333810    -1.241565439977    -0.646310076101    12.000000000000
         C           -3.826428333810    -0.445756439977     0.310899923899    12.000000000000
         C           -2.404185333810    -2.139880439977    -0.668216076101    12.000000000000
         C            5.138719666190    -0.855266439977     0.269337923899    12.000000000000
         C           -3.650928333810    -1.732616439977    -0.182713076101    12.000000000000
         H            0.573250666190    -1.148831439977     1.273963923899     1.007825032230
         H            1.808576666190     2.027327560023    -1.344380076101     1.007825032230
         H            2.925062666190    -1.883329439977     1.494832923899     1.007825032230
         H            4.168398666190     1.259695560023    -1.158655076101     1.007825032230
         H           -0.374724333810    -1.541522439977    -1.034243076101     1.007825032230
         H           -4.803923333810    -0.132774439977     0.675033923899     1.007825032230
         H           -2.268259333810    -3.138499439977    -1.074164076101     1.007825032230
         H            5.840762666190    -0.020722439977     0.185929923899     1.007825032230
         H            5.319886666190    -1.359006439977     1.222981923899     1.007825032230
         H            5.371639666190    -1.565716439977    -0.531579076101     1.007825032230
         H           -4.490209333810    -2.424728439977    -0.179337076101     1.007825032230
         H           -2.349738333810     2.460809560023     0.451515923899     1.007825032230
         H           -3.947679333810     2.051291560023     0.855704923899     1.007825032230

  Basis Set: AUG-CC-PVTZ
    Blend: AUG-CC-PVTZ
  Basis Set: (AUG-CC-PVTZ AUX)
    Blend: AUG-CC-PVTZ-JKFIT
	 Reference Energy          =    -667.2758962002777707 [Eh]
	 Singles Energy            =      -0.0000000000000000 [Eh]
	 Same-Spin Energy          =      -0.7356014094731187 [Eh]
	 Opposite-Spin Energy      =      -2.2655327000754348 [Eh]
	 Correlation Energy        =      -3.0011341095485538 [Eh]
	 Total Energy              =    -670.2770303098262730 [Eh]

	 ================> DF-SCS-MP2 Energies <==================
	-----------------------------------------------------------
	 SCS Same-Spin Scale       =       0.3333333333333333 [-]
	 SCS Opposite-Spin Scale   =       1.2000000000000000 [-]
	 SCS Same-Spin Energy      =      -0.2452004698243729 [Eh]
	 SCS Opposite-Spin Energy  =      -2.7186392400905217 [Eh]
	 SCS Correlation Energy    =      -2.9638397099148945 [Eh]
	 SCS Total Energy          =    -670.2397359101926213 [Eh]
	-----------------------------------------------------------

  Dipole Moment: [D]
     X:     0.3323      Y:    -1.8176      Z:    -0.0995     Total:     1.8504

*** Psi4 exiting successfully. Buy a developer a beer!
