                               Psi4 1.4a3.dev225

  ==> Input File <==

--------------------------------------------------------------------------
#psi4
#
memory 32 gb

molecule  {
0 1
  O       -0.5498120     2.2556960    -0.2996080
  N       -3.0129360     1.7813540     0.8248620
  C        1.0008190     0.4908720    -0.0872200
  C       -1.5329590     0.0859130    -0.1428360
  C       -0.3878030     1.0286420    -0.1846270
  C        3.6556726    -0.3563088     0.1740221
  C       -2.8127890     0.5150010     0.2964470
  C        1.3212360    -0.6095270     0.7211930
  C        2.0273690     1.1786660    -0.7492360
  C        2.6489240    -1.0168440     0.8468500
  C        3.3454510     0.7479200    -0.6334830
  C       -1.3791480    -1.2185740    -0.6492330
  C       -3.8612840    -0.4227650     0.3079770
  C       -2.4390410    -2.1168890    -0.6711390
  C        5.1038640    -0.8322750     0.2664150
  C       -3.6857840    -1.7096250    -0.1856360
  H        0.5383950    -1.1258400     1.2710410
  H        1.7737210     2.0503190    -1.3473030
  H        2.8902070    -1.8603380     1.4919100
  H        4.1335430     1.2826870    -1.1615780
  H       -0.4095800    -1.5185310    -1.0371660
  H       -4.8387790    -0.1097830     0.6721110
  H       -2.3031150    -3.1155080    -1.0770870
  H        5.8059070     0.0022690     0.1830070
  H        5.2850310    -1.3360150     1.2200590
  H        5.3367840    -1.5427250    -0.5345020
  H       -4.5250650    -2.4017370    -0.1822600
  H       -2.3845940     2.4838010     0.4485930
  H       -3.9825350     2.0742830     0.8527820
units angstrom
no_reorient  #important for SAPT in psi4, default
symmetry c1  #important for SAPT in psi4, default
}

set PROPERTIES_ORIGIN ["COM"]
properties('MP2/aug-cc-pvtz', properties = ['dipole'])
--------------------------------------------------------------------------

    Molecular point group: c1
  Charge       = 0
  Multiplicity = 1
  Basis Set: AUG-CC-PVTZ
    Blend: AUG-CC-PVTZ
  Basis Set: (AUG-CC-PVTZ AUX)
    Blend: AUG-CC-PVTZ-JKFIT

    Orbital Energies [Eh]
    ---------------------

    Doubly Occupied:

       1A    -20.538108     2A    -15.560089     3A    -11.338609
       4A    -11.296969     5A    -11.255668     6A    -11.252792
       7A    -11.252323     8A    -11.250997     9A    -11.246096
      10A    -11.243604    11A    -11.239193    12A    -11.237839
      13A    -11.236989    14A    -11.233406    15A    -11.232028
      16A    -11.228364    17A     -1.371179    18A     -1.226627
      19A     -1.166952    20A     -1.137232    21A     -1.068360
      22A     -1.034187    23A     -1.021528    24A     -0.996577
      25A     -0.952920    26A     -0.877014    27A     -0.840535
      28A     -0.837037    29A     -0.812881    30A     -0.766604
      31A     -0.712940    32A     -0.691809    33A     -0.686327
      34A     -0.661388    35A     -0.644453    36A     -0.636293
      37A     -0.614332    38A     -0.603698    39A     -0.600029
      40A     -0.594404    41A     -0.584359    42A     -0.582051
      43A     -0.555259    44A     -0.544423    45A     -0.531980
      46A     -0.517931    47A     -0.511249    48A     -0.502773
      49A     -0.495516    50A     -0.483153    51A     -0.452365
      52A     -0.419015    53A     -0.349764    54A     -0.343456
      55A     -0.335973    56A     -0.300430

  @DF-RHF Final Energy:  -667.27644812692347

   => Energetics <=

    Nuclear Repulsion Energy =            993.1890267829321601
    One-Electron Energy =               -2877.5147941314885429
    Two-Electron Energy =                1217.0493192216329135
    Total Energy =                       -667.2764481269234693
  Basis Set: (AUG-CC-PVTZ AUX)
    Blend: AUG-CC-PVTZ-RI
    Molecular point group: c1

    Geometry (in Angstrom), charge = 0, multiplicity = 1:

       Center              X                  Y                   Z               Mass
    ------------   -----------------  -----------------  -----------------  -----------------
         O           -0.514032548570     2.231833288355    -0.296188726778    15.994914619570
         N           -2.977156548570     1.757491288355     0.828281273222    14.003074004430
         C            1.036598451430     0.467009288355    -0.083800726778    12.000000000000
         C           -1.497179548570     0.062050288355    -0.139416726778    12.000000000000
         C           -0.352023548570     1.004779288355    -0.181207726778    12.000000000000
         C            3.691452051430    -0.380171511645     0.177441373222    12.000000000000
         C           -2.777009548570     0.491138288355     0.299866273222    12.000000000000
         C            1.357015451430    -0.633389711645     0.724612273222    12.000000000000
         C            2.063148451430     1.154803288355    -0.745816726778    12.000000000000
         C            2.684703451430    -1.040706711645     0.850269273222    12.000000000000
         C            3.381230451430     0.724057288355    -0.630063726778    12.000000000000
         C           -1.343368548570    -1.242436711645    -0.645813726778    12.000000000000
         C           -3.825504548570    -0.446627711645     0.311396273222    12.000000000000
         C           -2.403261548570    -2.140751711645    -0.667719726778    12.000000000000
         C            5.139643451430    -0.856137711645     0.269834273222    12.000000000000
         C           -3.650004548570    -1.733487711645    -0.182216726778    12.000000000000
         H            0.574174451430    -1.149702711645     1.274460273222     1.007825032230
         H            1.809500451430     2.026456288355    -1.343883726778     1.007825032230
         H            2.925986451430    -1.884200711645     1.495329273222     1.007825032230
         H            4.169322451430     1.258824288355    -1.158158726778     1.007825032230
         H           -0.373800548570    -1.542393711645    -1.033746726778     1.007825032230
         H           -4.802999548570    -0.133645711645     0.675530273222     1.007825032230
         H           -2.267335548570    -3.139370711645    -1.073667726778     1.007825032230
         H            5.841686451430    -0.021593711645     0.186426273222     1.007825032230
         H            5.320810451430    -1.359877711645     1.223478273222     1.007825032230
         H            5.372563451430    -1.566587711645    -0.531082726778     1.007825032230
         H           -4.489285548570    -2.425599711645    -0.178840726778     1.007825032230
         H           -2.348814548570     2.459938288355     0.452012273222     1.007825032230
         H           -3.946755548570     2.050420288355     0.856201273222     1.007825032230

  Basis Set: AUG-CC-PVTZ
    Blend: AUG-CC-PVTZ
  Basis Set: (AUG-CC-PVTZ AUX)
    Blend: AUG-CC-PVTZ-JKFIT
	 Reference Energy          =    -667.2764481269234693 [Eh]
	 Singles Energy            =      -0.0000000000000000 [Eh]
	 Same-Spin Energy          =      -0.7353175837079322 [Eh]
	 Opposite-Spin Energy      =      -2.2652486362302495 [Eh]
	 Correlation Energy        =      -3.0005662199381815 [Eh]
	 Total Energy              =    -670.2770143468616197 [Eh]

	 ================> DF-SCS-MP2 Energies <==================
	-----------------------------------------------------------
	 SCS Same-Spin Scale       =       0.3333333333333333 [-]
	 SCS Opposite-Spin Scale   =       1.2000000000000000 [-]
	 SCS Same-Spin Energy      =      -0.2451058612359774 [Eh]
	 SCS Opposite-Spin Energy  =      -2.7182983634762992 [Eh]
	 SCS Correlation Energy    =      -2.9634042247122765 [Eh]
	 SCS Total Energy          =    -670.2398523516357045 [Eh]
	-----------------------------------------------------------

  Dipole Moment: [D]
     X:     0.3165      Y:    -1.7988      Z:    -0.1088     Total:     1.8296

*** Psi4 exiting successfully. Buy a developer a beer!
