                               Psi4 1.4a3.dev225

  ==> Input File <==

--------------------------------------------------------------------------
#psi4
#
memory 32 gb

molecule  {
0 1
  O       -0.5498120     2.2556960    -0.2996080
  N       -3.0129360     1.7813540     0.8248620
  C        1.0008190     0.4908720    -0.0872200
  C       -1.5329590     0.0859130    -0.1428360
  C       -0.3878030     1.0286420    -0.1846270
  C        3.6793340    -0.3535020     0.1683990
  C       -2.8127890     0.5150010     0.2964470
  C        1.3212360    -0.6095270     0.7211930
  C        2.0273690     1.1786660    -0.7492360
  C        2.6489240    -1.0168440     0.8468500
  C        3.3814119     0.8592826    -0.7201979
  C       -1.3791480    -1.2185740    -0.6492330
  C       -3.8612840    -0.4227650     0.3079770
  C       -2.4390410    -2.1168890    -0.6711390
  C        5.1038640    -0.8322750     0.2664150
  C       -3.6857840    -1.7096250    -0.1856360
  H        0.5383950    -1.1258400     1.2710410
  H        1.7737210     2.0503190    -1.3473030
  H        2.8902070    -1.8603380     1.4919100
  H        4.1335430     1.2826870    -1.1615780
  H       -0.4095800    -1.5185310    -1.0371660
  H       -4.8387790    -0.1097830     0.6721110
  H       -2.3031150    -3.1155080    -1.0770870
  H        5.8059070     0.0022690     0.1830070
  H        5.2850310    -1.3360150     1.2200590
  H        5.3367840    -1.5427250    -0.5345020
  H       -4.5250650    -2.4017370    -0.1822600
  H       -2.3845940     2.4838010     0.4485930
  H       -3.9825350     2.0742830     0.8527820
units angstrom
no_reorient  #important for SAPT in psi4, default
symmetry c1  #important for SAPT in psi4, default
}

set PROPERTIES_ORIGIN ["COM"]
properties('MP2/aug-cc-pvtz', properties = ['dipole'])
--------------------------------------------------------------------------

    Molecular point group: c1
  Charge       = 0
  Multiplicity = 1
  Basis Set: AUG-CC-PVTZ
    Blend: AUG-CC-PVTZ
  Basis Set: (AUG-CC-PVTZ AUX)
    Blend: AUG-CC-PVTZ-JKFIT

    Orbital Energies [Eh]
    ---------------------

    Doubly Occupied:

       1A    -20.536535     2A    -15.559638     3A    -11.338223
       4A    -11.296617     5A    -11.271734     6A    -11.255121
       7A    -11.252477     8A    -11.251932     9A    -11.247385
      10A    -11.243520    11A    -11.241135    12A    -11.238986
      13A    -11.238569    14A    -11.233483    15A    -11.231750
      16A    -11.228072    17A     -1.369892    18A     -1.226204
      19A     -1.156213    20A     -1.136111    21A     -1.064178
      22A     -1.034323    23A     -1.023425    24A     -0.996286
      25A     -0.953845    26A     -0.874359    27A     -0.846655
      28A     -0.834318    29A     -0.806905    30A     -0.768579
      31A     -0.716505    32A     -0.692457    33A     -0.686590
      34A     -0.662527    35A     -0.649973    36A     -0.638092
      37A     -0.613895    38A     -0.606570    39A     -0.602037
      40A     -0.595628    41A     -0.584551    42A     -0.582303
      43A     -0.555406    44A     -0.548722    45A     -0.530787
      46A     -0.521608    47A     -0.514576    48A     -0.505904
      49A     -0.478152    50A     -0.472584    51A     -0.452033
      52A     -0.418966    53A     -0.350205    54A     -0.346164
      55A     -0.324226    56A     -0.299891

  @DF-RHF Final Energy:  -667.24875993961859

   => Energetics <=

    Nuclear Repulsion Energy =            990.5055316974295465
    One-Electron Energy =               -2872.0949462361859332
    Two-Electron Energy =                1214.3406545991379062
    Total Energy =                       -667.2487599396185942
  Basis Set: (AUG-CC-PVTZ AUX)
    Blend: AUG-CC-PVTZ-RI
    Molecular point group: c1

    Geometry (in Angstrom), charge = 0, multiplicity = 1:

       Center              X                  Y                   Z               Mass
    ------------   -----------------  -----------------  -----------------  -----------------
         O           -0.517421788594     2.225343308934    -0.290939757091    15.994914619570
         N           -2.980545788594     1.751001308934     0.833530242909    14.003074004430
         C            1.033209211406     0.460519308934    -0.078551757091    12.000000000000
         C           -1.500568788594     0.055560308934    -0.134167757091    12.000000000000
         C           -0.355412788594     0.998289308934    -0.175958757091    12.000000000000
         C            3.711724211406    -0.383854691066     0.177067242909    12.000000000000
         C           -2.780398788594     0.484648308934     0.305115242909    12.000000000000
         C            1.353626211406    -0.639879691066     0.729861242909    12.000000000000
         C            2.059759211406     1.148313308934    -0.740567757091    12.000000000000
         C            2.681314211406    -1.047196691066     0.855518242909    12.000000000000
         C            3.413802111406     0.828929908934    -0.711529657091    12.000000000000
         C           -1.346757788594    -1.248926691066    -0.640564757091    12.000000000000
         C           -3.828893788594    -0.453117691066     0.316645242909    12.000000000000
         C           -2.406650788594    -2.147241691066    -0.662470757091    12.000000000000
         C            5.136254211406    -0.862627691066     0.275083242909    12.000000000000
         C           -3.653393788594    -1.739977691066    -0.176967757091    12.000000000000
         H            0.570785211406    -1.156192691066     1.279709242909     1.007825032230
         H            1.806111211406     2.019966308934    -1.338634757091     1.007825032230
         H            2.922597211406    -1.890690691066     1.500578242909     1.007825032230
         H            4.165933211406     1.252334308934    -1.152909757091     1.007825032230
         H           -0.377189788594    -1.548883691066    -1.028497757091     1.007825032230
         H           -4.806388788594    -0.140135691066     0.680779242909     1.007825032230
         H           -2.270724788594    -3.145860691066    -1.068418757091     1.007825032230
         H            5.838297211406    -0.028083691066     0.191675242909     1.007825032230
         H            5.317421211406    -1.366367691066     1.228727242909     1.007825032230
         H            5.369174211406    -1.573077691066    -0.525833757091     1.007825032230
         H           -4.492674788594    -2.432089691066    -0.173591757091     1.007825032230
         H           -2.352203788594     2.453448308934     0.457261242909     1.007825032230
         H           -3.950144788594     2.043930308934     0.861450242909     1.007825032230

  Basis Set: AUG-CC-PVTZ
    Blend: AUG-CC-PVTZ
  Basis Set: (AUG-CC-PVTZ AUX)
    Blend: AUG-CC-PVTZ-JKFIT
	 Reference Energy          =    -667.2487599396185942 [Eh]
	 Singles Energy            =      -0.0000000000000000 [Eh]
	 Same-Spin Energy          =      -0.7353505353765739 [Eh]
	 Opposite-Spin Energy      =      -2.2671254428653604 [Eh]
	 Correlation Energy        =      -3.0024759782419341 [Eh]
	 Total Energy              =    -670.2512359178605266 [Eh]

	 ================> DF-SCS-MP2 Energies <==================
	-----------------------------------------------------------
	 SCS Same-Spin Scale       =       0.3333333333333333 [-]
	 SCS Opposite-Spin Scale   =       1.2000000000000000 [-]
	 SCS Same-Spin Energy      =      -0.2451168451255246 [Eh]
	 SCS Opposite-Spin Energy  =      -2.7205505314384326 [Eh]
	 SCS Correlation Energy    =      -2.9656673765639572 [Eh]
	 SCS Total Energy          =    -670.2144273161825367 [Eh]
	-----------------------------------------------------------

  Dipole Moment: [D]
     X:     0.4139      Y:    -1.8187      Z:    -0.1182     Total:     1.8689

*** Psi4 exiting successfully. Buy a developer a beer!
