                               Psi4 1.4a3.dev225

  ==> Input File <==

--------------------------------------------------------------------------
#psi4
#
memory 32 gb

molecule  {
0 1
  O       -0.5498120     2.2556960    -0.2996080
  N       -3.0129360     1.7813540     0.8248620
  C        1.0008190     0.4908720    -0.0872200
  C       -1.5565373     0.0810114    -0.1379670
  C       -0.3878030     1.0286420    -0.1846270
  C        3.6793340    -0.3535020     0.1683990
  C       -2.8127890     0.5150010     0.2964470
  C        1.3212360    -0.6095270     0.7211930
  C        2.0273690     1.1786660    -0.7492360
  C        2.6489240    -1.0168440     0.8468500
  C        3.3454510     0.7479200    -0.6334830
  C       -1.3791480    -1.2185740    -0.6492330
  C       -3.8612840    -0.4227650     0.3079770
  C       -2.4390410    -2.1168890    -0.6711390
  C        5.1038640    -0.8322750     0.2664150
  C       -3.6857840    -1.7096250    -0.1856360
  H        0.5383950    -1.1258400     1.2710410
  H        1.7737210     2.0503190    -1.3473030
  H        2.8902070    -1.8603380     1.4919100
  H        4.1335430     1.2826870    -1.1615780
  H       -0.4095800    -1.5185310    -1.0371660
  H       -4.8387790    -0.1097830     0.6721110
  H       -2.3031150    -3.1155080    -1.0770870
  H        5.8059070     0.0022690     0.1830070
  H        5.2850310    -1.3360150     1.2200590
  H        5.3367840    -1.5427250    -0.5345020
  H       -4.5250650    -2.4017370    -0.1822600
  H       -2.3845940     2.4838010     0.4485930
  H       -3.9825350     2.0742830     0.8527820
units angstrom
no_reorient  #important for SAPT in psi4, default
symmetry c1  #important for SAPT in psi4, default
}

set PROPERTIES_ORIGIN ["COM"]
properties('MP2/aug-cc-pvtz', properties = ['dipole'])
--------------------------------------------------------------------------

    Molecular point group: c1
  Charge       = 0
  Multiplicity = 1
  Basis Set: AUG-CC-PVTZ
    Blend: AUG-CC-PVTZ
  Basis Set: (AUG-CC-PVTZ AUX)
    Blend: AUG-CC-PVTZ-JKFIT

    Orbital Energies [Eh]
    ---------------------

    Doubly Occupied:

       1A    -20.539141     2A    -15.558863     3A    -11.340138
       4A    -11.293252     5A    -11.257767     6A    -11.251200
       7A    -11.251134     8A    -11.251064     9A    -11.246888
      10A    -11.244301    11A    -11.239477    12A    -11.238673
      13A    -11.238199    14A    -11.233518    15A    -11.231998
      16A    -11.228273    17A     -1.371464    18A     -1.226771
      19A     -1.165539    20A     -1.137355    21A     -1.069116
      22A     -1.033448    23A     -1.020908    24A     -0.997428
      25A     -0.955144    26A     -0.874288    27A     -0.839881
      28A     -0.837603    29A     -0.812914    30A     -0.765848
      31A     -0.712792    32A     -0.690357    33A     -0.685409
      34A     -0.661137    35A     -0.645471    36A     -0.636679
      37A     -0.615307    38A     -0.603513    39A     -0.599583
      40A     -0.593105    41A     -0.585024    42A     -0.583850
      43A     -0.556068    44A     -0.545091    45A     -0.530585
      46A     -0.518658    47A     -0.513783    48A     -0.506472
      49A     -0.493872    50A     -0.482410    51A     -0.451743
      52A     -0.417632    53A     -0.349149    54A     -0.343291
      55A     -0.334374    56A     -0.301369

  @DF-RHF Final Energy:  -667.27622424594119

   => Energetics <=

    Nuclear Repulsion Energy =            992.8466665064290737
    One-Electron Energy =               -2876.8291502634256176
    Two-Electron Energy =                1216.7062595110553502
    Total Energy =                       -667.2762242459411937
  Basis Set: (AUG-CC-PVTZ AUX)
    Blend: AUG-CC-PVTZ-RI
    Molecular point group: c1

    Geometry (in Angstrom), charge = 0, multiplicity = 1:

       Center              X                  Y                   Z               Mass
    ------------   -----------------  -----------------  -----------------  -----------------
         O           -0.514037272404     2.231952367626    -0.296145859832    15.994914619570
         N           -2.977161272404     1.757610367626     0.828324140168    14.003074004430
         C            1.036593727596     0.467128367626    -0.083757859832    12.000000000000
         C           -1.520762572404     0.057267767626    -0.134504859832    12.000000000000
         C           -0.352028272404     1.004898367626    -0.181164859832    12.000000000000
         C            3.715108727596    -0.377245632374     0.171861140168    12.000000000000
         C           -2.777014272404     0.491257367626     0.299909140168    12.000000000000
         C            1.357010727596    -0.633270632374     0.724655140168    12.000000000000
         C            2.063143727596     1.154922367626    -0.745773859832    12.000000000000
         C            2.684698727596    -1.040587632374     0.850312140168    12.000000000000
         C            3.381225727596     0.724176367626    -0.630020859832    12.000000000000
         C           -1.343373272404    -1.242317632374    -0.645770859832    12.000000000000
         C           -3.825509272404    -0.446508632374     0.311439140168    12.000000000000
         C           -2.403266272404    -2.140632632374    -0.667676859832    12.000000000000
         C            5.139638727596    -0.856018632374     0.269877140168    12.000000000000
         C           -3.650009272404    -1.733368632374    -0.182173859832    12.000000000000
         H            0.574169727596    -1.149583632374     1.274503140168     1.007825032230
         H            1.809495727596     2.026575367626    -1.343840859832     1.007825032230
         H            2.925981727596    -1.884081632374     1.495372140168     1.007825032230
         H            4.169317727596     1.258943367626    -1.158115859832     1.007825032230
         H           -0.373805272404    -1.542274632374    -1.033703859832     1.007825032230
         H           -4.803004272404    -0.133526632374     0.675573140168     1.007825032230
         H           -2.267340272404    -3.139251632374    -1.073624859832     1.007825032230
         H            5.841681727596    -0.021474632374     0.186469140168     1.007825032230
         H            5.320805727596    -1.359758632374     1.223521140168     1.007825032230
         H            5.372558727596    -1.566468632374    -0.531039859832     1.007825032230
         H           -4.489290272404    -2.425480632374    -0.178797859832     1.007825032230
         H           -2.348819272404     2.460057367626     0.452055140168     1.007825032230
         H           -3.946760272404     2.050539367626     0.856244140168     1.007825032230

  Basis Set: AUG-CC-PVTZ
    Blend: AUG-CC-PVTZ
  Basis Set: (AUG-CC-PVTZ AUX)
    Blend: AUG-CC-PVTZ-JKFIT
	 Reference Energy          =    -667.2762242459411937 [Eh]
	 Singles Energy            =      -0.0000000000000000 [Eh]
	 Same-Spin Energy          =      -0.7353956315089182 [Eh]
	 Opposite-Spin Energy      =      -2.2653904985793747 [Eh]
	 Correlation Energy        =      -3.0007861300882928 [Eh]
	 Total Energy              =    -670.2770103760294660 [Eh]

	 ================> DF-SCS-MP2 Energies <==================
	-----------------------------------------------------------
	 SCS Same-Spin Scale       =       0.3333333333333333 [-]
	 SCS Opposite-Spin Scale   =       1.2000000000000000 [-]
	 SCS Same-Spin Energy      =      -0.2451318771696394 [Eh]
	 SCS Opposite-Spin Energy  =      -2.7184685982952494 [Eh]
	 SCS Correlation Energy    =      -2.9636004754648888 [Eh]
	 SCS Total Energy          =    -670.2398247214060802 [Eh]
	-----------------------------------------------------------

  Dipole Moment: [D]
     X:     0.4403      Y:    -1.8013      Z:    -0.1201     Total:     1.8582

*** Psi4 exiting successfully. Buy a developer a beer!
