                               Psi4 1.4a3.dev225

  ==> Input File <==

--------------------------------------------------------------------------
#psi4
#
memory 32 gb

molecule  {
0 1
  O       -0.5498120     2.2556960    -0.2996080
  N       -3.0129360     1.7813540     0.8248620
  C        1.0008190     0.4908720    -0.0872200
  C       -1.5329590     0.0859130    -0.1428360
  C       -0.3878030     1.0286420    -0.1846270
  C        3.6793340    -0.3535020     0.1683990
  C       -2.8127890     0.5150010     0.2964470
  C        1.3212360    -0.6095270     0.7211930
  C        2.0273690     1.1786660    -0.7492360
  C        2.6489240    -1.0168440     0.8468500
  C        3.3454510     0.7479200    -0.6334830
  C       -1.3791480    -1.2185740    -0.6492330
  C       -3.8612840    -0.4227650     0.3079770
  C       -2.4390410    -2.1168890    -0.6711390
  C        5.1038640    -0.8322750     0.2664150
  C       -3.7303567    -1.6950648    -0.1682786
  H        0.5383950    -1.1258400     1.2710410
  H        1.7737210     2.0503190    -1.3473030
  H        2.8902070    -1.8603380     1.4919100
  H        4.1335430     1.2826870    -1.1615780
  H       -0.4095800    -1.5185310    -1.0371660
  H       -4.8387790    -0.1097830     0.6721110
  H       -2.3031150    -3.1155080    -1.0770870
  H        5.8059070     0.0022690     0.1830070
  H        5.2850310    -1.3360150     1.2200590
  H        5.3367840    -1.5427250    -0.5345020
  H       -4.5250650    -2.4017370    -0.1822600
  H       -2.3845940     2.4838010     0.4485930
  H       -3.9825350     2.0742830     0.8527820
units angstrom
no_reorient  #important for SAPT in psi4, default
symmetry c1  #important for SAPT in psi4, default
}

set PROPERTIES_ORIGIN ["COM"]
properties('MP2/aug-cc-pvtz', properties = ['dipole'])
--------------------------------------------------------------------------

    Molecular point group: c1
  Charge       = 0
  Multiplicity = 1
  Basis Set: AUG-CC-PVTZ
    Blend: AUG-CC-PVTZ
  Basis Set: (AUG-CC-PVTZ AUX)
    Blend: AUG-CC-PVTZ-JKFIT

    Orbital Energies [Eh]
    ---------------------

    Doubly Occupied:

       1A    -20.537324     2A    -15.561848     3A    -11.337779
       4A    -11.299081     5A    -11.256962     6A    -11.253751
       7A    -11.250292     8A    -11.250178     9A    -11.245924
      10A    -11.243100    11A    -11.238738    12A    -11.237670
      13A    -11.237440    14A    -11.232949    15A    -11.232106
      16A    -11.231995    17A     -1.370464    18A     -1.227827
      19A     -1.164763    20A     -1.134334    21A     -1.069333
      22A     -1.036441    23A     -1.020474    24A     -0.993576
      25A     -0.954339    26A     -0.877902    27A     -0.838138
      28A     -0.834671    29A     -0.814234    30A     -0.766025
      31A     -0.712044    32A     -0.694768    33A     -0.687871
      34A     -0.660804    35A     -0.644660    36A     -0.635988
      37A     -0.612858    38A     -0.604371    39A     -0.599733
      40A     -0.592122    41A     -0.584476    42A     -0.583663
      43A     -0.555728    44A     -0.546583    45A     -0.537841
      46A     -0.518290    47A     -0.510789    48A     -0.499593
      49A     -0.493100    50A     -0.481358    51A     -0.449955
      52A     -0.418521    53A     -0.353061    54A     -0.343118
      55A     -0.333585    56A     -0.297503

  @DF-RHF Final Energy:  -667.27357530084214

   => Energetics <=

    Nuclear Repulsion Energy =            992.3544064285465538
    One-Electron Energy =               -2875.8518791427327415
    Two-Electron Energy =                1216.2238974133440479
    Total Energy =                       -667.2735753008421398
  Basis Set: (AUG-CC-PVTZ AUX)
    Blend: AUG-CC-PVTZ-RI
    Molecular point group: c1

    Geometry (in Angstrom), charge = 0, multiplicity = 1:

       Center              X                  Y                   Z               Mass
    ------------   -----------------  -----------------  -----------------  -----------------
         O           -0.512843842080     2.230846058216    -0.296855765105    15.994914619570
         N           -2.975967842080     1.756504058216     0.827614234895    14.003074004430
         C            1.037787157920     0.466022058216    -0.084467765105    12.000000000000
         C           -1.495990842080     0.061063058216    -0.140083765105    12.000000000000
         C           -0.350834842080     1.003792058216    -0.181874765105    12.000000000000
         C            3.716302157920    -0.378351941784     0.171151234895    12.000000000000
         C           -2.775820842080     0.490151058216     0.299199234895    12.000000000000
         C            1.358204157920    -0.634376941784     0.723945234895    12.000000000000
         C            2.064337157920     1.153816058216    -0.746483765105    12.000000000000
         C            2.685892157920    -1.041693941784     0.849602234895    12.000000000000
         C            3.382419157920     0.723070058216    -0.630730765105    12.000000000000
         C           -1.342179842080    -1.243423941784    -0.646480765105    12.000000000000
         C           -3.824315842080    -0.447614941784     0.310729234895    12.000000000000
         C           -2.402072842080    -2.141738941784    -0.668386765105    12.000000000000
         C            5.140832157920    -0.857124941784     0.269167234895    12.000000000000
         C           -3.693388542080    -1.719914741784    -0.165526365105    12.000000000000
         H            0.575363157920    -1.150689941784     1.273793234895     1.007825032230
         H            1.810689157920     2.025469058216    -1.344550765105     1.007825032230
         H            2.927175157920    -1.885187941784     1.494662234895     1.007825032230
         H            4.170511157920     1.257837058216    -1.158825765105     1.007825032230
         H           -0.372611842080    -1.543380941784    -1.034413765105     1.007825032230
         H           -4.801810842080    -0.134632941784     0.674863234895     1.007825032230
         H           -2.266146842080    -3.140357941784    -1.074334765105     1.007825032230
         H            5.842875157920    -0.022580941784     0.185759234895     1.007825032230
         H            5.321999157920    -1.360864941784     1.222811234895     1.007825032230
         H            5.373752157920    -1.567574941784    -0.531749765105     1.007825032230
         H           -4.488096842080    -2.426586941784    -0.179507765105     1.007825032230
         H           -2.347625842080     2.458951058216     0.451345234895     1.007825032230
         H           -3.945566842080     2.049433058216     0.855534234895     1.007825032230

  Basis Set: AUG-CC-PVTZ
    Blend: AUG-CC-PVTZ
  Basis Set: (AUG-CC-PVTZ AUX)
    Blend: AUG-CC-PVTZ-JKFIT
	 Reference Energy          =    -667.2735753008421398 [Eh]
	 Singles Energy            =      -0.0000000000000000 [Eh]
	 Same-Spin Energy          =      -0.7353853175333955 [Eh]
	 Opposite-Spin Energy      =      -2.2657517187093692 [Eh]
	 Correlation Energy        =      -3.0011370362427647 [Eh]
	 Total Energy              =    -670.2747123370849067 [Eh]

	 ================> DF-SCS-MP2 Energies <==================
	-----------------------------------------------------------
	 SCS Same-Spin Scale       =       0.3333333333333333 [-]
	 SCS Opposite-Spin Scale   =       1.2000000000000000 [-]
	 SCS Same-Spin Energy      =      -0.2451284391777985 [Eh]
	 SCS Opposite-Spin Energy  =      -2.7189020624512428 [Eh]
	 SCS Correlation Energy    =      -2.9640305016290411 [Eh]
	 SCS Total Energy          =    -670.2376058024711938 [Eh]
	-----------------------------------------------------------

  Dipole Moment: [D]
     X:     0.2910      Y:    -1.8073      Z:    -0.0872     Total:     1.8326

*** Psi4 exiting successfully. Buy a developer a beer!
