                               Psi4 1.4a3.dev225

  ==> Input File <==

--------------------------------------------------------------------------
#psi4
#
memory 32 gb

molecule  {
0 1
  O       -0.5498120     2.2556960    -0.2996080
  N       -3.0129360     1.7813540     0.8248620
  C        1.0008190     0.4908720    -0.0872200
  C       -1.5329590     0.0859130    -0.1428360
  C       -0.3878030     1.0286420    -0.1846270
  C        3.6793340    -0.3535020     0.1683990
  C       -2.8127890     0.5150010     0.2964470
  C        1.3212360    -0.6095270     0.7211930
  C        2.0273690     1.1786660    -0.7492360
  C        2.6489240    -1.0168440     0.8468500
  C        3.3454510     0.7479200    -0.6334830
  C       -1.3791480    -1.2185740    -0.6492330
  C       -3.8612840    -0.4227650     0.3079770
  C       -2.4390410    -2.1168890    -0.6711390
  C        5.1038640    -0.8322750     0.2664150
  C       -3.6857840    -1.7096250    -0.1856360
  H        0.5383950    -1.1258400     1.2710410
  H        1.7503886     2.1305000    -1.4023176
  H        2.8902070    -1.8603380     1.4919100
  H        4.1335430     1.2826870    -1.1615780
  H       -0.4095800    -1.5185310    -1.0371660
  H       -4.8387790    -0.1097830     0.6721110
  H       -2.3031150    -3.1155080    -1.0770870
  H        5.8059070     0.0022690     0.1830070
  H        5.2850310    -1.3360150     1.2200590
  H        5.3367840    -1.5427250    -0.5345020
  H       -4.5250650    -2.4017370    -0.1822600
  H       -2.3845940     2.4838010     0.4485930
  H       -3.9825350     2.0742830     0.8527820
units angstrom
no_reorient  #important for SAPT in psi4, default
symmetry c1  #important for SAPT in psi4, default
}

set PROPERTIES_ORIGIN ["COM"]
properties('MP2/aug-cc-pvtz', properties = ['dipole'])
--------------------------------------------------------------------------

    Molecular point group: c1
  Charge       = 0
  Multiplicity = 1
  Basis Set: AUG-CC-PVTZ
    Blend: AUG-CC-PVTZ
  Basis Set: (AUG-CC-PVTZ AUX)
    Blend: AUG-CC-PVTZ-JKFIT

    Orbital Energies [Eh]
    ---------------------

    Doubly Occupied:

       1A    -20.537840     2A    -15.560005     3A    -11.338464
       4A    -11.296896     5A    -11.257784     6A    -11.256518
       7A    -11.252725     8A    -11.252262     9A    -11.251124
      10A    -11.244433    11A    -11.239277    12A    -11.239130
      13A    -11.238419    14A    -11.233479    15A    -11.231965
      16A    -11.228307    17A     -1.370892    18A     -1.226543
      19A     -1.165157    20A     -1.137111    21A     -1.069603
      22A     -1.033937    23A     -1.018948    24A     -0.996548
      25A     -0.954858    26A     -0.876452    27A     -0.836623
      28A     -0.836345    29A     -0.810614    30A     -0.764969
      31A     -0.712544    32A     -0.690898    33A     -0.686138
      34A     -0.660205    35A     -0.642272    36A     -0.633040
      37A     -0.613774    38A     -0.603700    39A     -0.599990
      40A     -0.586126    41A     -0.584337    42A     -0.583263
      43A     -0.555417    44A     -0.544734    45A     -0.531618
      46A     -0.518134    47A     -0.512847    48A     -0.504153
      49A     -0.488245    50A     -0.482157    51A     -0.452291
      52A     -0.418883    53A     -0.349771    54A     -0.343305
      55A     -0.334301    56A     -0.300358

  @DF-RHF Final Energy:  -667.26893511926232

   => Energetics <=

    Nuclear Repulsion Energy =            992.3860173518095280
    One-Electron Energy =               -2875.9304515766934855
    Two-Electron Energy =                1216.2754991056215204
    Total Energy =                       -667.2689351192623235
  Basis Set: (AUG-CC-PVTZ AUX)
    Blend: AUG-CC-PVTZ-RI
    Molecular point group: c1

    Geometry (in Angstrom), charge = 0, multiplicity = 1:

       Center              X                  Y                   Z               Mass
    ------------   -----------------  -----------------  -----------------  -----------------
         O           -0.515266192227     2.231290937934    -0.295606431859    15.994914619570
         N           -2.978390192227     1.756948937934     0.828863568141    14.003074004430
         C            1.035364807773     0.466466937934    -0.083218431859    12.000000000000
         C           -1.498413192227     0.061507937934    -0.138834431859    12.000000000000
         C           -0.353257192227     1.004236937934    -0.180625431859    12.000000000000
         C            3.713879807773    -0.377907062066     0.172400568141    12.000000000000
         C           -2.778243192227     0.490595937934     0.300448568141    12.000000000000
         C            1.355781807773    -0.633932062066     0.725194568141    12.000000000000
         C            2.061914807773     1.154260937934    -0.745234431859    12.000000000000
         C            2.683469807773    -1.041249062066     0.850851568141    12.000000000000
         C            3.379996807773     0.723514937934    -0.629481431859    12.000000000000
         C           -1.344602192227    -1.242979062066    -0.645231431859    12.000000000000
         C           -3.826738192227    -0.447170062066     0.311978568141    12.000000000000
         C           -2.404495192227    -2.141294062066    -0.667137431859    12.000000000000
         C            5.138409807773    -0.856680062066     0.270416568141    12.000000000000
         C           -3.651238192227    -1.734030062066    -0.181634431859    12.000000000000
         H            0.572940807773    -1.150245062066     1.275042568141     1.007825032230
         H            1.784934407773     2.106094937934    -1.398316031859     1.007825032230
         H            2.924752807773    -1.884743062066     1.495911568141     1.007825032230
         H            4.168088807773     1.258281937934    -1.157576431859     1.007825032230
         H           -0.375034192227    -1.542936062066    -1.033164431859     1.007825032230
         H           -4.804233192227    -0.134188062066     0.676112568141     1.007825032230
         H           -2.268569192227    -3.139913062066    -1.073085431859     1.007825032230
         H            5.840452807773    -0.022136062066     0.187008568141     1.007825032230
         H            5.319576807773    -1.360420062066     1.224060568141     1.007825032230
         H            5.371329807773    -1.567130062066    -0.530500431859     1.007825032230
         H           -4.490519192227    -2.426142062066    -0.178258431859     1.007825032230
         H           -2.350048192227     2.459395937934     0.452594568141     1.007825032230
         H           -3.947989192227     2.049877937934     0.856783568141     1.007825032230

  Basis Set: AUG-CC-PVTZ
    Blend: AUG-CC-PVTZ
  Basis Set: (AUG-CC-PVTZ AUX)
    Blend: AUG-CC-PVTZ-JKFIT
	 Reference Energy          =    -667.2689351192623235 [Eh]
	 Singles Energy            =      -0.0000000000000000 [Eh]
	 Same-Spin Energy          =      -0.7358941116561282 [Eh]
	 Opposite-Spin Energy      =      -2.2666454139777197 [Eh]
	 Correlation Energy        =      -3.0025395256338481 [Eh]
	 Total Energy              =    -670.2714746448962160 [Eh]

	 ================> DF-SCS-MP2 Energies <==================
	-----------------------------------------------------------
	 SCS Same-Spin Scale       =       0.3333333333333333 [-]
	 SCS Opposite-Spin Scale   =       1.2000000000000000 [-]
	 SCS Same-Spin Energy      =      -0.2452980372187094 [Eh]
	 SCS Opposite-Spin Energy  =      -2.7199744967732635 [Eh]
	 SCS Correlation Energy    =      -2.9652725339919730 [Eh]
	 SCS Total Energy          =    -670.2342076532543160 [Eh]
	-----------------------------------------------------------

  Dipole Moment: [D]
     X:     0.3504      Y:    -1.8210      Z:    -0.0926     Total:     1.8567

*** Psi4 exiting successfully. Buy a developer a beer!
