                               Psi4 1.4a3.dev225

  ==> Input File <==

--------------------------------------------------------------------------
#psi4
#
memory 32 gb

molecule  {
0 1
  O       -0.5498120     2.2556960    -0.2996080
  N       -3.0129360     1.7813540     0.8248620
  C        1.0008190     0.4908720    -0.0872200
  C       -1.5329590     0.0859130    -0.1428360
  C       -0.3878030     1.0286420    -0.1846270
  C        3.6793340    -0.3535020     0.1683990
  C       -2.8127890     0.5150010     0.2964470
  C        1.3212360    -0.6095270     0.7211930
  C        2.0273690     1.1786660    -0.7492360
  C        2.6489240    -1.0168440     0.8468500
  C        3.3454510     0.7479200    -0.6334830
  C       -1.3791480    -1.2185740    -0.6492330
  C       -3.8612840    -0.4227650     0.3079770
  C       -2.4390410    -2.1168890    -0.6711390
  C        5.1038640    -0.8322750     0.2664150
  C       -3.6679549    -1.7154491    -0.1925789
  H        0.5383950    -1.1258400     1.2710410
  H        1.7737210     2.0503190    -1.3473030
  H        2.8902070    -1.8603380     1.4919100
  H        4.1335430     1.2826870    -1.1615780
  H       -0.4095800    -1.5185310    -1.0371660
  H       -4.8387790    -0.1097830     0.6721110
  H       -2.3031150    -3.1155080    -1.0770870
  H        5.8059070     0.0022690     0.1830070
  H        5.2850310    -1.3360150     1.2200590
  H        5.3367840    -1.5427250    -0.5345020
  H       -4.5250650    -2.4017370    -0.1822600
  H       -2.3845940     2.4838010     0.4485930
  H       -3.9825350     2.0742830     0.8527820
units angstrom
no_reorient  #important for SAPT in psi4, default
symmetry c1  #important for SAPT in psi4, default
}

set PROPERTIES_ORIGIN ["COM"]
properties('MP2/aug-cc-pvtz', properties = ['dipole'])
--------------------------------------------------------------------------

    Molecular point group: c1
  Charge       = 0
  Multiplicity = 1
  Basis Set: AUG-CC-PVTZ
    Blend: AUG-CC-PVTZ
  Basis Set: (AUG-CC-PVTZ AUX)
    Blend: AUG-CC-PVTZ-JKFIT

    Orbital Energies [Eh]
    ---------------------

    Doubly Occupied:

       1A    -20.538301     2A    -15.559286     3A    -11.338778
       4A    -11.296013     5A    -11.257496     6A    -11.253073
       7A    -11.252187     8A    -11.250760     9A    -11.246494
      10A    -11.243744    11A    -11.239735    12A    -11.239255
      13A    -11.237964    14A    -11.233349    15A    -11.231895
      16A    -11.226641    17A     -1.371327    18A     -1.226056
      19A     -1.165386    20A     -1.138456    21A     -1.069751
      22A     -1.034110    23A     -1.020679    24A     -0.997500
      25A     -0.954718    26A     -0.876843    27A     -0.839248
      28A     -0.837059    29A     -0.812450    30A     -0.766213
      31A     -0.713064    32A     -0.691079    33A     -0.685306
      34A     -0.661366    35A     -0.645451    36A     -0.636719
      37A     -0.614990    38A     -0.603477    39A     -0.599878
      40A     -0.592872    41A     -0.584918    42A     -0.583879
      43A     -0.555919    44A     -0.544339    45A     -0.528795
      46A     -0.517787    47A     -0.514640    48A     -0.505934
      49A     -0.493654    50A     -0.482243    51A     -0.453359
      52A     -0.419073    53A     -0.348767    54A     -0.342991
      55A     -0.334127    56A     -0.301413

  @DF-RHF Final Energy:  -667.27610151411488

   => Energetics <=

    Nuclear Repulsion Energy =            993.1016469129274356
    One-Electron Energy =               -2877.3338792968202142
    Two-Electron Energy =                1216.9561308697777804
    Total Energy =                       -667.2761015141149983
  Basis Set: (AUG-CC-PVTZ AUX)
    Blend: AUG-CC-PVTZ-RI
    Molecular point group: c1

    Geometry (in Angstrom), charge = 0, multiplicity = 1:

       Center              X                  Y                   Z               Mass
    ------------   -----------------  -----------------  -----------------  -----------------
         O           -0.516391083266     2.232004807299    -0.295474410320    15.994914619570
         N           -2.979515083266     1.757662807299     0.828995589680    14.003074004430
         C            1.034239916734     0.467180807299    -0.083086410320    12.000000000000
         C           -1.499538083266     0.062221807299    -0.138702410320    12.000000000000
         C           -0.354382083266     1.004950807299    -0.180493410320    12.000000000000
         C            3.712754916734    -0.377193192701     0.172532589680    12.000000000000
         C           -2.779368083266     0.491309807299     0.300580589680    12.000000000000
         C            1.354656916734    -0.633218192701     0.725326589680    12.000000000000
         C            2.060789916734     1.154974807299    -0.745102410320    12.000000000000
         C            2.682344916734    -1.040535192701     0.850983589680    12.000000000000
         C            3.378871916734     0.724228807299    -0.629349410320    12.000000000000
         C           -1.345727083266    -1.242265192701    -0.645099410320    12.000000000000
         C           -3.827863083266    -0.446456192701     0.312110589680    12.000000000000
         C           -2.405620083266    -2.140580192701    -0.667005410320    12.000000000000
         C            5.137284916734    -0.855966192701     0.270548589680    12.000000000000
         C           -3.634533983266    -1.739140292701    -0.188445310320    12.000000000000
         H            0.571815916734    -1.149531192701     1.275174589680     1.007825032230
         H            1.807141916734     2.026627807299    -1.343169410320     1.007825032230
         H            2.923627916734    -1.884029192701     1.496043589680     1.007825032230
         H            4.166963916734     1.258995807299    -1.157444410320     1.007825032230
         H           -0.376159083266    -1.542222192701    -1.033032410320     1.007825032230
         H           -4.805358083266    -0.133474192701     0.676244589680     1.007825032230
         H           -2.269694083266    -3.139199192701    -1.072953410320     1.007825032230
         H            5.839327916734    -0.021422192701     0.187140589680     1.007825032230
         H            5.318451916734    -1.359706192701     1.224192589680     1.007825032230
         H            5.370204916734    -1.566416192701    -0.530368410320     1.007825032230
         H           -4.491644083266    -2.425428192701    -0.178126410320     1.007825032230
         H           -2.351173083266     2.460109807299     0.452726589680     1.007825032230
         H           -3.949114083266     2.050591807299     0.856915589680     1.007825032230

  Basis Set: AUG-CC-PVTZ
    Blend: AUG-CC-PVTZ
  Basis Set: (AUG-CC-PVTZ AUX)
    Blend: AUG-CC-PVTZ-JKFIT
	 Reference Energy          =    -667.2761015141148846 [Eh]
	 Singles Energy            =      -0.0000000000000000 [Eh]
	 Same-Spin Energy          =      -0.7355599605917744 [Eh]
	 Opposite-Spin Energy      =      -2.2654945914819784 [Eh]
	 Correlation Energy        =      -3.0010545520737528 [Eh]
	 Total Energy              =    -670.2771560661885815 [Eh]

	 ================> DF-SCS-MP2 Energies <==================
	-----------------------------------------------------------
	 SCS Same-Spin Scale       =       0.3333333333333333 [-]
	 SCS Opposite-Spin Scale   =       1.2000000000000000 [-]
	 SCS Same-Spin Energy      =      -0.2451866535305915 [Eh]
	 SCS Opposite-Spin Energy  =      -2.7185935097783740 [Eh]
	 SCS Correlation Energy    =      -2.9637801633089653 [Eh]
	 SCS Total Energy          =    -670.2398816774237957 [Eh]
	-----------------------------------------------------------

  Dipole Moment: [D]
     X:     0.3785      Y:    -1.8173      Z:    -0.1131     Total:     1.8597

*** Psi4 exiting successfully. Buy a developer a beer!
