                               Psi4 1.4a3.dev225

  ==> Input File <==

--------------------------------------------------------------------------
#psi4
#
memory 32 gb

molecule  {
0 1
  O       -0.5498120     2.2556960    -0.2996080
  N       -3.0129360     1.7813540     0.8248620
  C        1.0008190     0.4908720    -0.0872200
  C       -1.5329590     0.0859130    -0.1428360
  C       -0.3878030     1.0286420    -0.1846270
  C        3.6793340    -0.3535020     0.1683990
  C       -2.8127890     0.5150010     0.2964470
  C        1.3212360    -0.6095270     0.7211930
  C        2.0273690     1.1786660    -0.7492360
  C        2.6489240    -1.0168440     0.8468500
  C        3.3454510     0.7479200    -0.6334830
  C       -1.3791480    -1.2185740    -0.6492330
  C       -3.8612840    -0.4227650     0.3079770
  C       -2.4390410    -2.1168890    -0.6711390
  C        5.1038640    -0.8322750     0.2664150
  C       -3.6857840    -1.7096250    -0.1856360
  H        0.5383950    -1.1258400     1.2710410
  H        1.7737210     2.0503190    -1.3473030
  H        2.8902070    -1.8603380     1.4919100
  H        4.1335430     1.2826870    -1.1615780
  H       -0.4095800    -1.5185310    -1.0371660
  H       -4.8387790    -0.1097830     0.6721110
  H       -2.3031150    -3.1155080    -1.0770870
  H        5.8201692    -0.0071913     0.2171329
  H        5.2850310    -1.3360150     1.2200590
  H        5.3367840    -1.5427250    -0.5345020
  H       -4.5250650    -2.4017370    -0.1822600
  H       -2.3845940     2.4838010     0.4485930
  H       -3.9825350     2.0742830     0.8527820
units angstrom
no_reorient  #important for SAPT in psi4, default
symmetry c1  #important for SAPT in psi4, default
}

set PROPERTIES_ORIGIN ["COM"]
properties('MP2/aug-cc-pvtz', properties = ['dipole'])
--------------------------------------------------------------------------

    Molecular point group: c1
  Charge       = 0
  Multiplicity = 1
  Basis Set: AUG-CC-PVTZ
    Blend: AUG-CC-PVTZ
  Basis Set: (AUG-CC-PVTZ AUX)
    Blend: AUG-CC-PVTZ-JKFIT

    Orbital Energies [Eh]
    ---------------------

    Doubly Occupied:

       1A    -20.538057     2A    -15.560042     3A    -11.338520
       4A    -11.296919     5A    -11.257471     6A    -11.252743
       7A    -11.252276     8A    -11.250593     9A    -11.246290
      10A    -11.243632    11A    -11.239225    12A    -11.239135
      13A    -11.237813    14A    -11.233084    15A    -11.231978
      16A    -11.228315    17A     -1.371111    18A     -1.226579
      19A     -1.165194    20A     -1.137122    21A     -1.069468
      22A     -1.034555    23A     -1.020595    24A     -0.996566
      25A     -0.954609    26A     -0.877092    27A     -0.838788
      28A     -0.836500    29A     -0.813196    30A     -0.766202
      31A     -0.712762    32A     -0.691864    33A     -0.686236
      34A     -0.661174    35A     -0.645068    36A     -0.636424
      37A     -0.614155    38A     -0.603716    39A     -0.599969
      40A     -0.592635    41A     -0.586054    42A     -0.584469
      43A     -0.554809    44A     -0.543095    45A     -0.531535
      46A     -0.518462    47A     -0.513342    48A     -0.504849
      49A     -0.493188    50A     -0.482316    51A     -0.452313
      52A     -0.418964    53A     -0.349741    54A     -0.343073
      55A     -0.334194    56A     -0.300377

  @DF-RHF Final Energy:  -667.27646100729521

   => Energetics <=

    Nuclear Repulsion Energy =            992.8431546285800096
    One-Electron Energy =               -2876.8223243808220104
    Two-Electron Energy =                1216.7027087449466762
    Total Energy =                       -667.2764610072952109
  Basis Set: (AUG-CC-PVTZ AUX)
    Blend: AUG-CC-PVTZ-RI
    Molecular point group: c1

    Geometry (in Angstrom), charge = 0, multiplicity = 1:

       Center              X                  Y                   Z               Mass
    ------------   -----------------  -----------------  -----------------  -----------------
         O           -0.515445675080     2.231718900361    -0.296032003384    15.994914619570
         N           -2.978569675080     1.757376900361     0.828437996616    14.003074004430
         C            1.035185324920     0.466894900361    -0.083644003384    12.000000000000
         C           -1.498592675080     0.061935900361    -0.139260003384    12.000000000000
         C           -0.353436675080     1.004664900361    -0.181051003384    12.000000000000
         C            3.713700324920    -0.377479099639     0.171974996616    12.000000000000
         C           -2.778422675080     0.491023900361     0.300022996616    12.000000000000
         C            1.355602324920    -0.633504099639     0.724768996616    12.000000000000
         C            2.061735324920     1.154688900361    -0.745660003384    12.000000000000
         C            2.683290324920    -1.040821099639     0.850425996616    12.000000000000
         C            3.379817324920     0.723942900361    -0.629907003384    12.000000000000
         C           -1.344781675080    -1.242551099639    -0.645657003384    12.000000000000
         C           -3.826917675080    -0.446742099639     0.311552996616    12.000000000000
         C           -2.404674675080    -2.140866099639    -0.667563003384    12.000000000000
         C            5.138230324920    -0.856252099639     0.269990996616    12.000000000000
         C           -3.651417675080    -1.733602099639    -0.182060003384    12.000000000000
         H            0.572761324920    -1.149817099639     1.274616996616     1.007825032230
         H            1.808087324920     2.026341900361    -1.343727003384     1.007825032230
         H            2.924573324920    -1.884315099639     1.495485996616     1.007825032230
         H            4.167909324920     1.258709900361    -1.158002003384     1.007825032230
         H           -0.375213675080    -1.542508099639    -1.033590003384     1.007825032230
         H           -4.804412675080    -0.133760099639     0.675686996616     1.007825032230
         H           -2.268748675080    -3.139485099639    -1.073511003384     1.007825032230
         H            5.854535524920    -0.031168399639     0.220708896616     1.007825032230
         H            5.319397324920    -1.359992099639     1.223634996616     1.007825032230
         H            5.371150324920    -1.566702099639    -0.530926003384     1.007825032230
         H           -4.490698675080    -2.425714099639    -0.178684003384     1.007825032230
         H           -2.350227675080     2.459823900361     0.452168996616     1.007825032230
         H           -3.948168675080     2.050305900361     0.856357996616     1.007825032230

  Basis Set: AUG-CC-PVTZ
    Blend: AUG-CC-PVTZ
  Basis Set: (AUG-CC-PVTZ AUX)
    Blend: AUG-CC-PVTZ-JKFIT
	 Reference Energy          =    -667.2764610072952109 [Eh]
	 Singles Energy            =      -0.0000000000000000 [Eh]
	 Same-Spin Energy          =      -0.7355134534103340 [Eh]
	 Opposite-Spin Energy      =      -2.2655081580847618 [Eh]
	 Correlation Energy        =      -3.0010216114950961 [Eh]
	 Total Energy              =    -670.2774826187902590 [Eh]

	 ================> DF-SCS-MP2 Energies <==================
	-----------------------------------------------------------
	 SCS Same-Spin Scale       =       0.3333333333333333 [-]
	 SCS Opposite-Spin Scale   =       1.2000000000000000 [-]
	 SCS Same-Spin Energy      =      -0.2451711511367780 [Eh]
	 SCS Opposite-Spin Energy  =      -2.7186097897017141 [Eh]
	 SCS Correlation Energy    =      -2.9637809408384919 [Eh]
	 SCS Total Energy          =    -670.2402419481337574 [Eh]
	-----------------------------------------------------------

  Dipole Moment: [D]
     X:     0.3513      Y:    -1.8103      Z:    -0.0953     Total:     1.8465

*** Psi4 exiting successfully. Buy a developer a beer!
