                               Psi4 1.4a3.dev225

  ==> Input File <==

--------------------------------------------------------------------------
#psi4
#
memory 32 gb

molecule  {
0 1
  O       -0.5498120     2.2556960    -0.2996080
  N       -3.0129360     1.7813540     0.8248620
  C        1.0008190     0.4908720    -0.0872200
  C       -1.5329590     0.0859130    -0.1428360
  C       -0.3878030     1.0286420    -0.1846270
  C        3.6793340    -0.3535020     0.1683990
  C       -2.8127890     0.5150010     0.2964470
  C        1.3684386    -0.6028881     0.7100386
  C        2.0273690     1.1786660    -0.7492360
  C        2.6489240    -1.0168440     0.8468500
  C        3.3454510     0.7479200    -0.6334830
  C       -1.3791480    -1.2185740    -0.6492330
  C       -3.8612840    -0.4227650     0.3079770
  C       -2.4390410    -2.1168890    -0.6711390
  C        5.1038640    -0.8322750     0.2664150
  C       -3.6857840    -1.7096250    -0.1856360
  H        0.5383950    -1.1258400     1.2710410
  H        1.7737210     2.0503190    -1.3473030
  H        2.8902070    -1.8603380     1.4919100
  H        4.1335430     1.2826870    -1.1615780
  H       -0.4095800    -1.5185310    -1.0371660
  H       -4.8387790    -0.1097830     0.6721110
  H       -2.3031150    -3.1155080    -1.0770870
  H        5.8059070     0.0022690     0.1830070
  H        5.2850310    -1.3360150     1.2200590
  H        5.3367840    -1.5427250    -0.5345020
  H       -4.5250650    -2.4017370    -0.1822600
  H       -2.3845940     2.4838010     0.4485930
  H       -3.9825350     2.0742830     0.8527820
units angstrom
no_reorient  #important for SAPT in psi4, default
symmetry c1  #important for SAPT in psi4, default
}

set PROPERTIES_ORIGIN ["COM"]
properties('MP2/aug-cc-pvtz', properties = ['dipole'])
--------------------------------------------------------------------------

    Molecular point group: c1
  Charge       = 0
  Multiplicity = 1
  Basis Set: AUG-CC-PVTZ
    Blend: AUG-CC-PVTZ
  Basis Set: (AUG-CC-PVTZ AUX)
    Blend: AUG-CC-PVTZ-JKFIT

    Orbital Energies [Eh]
    ---------------------

    Doubly Occupied:

       1A    -20.538495     2A    -15.560006     3A    -11.339607
       4A    -11.296827     5A    -11.257910     6A    -11.252638
       7A    -11.252242     8A    -11.248880     9A    -11.246496
      10A    -11.242471    11A    -11.239069    12A    -11.236685
      13A    -11.234350    14A    -11.233395    15A    -11.231852
      16A    -11.228182    17A     -1.371459    18A     -1.226520
      19A     -1.169000    20A     -1.137125    21A     -1.068777
      22A     -1.034770    23A     -1.024830    24A     -0.996488
      25A     -0.956008    26A     -0.877121    27A     -0.837676
      28A     -0.833612    29A     -0.813680    30A     -0.767681
      31A     -0.712883    32A     -0.691715    33A     -0.686275
      34A     -0.663696    35A     -0.644345    36A     -0.632160
      37A     -0.615106    38A     -0.603549    39A     -0.601152
      40A     -0.590403    41A     -0.584956    42A     -0.584172
      43A     -0.555172    44A     -0.545202    45A     -0.532276
      46A     -0.518743    47A     -0.513967    48A     -0.505909
      49A     -0.487430    50A     -0.483103    51A     -0.452054
      52A     -0.420149    53A     -0.350765    54A     -0.346302
      55A     -0.332748    56A     -0.300257

  @DF-RHF Final Energy:  -667.27391957817679

   => Energetics <=

    Nuclear Repulsion Energy =            993.1900255652070655
    One-Electron Energy =               -2877.5112071023436329
    Two-Electron Energy =                1217.0472619589595524
    Total Energy =                       -667.2739195781769013
  Basis Set: (AUG-CC-PVTZ AUX)
    Blend: AUG-CC-PVTZ-RI
    Molecular point group: c1

    Geometry (in Angstrom), charge = 0, multiplicity = 1:

       Center              X                  Y                   Z               Mass
    ------------   -----------------  -----------------  -----------------  -----------------
         O           -0.518060824988     2.231296345894    -0.295235006870    15.994914619570
         N           -2.981184824988     1.756954345894     0.829234993130    14.003074004430
         C            1.032570175012     0.466472345894    -0.082847006870    12.000000000000
         C           -1.501207824988     0.061513345894    -0.138463006870    12.000000000000
         C           -0.356051824988     1.004242345894    -0.180254006870    12.000000000000
         C            3.711085175012    -0.377901654106     0.172771993130    12.000000000000
         C           -2.781037824988     0.490601345894     0.300819993130    12.000000000000
         C            1.400189775012    -0.627287754106     0.714411593130    12.000000000000
         C            2.059120175012     1.154266345894    -0.744863006870    12.000000000000
         C            2.680675175012    -1.041243654106     0.851222993130    12.000000000000
         C            3.377202175012     0.723520345894    -0.629110006870    12.000000000000
         C           -1.347396824988    -1.242973654106    -0.644860006870    12.000000000000
         C           -3.829532824988    -0.447164654106     0.312349993130    12.000000000000
         C           -2.407289824988    -2.141288654106    -0.666766006870    12.000000000000
         C            5.135615175012    -0.856674654106     0.270787993130    12.000000000000
         C           -3.654032824988    -1.734024654106    -0.181263006870    12.000000000000
         H            0.570146175012    -1.150239654106     1.275413993130     1.007825032230
         H            1.805472175012     2.025919345894    -1.342930006870     1.007825032230
         H            2.921958175012    -1.884737654106     1.496282993130     1.007825032230
         H            4.165294175012     1.258287345894    -1.157205006870     1.007825032230
         H           -0.377828824988    -1.542930654106    -1.032793006870     1.007825032230
         H           -4.807027824988    -0.134182654106     0.676483993130     1.007825032230
         H           -2.271363824988    -3.139907654106    -1.072714006870     1.007825032230
         H            5.837658175012    -0.022130654106     0.187379993130     1.007825032230
         H            5.316782175012    -1.360414654106     1.224431993130     1.007825032230
         H            5.368535175012    -1.567124654106    -0.530129006870     1.007825032230
         H           -4.493313824988    -2.426136654106    -0.177887006870     1.007825032230
         H           -2.352842824988     2.459401345894     0.452965993130     1.007825032230
         H           -3.950783824988     2.049883345894     0.857154993130     1.007825032230

  Basis Set: AUG-CC-PVTZ
    Blend: AUG-CC-PVTZ
  Basis Set: (AUG-CC-PVTZ AUX)
    Blend: AUG-CC-PVTZ-JKFIT
	 Reference Energy          =    -667.2739195781767876 [Eh]
	 Singles Energy            =      -0.0000000000000000 [Eh]
	 Same-Spin Energy          =      -0.7355289151307584 [Eh]
	 Opposite-Spin Energy      =      -2.2653547958385301 [Eh]
	 Correlation Energy        =      -3.0008837109692883 [Eh]
	 Total Energy              =    -670.2748032891461207 [Eh]

	 ================> DF-SCS-MP2 Energies <==================
	-----------------------------------------------------------
	 SCS Same-Spin Scale       =       0.3333333333333333 [-]
	 SCS Opposite-Spin Scale   =       1.2000000000000000 [-]
	 SCS Same-Spin Energy      =      -0.2451763050435861 [Eh]
	 SCS Opposite-Spin Energy  =      -2.7184257550062361 [Eh]
	 SCS Correlation Energy    =      -2.9636020600498223 [Eh]
	 SCS Total Energy          =    -670.2375216382265535 [Eh]
	-----------------------------------------------------------

  Dipole Moment: [D]
     X:     0.3496      Y:    -1.8074      Z:    -0.1148     Total:     1.8445

*** Psi4 exiting successfully. Buy a developer a beer!
