                               Psi4 1.4a3.dev225

  ==> Input File <==

--------------------------------------------------------------------------
#psi4
#
memory 32 gb

molecule  {
0 1
  O       -0.5498120     2.2556960    -0.2996080
  N       -3.0129360     1.7813540     0.8248620
  C        1.0008190     0.4908720    -0.0872200
  C       -1.5329590     0.0859130    -0.1428360
  C       -0.3878030     1.0286420    -0.1846270
  C        3.6793340    -0.3535020     0.1683990
  C       -2.8127890     0.5150010     0.2964470
  C        1.3212360    -0.6095270     0.7211930
  C        2.0273690     1.1786660    -0.7492360
  C        2.6489240    -1.0168440     0.8468500
  C        3.3454510     0.7479200    -0.6334830
  C       -1.3791480    -1.2185740    -0.6492330
  C       -3.8612840    -0.4227650     0.3079770
  C       -2.4390410    -2.1168890    -0.6711390
  C        5.1038640    -0.8322750     0.2664150
  C       -3.6857840    -1.7096250    -0.1856360
  H        0.5383950    -1.1258400     1.2710410
  H        1.7737210     2.0503190    -1.3473030
  H        2.8902070    -1.8603380     1.4919100
  H        4.1335430     1.2826870    -1.1615780
  H       -0.4095800    -1.5185310    -1.0371660
  H       -4.8567302    -0.1040352     0.6787981
  H       -2.3031150    -3.1155080    -1.0770870
  H        5.8059070     0.0022690     0.1830070
  H        5.2850310    -1.3360150     1.2200590
  H        5.3367840    -1.5427250    -0.5345020
  H       -4.5250650    -2.4017370    -0.1822600
  H       -2.3845940     2.4838010     0.4485930
  H       -3.9825350     2.0742830     0.8527820
units angstrom
no_reorient  #important for SAPT in psi4, default
symmetry c1  #important for SAPT in psi4, default
}

set PROPERTIES_ORIGIN ["COM"]
properties('MP2/aug-cc-pvtz', properties = ['dipole'])
--------------------------------------------------------------------------

    Molecular point group: c1
  Charge       = 0
  Multiplicity = 1
  Basis Set: AUG-CC-PVTZ
    Blend: AUG-CC-PVTZ
  Basis Set: (AUG-CC-PVTZ AUX)
    Blend: AUG-CC-PVTZ-JKFIT

    Orbital Energies [Eh]
    ---------------------

    Doubly Occupied:

       1A    -20.538072     2A    -15.559992     3A    -11.338561
       4A    -11.297110     5A    -11.257374     6A    -11.252925
       7A    -11.252340     8A    -11.250630     9A    -11.246366
      10A    -11.243602    11A    -11.239264    12A    -11.239137
      13A    -11.237844    14A    -11.234306    15A    -11.233257
      16A    -11.228448    17A     -1.371129    18A     -1.226522
      19A     -1.165240    20A     -1.137175    21A     -1.069570
      22A     -1.034386    23A     -1.020616    24A     -0.996269
      25A     -0.954638    26A     -0.877057    27A     -0.838666
      28A     -0.835826    29A     -0.813079    30A     -0.766028
      31A     -0.711972    32A     -0.691726    33A     -0.686137
      34A     -0.661178    35A     -0.644970    36A     -0.636259
      37A     -0.614281    38A     -0.602999    39A     -0.599164
      40A     -0.592599    41A     -0.584616    42A     -0.583410
      43A     -0.555879    44A     -0.544728    45A     -0.532022
      46A     -0.518102    47A     -0.512817    48A     -0.504326
      49A     -0.493525    50A     -0.482056    51A     -0.452348
      52A     -0.418974    53A     -0.349826    54A     -0.343135
      55A     -0.334010    56A     -0.300448

  @DF-RHF Final Energy:  -667.27593780293307

   => Energetics <=

    Nuclear Repulsion Energy =            992.7729216747438841
    One-Electron Energy =               -2876.6838462058021832
    Two-Electron Energy =                1216.6349867281253410
    Total Energy =                       -667.2759378029329582
  Basis Set: (AUG-CC-PVTZ AUX)
    Blend: AUG-CC-PVTZ-RI
    Molecular point group: c1

    Geometry (in Angstrom), charge = 0, multiplicity = 1:

       Center              X                  Y                   Z               Mass
    ------------   -----------------  -----------------  -----------------  -----------------
         O           -0.515291882968     2.231646294370    -0.295901006004    15.994914619570
         N           -2.978415882968     1.757304294370     0.828568993996    14.003074004430
         C            1.035339117032     0.466822294370    -0.083513006004    12.000000000000
         C           -1.498438882968     0.061863294370    -0.139129006004    12.000000000000
         C           -0.353282882968     1.004592294370    -0.180920006004    12.000000000000
         C            3.713854117032    -0.377551705630     0.172105993996    12.000000000000
         C           -2.778268882968     0.490951294370     0.300153993996    12.000000000000
         C            1.355756117032    -0.633576705630     0.724899993996    12.000000000000
         C            2.061889117032     1.154616294370    -0.745529006004    12.000000000000
         C            2.683444117032    -1.040893705630     0.850556993996    12.000000000000
         C            3.379971117032     0.723870294370    -0.629776006004    12.000000000000
         C           -1.344627882968    -1.242623705630    -0.645526006004    12.000000000000
         C           -3.826763882968    -0.446814705630     0.311683993996    12.000000000000
         C           -2.404520882968    -2.140938705630    -0.667432006004    12.000000000000
         C            5.138384117032    -0.856324705630     0.270121993996    12.000000000000
         C           -3.651263882968    -1.733674705630    -0.181929006004    12.000000000000
         H            0.572915117032    -1.149889705630     1.274747993996     1.007825032230
         H            1.808241117032     2.026269294370    -1.343596006004     1.007825032230
         H            2.924727117032    -1.884387705630     1.495616993996     1.007825032230
         H            4.168063117032     1.258637294370    -1.157871006004     1.007825032230
         H           -0.375059882968    -1.542580705630    -1.033459006004     1.007825032230
         H           -4.822210082968    -0.128084905630     0.682505093996     1.007825032230
         H           -2.268594882968    -3.139557705630    -1.073380006004     1.007825032230
         H            5.840427117032    -0.021780705630     0.186713993996     1.007825032230
         H            5.319551117032    -1.360064705630     1.223765993996     1.007825032230
         H            5.371304117032    -1.566774705630    -0.530795006004     1.007825032230
         H           -4.490544882968    -2.425786705630    -0.178553006004     1.007825032230
         H           -2.350073882968     2.459751294370     0.452299993996     1.007825032230
         H           -3.948014882968     2.050233294370     0.856488993996     1.007825032230

  Basis Set: AUG-CC-PVTZ
    Blend: AUG-CC-PVTZ
  Basis Set: (AUG-CC-PVTZ AUX)
    Blend: AUG-CC-PVTZ-JKFIT
	 Reference Energy          =    -667.2759378029330719 [Eh]
	 Singles Energy            =      -0.0000000000000000 [Eh]
	 Same-Spin Energy          =      -0.7355694940957661 [Eh]
	 Opposite-Spin Energy      =      -2.2656705174263561 [Eh]
	 Correlation Energy        =      -3.0012400115221221 [Eh]
	 Total Energy              =    -670.2771778144551718 [Eh]

	 ================> DF-SCS-MP2 Energies <==================
	-----------------------------------------------------------
	 SCS Same-Spin Scale       =       0.3333333333333333 [-]
	 SCS Opposite-Spin Scale   =       1.2000000000000000 [-]
	 SCS Same-Spin Energy      =      -0.2451898313652554 [Eh]
	 SCS Opposite-Spin Energy  =      -2.7188046209116270 [Eh]
	 SCS Correlation Energy    =      -2.9639944522768822 [Eh]
	 SCS Total Energy          =    -670.2399322552099648 [Eh]
	-----------------------------------------------------------

  Dipole Moment: [D]
     X:     0.3616      Y:    -1.8173      Z:    -0.1082     Total:     1.8561

*** Psi4 exiting successfully. Buy a developer a beer!
