                               Psi4 1.4a3.dev225

  ==> Input File <==

--------------------------------------------------------------------------
#psi4
#
memory 32 gb

molecule  {
0 1
  O       -0.5498120     2.2556960    -0.2996080
  N       -3.0129360     1.7813540     0.8248620
  C        1.0008190     0.4908720    -0.0872200
  C       -1.5329590     0.0859130    -0.1428360
  C       -0.3878030     1.0286420    -0.1846270
  C        3.6793340    -0.3535020     0.1683990
  C       -2.8127890     0.5150010     0.2964470
  C        1.3212360    -0.6095270     0.7211930
  C        2.0273690     1.1786660    -0.7492360
  C        2.7520627    -1.1064589     0.9000321
  C        3.3454510     0.7479200    -0.6334830
  C       -1.3791480    -1.2185740    -0.6492330
  C       -3.8612840    -0.4227650     0.3079770
  C       -2.4390410    -2.1168890    -0.6711390
  C        5.1038640    -0.8322750     0.2664150
  C       -3.6857840    -1.7096250    -0.1856360
  H        0.5383950    -1.1258400     1.2710410
  H        1.7737210     2.0503190    -1.3473030
  H        2.8902070    -1.8603380     1.4919100
  H        4.1335430     1.2826870    -1.1615780
  H       -0.4095800    -1.5185310    -1.0371660
  H       -4.8387790    -0.1097830     0.6721110
  H       -2.3031150    -3.1155080    -1.0770870
  H        5.8059070     0.0022690     0.1830070
  H        5.2850310    -1.3360150     1.2200590
  H        5.3367840    -1.5427250    -0.5345020
  H       -4.5250650    -2.4017370    -0.1822600
  H       -2.3845940     2.4838010     0.4485930
  H       -3.9825350     2.0742830     0.8527820
units angstrom
no_reorient  #important for SAPT in psi4, default
symmetry c1  #important for SAPT in psi4, default
}

set PROPERTIES_ORIGIN ["COM"]
properties('MP2/aug-cc-pvtz', properties = ['dipole'])
--------------------------------------------------------------------------

    Molecular point group: c1
  Charge       = 0
  Multiplicity = 1
  Basis Set: AUG-CC-PVTZ
    Blend: AUG-CC-PVTZ
  Basis Set: (AUG-CC-PVTZ AUX)
    Blend: AUG-CC-PVTZ-JKFIT

    Orbital Energies [Eh]
    ---------------------

    Doubly Occupied:

       1A    -20.539024     2A    -15.560278     3A    -11.339912
       4A    -11.297122     5A    -11.265177     6A    -11.259233
       7A    -11.252886     8A    -11.252267     9A    -11.249102
      10A    -11.245277    11A    -11.242328    12A    -11.239395
      13A    -11.238897    14A    -11.232077    15A    -11.228767
      16A    -11.228323    17A     -1.372148    18A     -1.226806
      19A     -1.157238    20A     -1.136957    21A     -1.071552
      22A     -1.036105    23A     -1.010786    24A     -0.996499
      25A     -0.949811    26A     -0.876115    27A     -0.849998
      28A     -0.834365    29A     -0.812637    30A     -0.770857
      31A     -0.714720    32A     -0.691630    33A     -0.687237
      34A     -0.659455    35A     -0.653532    36A     -0.641391
      37A     -0.613869    38A     -0.606584    39A     -0.603126
      40A     -0.592230    41A     -0.584960    42A     -0.581765
      43A     -0.556474    44A     -0.542618    45A     -0.531644
      46A     -0.515909    47A     -0.510925    48A     -0.507519
      49A     -0.487450    50A     -0.477173    51A     -0.452187
      52A     -0.418595    53A     -0.349045    54A     -0.339277
      55A     -0.332508    56A     -0.300523

  @DF-RHF Final Energy:  -667.24753393935930

   => Energetics <=

    Nuclear Repulsion Energy =            990.3963951668687287
    One-Electron Energy =               -2871.8392905163050273
    Two-Electron Energy =                1214.1953614100768846
    Total Energy =                       -667.2475339393593003
  Basis Set: (AUG-CC-PVTZ AUX)
    Blend: AUG-CC-PVTZ-RI
    Molecular point group: c1

    Geometry (in Angstrom), charge = 0, multiplicity = 1:

       Center              X                  Y                   Z               Mass
    ------------   -----------------  -----------------  -----------------  -----------------
         O           -0.521240522332     2.236767909914    -0.298892226414    15.994914619570
         N           -2.984364522332     1.762425909914     0.825577773586    14.003074004430
         C            1.029390477668     0.471943909914    -0.086504226414    12.000000000000
         C           -1.504387522332     0.066984909914    -0.142120226414    12.000000000000
         C           -0.359231522332     1.009713909914    -0.183911226414    12.000000000000
         C            3.707905477668    -0.372430090086     0.169114773586    12.000000000000
         C           -2.784217522332     0.496072909914     0.297162773586    12.000000000000
         C            1.349807477668    -0.628455090086     0.721908773586    12.000000000000
         C            2.055940477668     1.159737909914    -0.748520226414    12.000000000000
         C            2.780634177668    -1.125386990086     0.900747873586    12.000000000000
         C            3.374022477668     0.728991909914    -0.632767226414    12.000000000000
         C           -1.350576522332    -1.237502090086    -0.648517226414    12.000000000000
         C           -3.832712522332    -0.441693090086     0.308692773586    12.000000000000
         C           -2.410469522332    -2.135817090086    -0.670423226414    12.000000000000
         C            5.132435477668    -0.851203090086     0.267130773586    12.000000000000
         C           -3.657212522332    -1.728553090086    -0.184920226414    12.000000000000
         H            0.566966477668    -1.144768090086     1.271756773586     1.007825032230
         H            1.802292477668     2.031390909914    -1.346587226414     1.007825032230
         H            2.918778477668    -1.879266090086     1.492625773586     1.007825032230
         H            4.162114477668     1.263758909914    -1.160862226414     1.007825032230
         H           -0.381008522332    -1.537459090086    -1.036450226414     1.007825032230
         H           -4.810207522332    -0.128711090086     0.672826773586     1.007825032230
         H           -2.274543522332    -3.134436090086    -1.076371226414     1.007825032230
         H            5.834478477668    -0.016659090086     0.183722773586     1.007825032230
         H            5.313602477668    -1.354943090086     1.220774773586     1.007825032230
         H            5.365355477668    -1.561653090086    -0.533786226414     1.007825032230
         H           -4.496493522332    -2.420665090086    -0.181544226414     1.007825032230
         H           -2.356022522332     2.464872909914     0.449308773586     1.007825032230
         H           -3.953963522332     2.055354909914     0.853497773586     1.007825032230

  Basis Set: AUG-CC-PVTZ
    Blend: AUG-CC-PVTZ
  Basis Set: (AUG-CC-PVTZ AUX)
    Blend: AUG-CC-PVTZ-JKFIT
	 Reference Energy          =    -667.2475339393593003 [Eh]
	 Singles Energy            =      -0.0000000000000000 [Eh]
	 Same-Spin Energy          =      -0.7354285511983991 [Eh]
	 Opposite-Spin Energy      =      -2.2674123292531077 [Eh]
	 Correlation Energy        =      -3.0028408804515068 [Eh]
	 Total Energy              =    -670.2503748198107587 [Eh]

	 ================> DF-SCS-MP2 Energies <==================
	-----------------------------------------------------------
	 SCS Same-Spin Scale       =       0.3333333333333333 [-]
	 SCS Opposite-Spin Scale   =       1.2000000000000000 [-]
	 SCS Same-Spin Energy      =      -0.2451428503994664 [Eh]
	 SCS Opposite-Spin Energy  =      -2.7208947951037290 [Eh]
	 SCS Correlation Energy    =      -2.9660376455031954 [Eh]
	 SCS Total Energy          =    -670.2135715848625068 [Eh]
	-----------------------------------------------------------

  Dipole Moment: [D]
     X:     0.2700      Y:    -1.8219      Z:    -0.0864     Total:     1.8438

*** Psi4 exiting successfully. Buy a developer a beer!
