                               Psi4 1.4a3.dev225

  ==> Input File <==

--------------------------------------------------------------------------
#psi4
#
memory 32 gb

molecule  {
0 1
  O       -0.5498120     2.2556960    -0.2996080
  N       -3.0129360     1.7813540     0.8248620
  C        1.0008190     0.4908720    -0.0872200
  C       -1.5329590     0.0859130    -0.1428360
  C       -0.3878030     1.0286420    -0.1846270
  C        3.6793340    -0.3535020     0.1683990
  C       -2.8127890     0.5150010     0.2964470
  C        1.3212360    -0.6095270     0.7211930
  C        2.0273690     1.1786660    -0.7492360
  C        2.6489240    -1.0168440     0.8468500
  C        3.3454510     0.7479200    -0.6334830
  C       -1.3791480    -1.2185740    -0.6492330
  C       -3.8612840    -0.4227650     0.3079770
  C       -2.4390410    -2.1168890    -0.6711390
  C        5.1038640    -0.8322750     0.2664150
  C       -3.6857840    -1.7096250    -0.1856360
  H        0.5383950    -1.1258400     1.2710410
  H        1.7737210     2.0503190    -1.3473030
  H        2.8902070    -1.8603380     1.4919100
  H        4.1335430     1.2826870    -1.1615780
  H       -0.4095800    -1.5185310    -1.0371660
  H       -4.8387790    -0.1097830     0.6721110
  H       -2.3031150    -3.1155080    -1.0770870
  H        5.7748350     0.0181291     0.1151014
  H        5.2850310    -1.3360150     1.2200590
  H        5.3367840    -1.5427250    -0.5345020
  H       -4.5250650    -2.4017370    -0.1822600
  H       -2.3845940     2.4838010     0.4485930
  H       -3.9825350     2.0742830     0.8527820
units angstrom
no_reorient  #important for SAPT in psi4, default
symmetry c1  #important for SAPT in psi4, default
}

set PROPERTIES_ORIGIN ["COM"]
properties('MP2/aug-cc-pvtz', properties = ['dipole'])
--------------------------------------------------------------------------

    Molecular point group: c1
  Charge       = 0
  Multiplicity = 1
  Basis Set: AUG-CC-PVTZ
    Blend: AUG-CC-PVTZ
  Basis Set: (AUG-CC-PVTZ AUX)
    Blend: AUG-CC-PVTZ-JKFIT

    Orbital Energies [Eh]
    ---------------------

    Doubly Occupied:

       1A    -20.537917     2A    -15.559982     3A    -11.338407
       4A    -11.296855     5A    -11.257086     6A    -11.252688
       7A    -11.252213     8A    -11.250573     9A    -11.246403
      10A    -11.243404    11A    -11.239065    12A    -11.238849
      13A    -11.237812    14A    -11.233525    15A    -11.231927
      16A    -11.228265    17A     -1.370991    18A     -1.226518
      19A     -1.165223    20A     -1.137074    21A     -1.069803
      22A     -1.034611    23A     -1.020636    24A     -0.996516
      25A     -0.954658    26A     -0.876820    27A     -0.839004
      28A     -0.836363    29A     -0.812912    30A     -0.766120
      31A     -0.712711    32A     -0.691613    33A     -0.686162
      34A     -0.661415    35A     -0.645649    36A     -0.636602
      37A     -0.614380    38A     -0.603691    39A     -0.599724
      40A     -0.592728    41A     -0.584649    42A     -0.579959
      43A     -0.558847    44A     -0.546636    45A     -0.532297
      46A     -0.517165    47A     -0.512929    48A     -0.504861
      49A     -0.493994    50A     -0.481445    51A     -0.452250
      52A     -0.418838    53A     -0.349692    54A     -0.343113
      55A     -0.333522    56A     -0.300315

  @DF-RHF Final Energy:  -667.27602301194020

   => Energetics <=

    Nuclear Repulsion Energy =            992.9659349452920196
    One-Electron Energy =               -2877.0691011912294925
    Two-Electron Energy =                1216.8271432339972762
    Total Energy =                       -667.2760230119401967
  Basis Set: (AUG-CC-PVTZ AUX)
    Blend: AUG-CC-PVTZ-RI
    Molecular point group: c1

    Geometry (in Angstrom), charge = 0, multiplicity = 1:

       Center              X                  Y                   Z               Mass
    ------------   -----------------  -----------------  -----------------  -----------------
         O           -0.515229242093     2.231598016574    -0.295544888087    15.994914619570
         N           -2.978353242093     1.757256016574     0.828925111913    14.003074004430
         C            1.035401757907     0.466774016574    -0.083156888087    12.000000000000
         C           -1.498376242093     0.061815016574    -0.138772888087    12.000000000000
         C           -0.353220242093     1.004544016574    -0.180563888087    12.000000000000
         C            3.713916757907    -0.377599983426     0.172462111913    12.000000000000
         C           -2.778206242093     0.490903016574     0.300510111913    12.000000000000
         C            1.355818757907    -0.633624983426     0.725256111913    12.000000000000
         C            2.061951757907     1.154568016574    -0.745172888087    12.000000000000
         C            2.683506757907    -1.040941983426     0.850913111913    12.000000000000
         C            3.380033757907     0.723822016574    -0.629419888087    12.000000000000
         C           -1.344565242093    -1.242671983426    -0.645169888087    12.000000000000
         C           -3.826701242093    -0.446862983426     0.312040111913    12.000000000000
         C           -2.404458242093    -2.140986983426    -0.667075888087    12.000000000000
         C            5.138446757907    -0.856372983426     0.270478111913    12.000000000000
         C           -3.651201242093    -1.733722983426    -0.181572888087    12.000000000000
         H            0.572977757907    -1.149937983426     1.275104111913     1.007825032230
         H            1.808303757907     2.026221016574    -1.343239888087     1.007825032230
         H            2.924789757907    -1.884435983426     1.495973111913     1.007825032230
         H            4.168125757907     1.258589016574    -1.157514888087     1.007825032230
         H           -0.374997242093    -1.542628983426    -1.033102888087     1.007825032230
         H           -4.804196242093    -0.133880983426     0.676174111913     1.007825032230
         H           -2.268532242093    -3.139605983426    -1.073023888087     1.007825032230
         H            5.809417757907    -0.005968883426     0.119164511913     1.007825032230
         H            5.319613757907    -1.360112983426     1.224122111913     1.007825032230
         H            5.371366757907    -1.566822983426    -0.530438888087     1.007825032230
         H           -4.490482242093    -2.425834983426    -0.178196888087     1.007825032230
         H           -2.350011242093     2.459703016574     0.452656111913     1.007825032230
         H           -3.947952242093     2.050185016574     0.856845111913     1.007825032230

  Basis Set: AUG-CC-PVTZ
    Blend: AUG-CC-PVTZ
  Basis Set: (AUG-CC-PVTZ AUX)
    Blend: AUG-CC-PVTZ-JKFIT
	 Reference Energy          =    -667.2760230119401967 [Eh]
	 Singles Energy            =      -0.0000000000000000 [Eh]
	 Same-Spin Energy          =      -0.7355814031103755 [Eh]
	 Opposite-Spin Energy      =      -2.2655744689809514 [Eh]
	 Correlation Energy        =      -3.0011558720913269 [Eh]
	 Total Energy              =    -670.2771788840315139 [Eh]

	 ================> DF-SCS-MP2 Energies <==================
	-----------------------------------------------------------
	 SCS Same-Spin Scale       =       0.3333333333333333 [-]
	 SCS Opposite-Spin Scale   =       1.2000000000000000 [-]
	 SCS Same-Spin Energy      =      -0.2451938010367918 [Eh]
	 SCS Opposite-Spin Energy  =      -2.7186893627771416 [Eh]
	 SCS Correlation Energy    =      -2.9638831638139336 [Eh]
	 SCS Total Energy          =    -670.2399061757541858 [Eh]
	-----------------------------------------------------------

  Dipole Moment: [D]
     X:     0.3524      Y:    -1.8253      Z:    -0.1243     Total:     1.8631

*** Psi4 exiting successfully. Buy a developer a beer!
