                               Psi4 1.4a3.dev225

  ==> Input File <==

--------------------------------------------------------------------------
#psi4
#
memory 32 gb

molecule  {
0 1
  O       -0.5498120     2.2556960    -0.2996080
  N       -3.0129360     1.7813540     0.8248620
  C        0.8613759     0.4708094    -0.0459305
  C       -1.5329590     0.0859130    -0.1428360
  C       -0.3878030     1.0286420    -0.1846270
  C        3.6793340    -0.3535020     0.1683990
  C       -2.8127890     0.5150010     0.2964470
  C        1.3212360    -0.6095270     0.7211930
  C        2.0273690     1.1786660    -0.7492360
  C        2.6489240    -1.0168440     0.8468500
  C        3.3454510     0.7479200    -0.6334830
  C       -1.3791480    -1.2185740    -0.6492330
  C       -3.8612840    -0.4227650     0.3079770
  C       -2.4390410    -2.1168890    -0.6711390
  C        5.1038640    -0.8322750     0.2664150
  C       -3.6857840    -1.7096250    -0.1856360
  H        0.5383950    -1.1258400     1.2710410
  H        1.7737210     2.0503190    -1.3473030
  H        2.8902070    -1.8603380     1.4919100
  H        4.1335430     1.2826870    -1.1615780
  H       -0.4095800    -1.5185310    -1.0371660
  H       -4.8387790    -0.1097830     0.6721110
  H       -2.3031150    -3.1155080    -1.0770870
  H        5.8059070     0.0022690     0.1830070
  H        5.2850310    -1.3360150     1.2200590
  H        5.3367840    -1.5427250    -0.5345020
  H       -4.5250650    -2.4017370    -0.1822600
  H       -2.3845940     2.4838010     0.4485930
  H       -3.9825350     2.0742830     0.8527820
units angstrom
no_reorient  #important for SAPT in psi4, default
symmetry c1  #important for SAPT in psi4, default
}

set PROPERTIES_ORIGIN ["COM"]
properties('MP2/aug-cc-pvtz', properties = ['dipole'])
--------------------------------------------------------------------------

    Molecular point group: c1
  Charge       = 0
  Multiplicity = 1
  Basis Set: AUG-CC-PVTZ
    Blend: AUG-CC-PVTZ
  Basis Set: (AUG-CC-PVTZ AUX)
    Blend: AUG-CC-PVTZ-JKFIT

    Orbital Energies [Eh]
    ---------------------

    Doubly Occupied:

       1A    -20.532100     2A    -15.557622     3A    -11.328274
       4A    -11.293762     5A    -11.267205     6A    -11.263977
       7A    -11.259672     8A    -11.250386     9A    -11.249713
      10A    -11.246561    11A    -11.241208    12A    -11.240578
      13A    -11.238072    14A    -11.234984    15A    -11.229755
      16A    -11.226262    17A     -1.369194    18A     -1.224050
      19A     -1.161747    20A     -1.135505    21A     -1.079187
      22A     -1.029854    23A     -1.019242    24A     -0.994839
      25A     -0.967138    26A     -0.882102    27A     -0.842326
      28A     -0.834641    29A     -0.815074    30A     -0.764121
      31A     -0.713784    32A     -0.689614    33A     -0.684810
      34A     -0.666489    35A     -0.645610    36A     -0.636801
      37A     -0.614721    38A     -0.606494    39A     -0.601188
      40A     -0.588508    41A     -0.585049    42A     -0.583319
      43A     -0.558372    44A     -0.542857    45A     -0.531282
      46A     -0.521136    47A     -0.515521    48A     -0.505056
      49A     -0.480333    50A     -0.472554    51A     -0.450107
      52A     -0.421128    53A     -0.351788    54A     -0.345476
      55A     -0.327851    56A     -0.297715

  @DF-RHF Final Energy:  -667.24845962582776

   => Energetics <=

    Nuclear Repulsion Energy =            993.4058101642236807
    One-Electron Energy =               -2877.8751089648676498
    Two-Electron Energy =                1217.2208391748163194
    Total Energy =                       -667.2484596258277634
  Basis Set: (AUG-CC-PVTZ AUX)
    Blend: AUG-CC-PVTZ-RI
    Molecular point group: c1

    Geometry (in Angstrom), charge = 0, multiplicity = 1:

       Center              X                  Y                   Z               Mass
    ------------   -----------------  -----------------  -----------------  -----------------
         O           -0.507450917674     2.232814197311    -0.298216189496    15.994914619570
         N           -2.970574917674     1.758472197311     0.826253810504    14.003074004430
         C            0.903736982326     0.447927597311    -0.044538689496    12.000000000000
         C           -1.490597917674     0.063031197311    -0.141444189496    12.000000000000
         C           -0.345441917674     1.005760197311    -0.183235189496    12.000000000000
         C            3.721695082326    -0.376383802689     0.169790810504    12.000000000000
         C           -2.770427917674     0.492119197311     0.297838810504    12.000000000000
         C            1.363597082326    -0.632408802689     0.722584810504    12.000000000000
         C            2.069730082326     1.155784197311    -0.747844189496    12.000000000000
         C            2.691285082326    -1.039725802689     0.848241810504    12.000000000000
         C            3.387812082326     0.725038197311    -0.632091189496    12.000000000000
         C           -1.336786917674    -1.241455802689    -0.647841189496    12.000000000000
         C           -3.818922917674    -0.445646802689     0.309368810504    12.000000000000
         C           -2.396679917674    -2.139770802689    -0.669747189496    12.000000000000
         C            5.146225082326    -0.855156802689     0.267806810504    12.000000000000
         C           -3.643422917674    -1.732506802689    -0.184244189496    12.000000000000
         H            0.580756082326    -1.148721802689     1.272432810504     1.007825032230
         H            1.816082082326     2.027437197311    -1.345911189496     1.007825032230
         H            2.932568082326    -1.883219802689     1.493301810504     1.007825032230
         H            4.175904082326     1.259805197311    -1.160186189496     1.007825032230
         H           -0.367218917674    -1.541412802689    -1.035774189496     1.007825032230
         H           -4.796417917674    -0.132664802689     0.673502810504     1.007825032230
         H           -2.260753917674    -3.138389802689    -1.075695189496     1.007825032230
         H            5.848268082326    -0.020612802689     0.184398810504     1.007825032230
         H            5.327392082326    -1.358896802689     1.221450810504     1.007825032230
         H            5.379145082326    -1.565606802689    -0.533110189496     1.007825032230
         H           -4.482703917674    -2.424618802689    -0.180868189496     1.007825032230
         H           -2.342232917674     2.460919197311     0.449984810504     1.007825032230
         H           -3.940173917674     2.051401197311     0.854173810504     1.007825032230

  Basis Set: AUG-CC-PVTZ
    Blend: AUG-CC-PVTZ
  Basis Set: (AUG-CC-PVTZ AUX)
    Blend: AUG-CC-PVTZ-JKFIT
	 Reference Energy          =    -667.2484596258277634 [Eh]
	 Singles Energy            =      -0.0000000000000000 [Eh]
	 Same-Spin Energy          =      -0.7372365261058933 [Eh]
	 Opposite-Spin Energy      =      -2.2689663702421399 [Eh]
	 Correlation Energy        =      -3.0062028963480332 [Eh]
	 Total Energy              =    -670.2546625221757495 [Eh]

	 ================> DF-SCS-MP2 Energies <==================
	-----------------------------------------------------------
	 SCS Same-Spin Scale       =       0.3333333333333333 [-]
	 SCS Opposite-Spin Scale   =       1.2000000000000000 [-]
	 SCS Same-Spin Energy      =      -0.2457455087019644 [Eh]
	 SCS Opposite-Spin Energy  =      -2.7227596442905679 [Eh]
	 SCS Correlation Energy    =      -2.9685051529925324 [Eh]
	 SCS Total Energy          =    -670.2169647788202838 [Eh]
	-----------------------------------------------------------

  Dipole Moment: [D]
     X:     0.8253      Y:    -1.9285      Z:    -0.0706     Total:     2.0989

*** Psi4 exiting successfully. Buy a developer a beer!
