                               Psi4 1.4a3.dev225

  ==> Input File <==

--------------------------------------------------------------------------
#psi4
#
memory 32 gb

molecule  {
0 1
  O       -0.5498120     2.2556960    -0.2996080
  N       -3.0129360     1.7813540     0.8248620
  C        1.0008190     0.4908720    -0.0872200
  C       -1.5329590     0.0859130    -0.1428360
  C       -0.3878030     1.0286420    -0.1846270
  C        3.6793340    -0.3535020     0.1683990
  C       -2.8127890     0.5150010     0.2964470
  C        1.3212360    -0.6095270     0.7211930
  C        2.0273690     1.1786660    -0.7492360
  C        2.6489240    -1.0168440     0.8468500
  C        3.3454510     0.7479200    -0.6334830
  C       -1.3791480    -1.2185740    -0.6492330
  C       -3.8612840    -0.4227650     0.3079770
  C       -2.4390410    -2.1168890    -0.6711390
  C        5.1038640    -0.8322750     0.2664150
  C       -3.5469350    -1.6734000    -0.2092845
  H        0.5383950    -1.1258400     1.2710410
  H        1.7737210     2.0503190    -1.3473030
  H        2.8902070    -1.8603380     1.4919100
  H        4.1335430     1.2826870    -1.1615780
  H       -0.4095800    -1.5185310    -1.0371660
  H       -4.8387790    -0.1097830     0.6721110
  H       -2.3031150    -3.1155080    -1.0770870
  H        5.8059070     0.0022690     0.1830070
  H        5.2850310    -1.3360150     1.2200590
  H        5.3367840    -1.5427250    -0.5345020
  H       -4.5250650    -2.4017370    -0.1822600
  H       -2.3845940     2.4838010     0.4485930
  H       -3.9825350     2.0742830     0.8527820
units angstrom
no_reorient  #important for SAPT in psi4, default
symmetry c1  #important for SAPT in psi4, default
}

set PROPERTIES_ORIGIN ["COM"]
properties('MP2/aug-cc-pvtz', properties = ['dipole'])
--------------------------------------------------------------------------

    Molecular point group: c1
  Charge       = 0
  Multiplicity = 1
  Basis Set: AUG-CC-PVTZ
    Blend: AUG-CC-PVTZ
  Basis Set: (AUG-CC-PVTZ AUX)
    Blend: AUG-CC-PVTZ-JKFIT

    Orbital Energies [Eh]
    ---------------------

    Doubly Occupied:

       1A    -20.538953     2A    -15.558100     3A    -11.339793
       4A    -11.293954     5A    -11.258093     6A    -11.256575
       7A    -11.251449     8A    -11.247865     9A    -11.247113
      10A    -11.244443    11A    -11.240830    12A    -11.239881
      13A    -11.238570    14A    -11.233825    15A    -11.228245
      16A    -11.216196    17A     -1.372043    18A     -1.226932
      19A     -1.166450    20A     -1.152787    21A     -1.071641
      22A     -1.035562    23A     -1.021352    24A     -1.006284
      25A     -0.954973    26A     -0.874448    27A     -0.843704
      28A     -0.838509    29A     -0.809708    30A     -0.767260
      31A     -0.716606    32A     -0.691098    33A     -0.678560
      34A     -0.659955    35A     -0.647569    36A     -0.638493
      37A     -0.617388    38A     -0.602465    39A     -0.601267
      40A     -0.594392    41A     -0.588869    42A     -0.584678
      43A     -0.557822    44A     -0.544738    45A     -0.531270
      46A     -0.521500    47A     -0.509297    48A     -0.494364
      49A     -0.485436    50A     -0.483098    51A     -0.461089
      52A     -0.418358    53A     -0.350334    54A     -0.343860
      55A     -0.334697    56A     -0.306437

  @DF-RHF Final Energy:  -667.24945014824993

   => Energetics <=

    Nuclear Repulsion Energy =            995.8462978646033434
    One-Electron Energy =               -2882.7131371479549671
    Two-Electron Energy =                1219.6173891351015754
    Total Energy =                       -667.2494501482499345
  Basis Set: (AUG-CC-PVTZ AUX)
    Blend: AUG-CC-PVTZ-RI
    Molecular point group: c1

    Geometry (in Angstrom), charge = 0, multiplicity = 1:

       Center              X                  Y                   Z               Mass
    ------------   -----------------  -----------------  -----------------  -----------------
         O           -0.523270480553     2.229614518888    -0.294524777580    15.994914619570
         N           -2.986394480553     1.755272518888     0.829945222420    14.003074004430
         C            1.027360519447     0.464790518888    -0.082136777580    12.000000000000
         C           -1.506417480553     0.059831518888    -0.137752777580    12.000000000000
         C           -0.361261480553     1.002560518888    -0.179543777580    12.000000000000
         C            3.705875519447    -0.379583481112     0.173482222420    12.000000000000
         C           -2.786247480553     0.488919518888     0.301530222420    12.000000000000
         C            1.347777519447    -0.635608481112     0.726276222420    12.000000000000
         C            2.053910519447     1.152584518888    -0.744152777580    12.000000000000
         C            2.675465519447    -1.042925481112     0.851933222420    12.000000000000
         C            3.371992519447     0.721838518888    -0.628399777580    12.000000000000
         C           -1.352606480553    -1.244655481112    -0.644149777580    12.000000000000
         C           -3.834742480553    -0.448846481112     0.313060222420    12.000000000000
         C           -2.412499480553    -2.142970481112    -0.666055777580    12.000000000000
         C            5.130405519447    -0.858356481112     0.271498222420    12.000000000000
         C           -3.520393480553    -1.699481481112    -0.204201277580    12.000000000000
         H            0.564936519447    -1.151921481112     1.276124222420     1.007825032230
         H            1.800262519447     2.024237518888    -1.342219777580     1.007825032230
         H            2.916748519447    -1.886419481112     1.496993222420     1.007825032230
         H            4.160084519447     1.256605518888    -1.156494777580     1.007825032230
         H           -0.383038480553    -1.544612481112    -1.032082777580     1.007825032230
         H           -4.812237480553    -0.135864481112     0.677194222420     1.007825032230
         H           -2.276573480553    -3.141589481112    -1.072003777580     1.007825032230
         H            5.832448519447    -0.023812481112     0.188090222420     1.007825032230
         H            5.311572519447    -1.362096481112     1.225142222420     1.007825032230
         H            5.363325519447    -1.568806481112    -0.529418777580     1.007825032230
         H           -4.498523480553    -2.427818481112    -0.177176777580     1.007825032230
         H           -2.358052480553     2.457719518888     0.453676222420     1.007825032230
         H           -3.955993480553     2.048201518888     0.857865222420     1.007825032230

  Basis Set: AUG-CC-PVTZ
    Blend: AUG-CC-PVTZ
  Basis Set: (AUG-CC-PVTZ AUX)
    Blend: AUG-CC-PVTZ-JKFIT
	 Reference Energy          =    -667.2494501482499345 [Eh]
	 Singles Energy            =      -0.0000000000000000 [Eh]
	 Same-Spin Energy          =      -0.7358465948789004 [Eh]
	 Opposite-Spin Energy      =      -2.2659955837975665 [Eh]
	 Correlation Energy        =      -3.0018421786764669 [Eh]
	 Total Energy              =    -670.2512923269264320 [Eh]

	 ================> DF-SCS-MP2 Energies <==================
	-----------------------------------------------------------
	 SCS Same-Spin Scale       =       0.3333333333333333 [-]
	 SCS Opposite-Spin Scale   =       1.2000000000000000 [-]
	 SCS Same-Spin Energy      =      -0.2452821982929668 [Eh]
	 SCS Opposite-Spin Energy  =      -2.7191947005570798 [Eh]
	 SCS Correlation Energy    =      -2.9644768988500467 [Eh]
	 SCS Total Energy          =    -670.2139270471000145 [Eh]
	-----------------------------------------------------------

  Dipole Moment: [D]
     X:     0.5267      Y:    -1.7499      Z:    -0.1352     Total:     1.8324

*** Psi4 exiting successfully. Buy a developer a beer!
