                               Psi4 1.4a3.dev225

  ==> Input File <==

--------------------------------------------------------------------------
#psi4
#
memory 32 gb

molecule  {
0 1
  O       -0.5498120     2.2556960    -0.2996080
  N       -3.0129360     1.7813540     0.8248620
  C        1.0008190     0.4908720    -0.0872200
  C       -1.5329590     0.0859130    -0.1428360
  C       -0.3878030     1.0286420    -0.1846270
  C        3.6793340    -0.3535020     0.1683990
  C       -2.8127890     0.5150010     0.2964470
  C        1.3440817    -0.6879854     0.7788328
  C        2.0273690     1.1786660    -0.7492360
  C        2.6489240    -1.0168440     0.8468500
  C        3.3454510     0.7479200    -0.6334830
  C       -1.3791480    -1.2185740    -0.6492330
  C       -3.8612840    -0.4227650     0.3079770
  C       -2.4390410    -2.1168890    -0.6711390
  C        5.1038640    -0.8322750     0.2664150
  C       -3.6857840    -1.7096250    -0.1856360
  H        0.5383950    -1.1258400     1.2710410
  H        1.7737210     2.0503190    -1.3473030
  H        2.8902070    -1.8603380     1.4919100
  H        4.1335430     1.2826870    -1.1615780
  H       -0.4095800    -1.5185310    -1.0371660
  H       -4.8387790    -0.1097830     0.6721110
  H       -2.3031150    -3.1155080    -1.0770870
  H        5.8059070     0.0022690     0.1830070
  H        5.2850310    -1.3360150     1.2200590
  H        5.3367840    -1.5427250    -0.5345020
  H       -4.5250650    -2.4017370    -0.1822600
  H       -2.3845940     2.4838010     0.4485930
  H       -3.9825350     2.0742830     0.8527820
units angstrom
no_reorient  #important for SAPT in psi4, default
symmetry c1  #important for SAPT in psi4, default
}

set PROPERTIES_ORIGIN ["COM"]
properties('MP2/aug-cc-pvtz', properties = ['dipole'])
--------------------------------------------------------------------------

    Molecular point group: c1
  Charge       = 0
  Multiplicity = 1
  Basis Set: AUG-CC-PVTZ
    Blend: AUG-CC-PVTZ
  Basis Set: (AUG-CC-PVTZ AUX)
    Blend: AUG-CC-PVTZ-JKFIT

    Orbital Energies [Eh]
    ---------------------

    Doubly Occupied:

       1A    -20.536350     2A    -15.559642     3A    -11.337454
       4A    -11.296560     5A    -11.259141     6A    -11.252486
       7A    -11.251964     8A    -11.251634     9A    -11.250564
      10A    -11.246908    11A    -11.238816    12A    -11.238714
      13A    -11.236173    14A    -11.234200    15A    -11.231816
      16A    -11.228197    17A     -1.369544    18A     -1.226204
      19A     -1.161712    20A     -1.136923    21A     -1.063319
      22A     -1.034710    23A     -1.027919    24A     -0.996345
      25A     -0.953339    26A     -0.876769    27A     -0.839497
      28A     -0.837183    29A     -0.811864    30A     -0.763180
      31A     -0.711764    32A     -0.692364    33A     -0.685791
      34A     -0.667855    35A     -0.643197    36A     -0.641736
      37A     -0.613540    38A     -0.602579    39A     -0.599264
      40A     -0.594602    41A     -0.584989    42A     -0.581767
      43A     -0.554726    44A     -0.544035    45A     -0.531419
      46A     -0.522015    47A     -0.513867    48A     -0.505097
      49A     -0.484153    50A     -0.480172    51A     -0.452297
      52A     -0.417542    53A     -0.353793    54A     -0.347570
      55A     -0.325083    56A     -0.299891

  @DF-RHF Final Energy:  -667.26445808555263

   => Energetics <=

    Nuclear Repulsion Energy =            991.4666884475440156
    One-Electron Energy =               -2874.0618253685929631
    Two-Electron Energy =                1215.3306788354962009
    Total Energy =                       -667.2644580855526328
  Basis Set: (AUG-CC-PVTZ AUX)
    Blend: AUG-CC-PVTZ-RI
    Molecular point group: c1

    Geometry (in Angstrom), charge = 0, multiplicity = 1:

       Center              X                  Y                   Z               Mass
    ------------   -----------------  -----------------  -----------------  -----------------
         O           -0.516676252767     2.236133716729    -0.299145625147    15.994914619570
         N           -2.979800252767     1.761791716729     0.825324374853    14.003074004430
         C            1.033954747233     0.471309716729    -0.086757625147    12.000000000000
         C           -1.499823252767     0.066350716729    -0.142373625147    12.000000000000
         C           -0.354667252767     1.009079716729    -0.184164625147    12.000000000000
         C            3.712469747233    -0.373064283271     0.168861374853    12.000000000000
         C           -2.779653252767     0.495438716729     0.296909374853    12.000000000000
         C            1.377217447233    -0.707547683271     0.779295174853    12.000000000000
         C            2.060504747233     1.159103716729    -0.748773625147    12.000000000000
         C            2.682059747233    -1.036406283271     0.847312374853    12.000000000000
         C            3.378586747233     0.728357716729    -0.633020625147    12.000000000000
         C           -1.346012252767    -1.238136283271    -0.648770625147    12.000000000000
         C           -3.828148252767    -0.442327283271     0.308439374853    12.000000000000
         C           -2.405905252767    -2.136451283271    -0.670676625147    12.000000000000
         C            5.136999747233    -0.851837283271     0.266877374853    12.000000000000
         C           -3.652648252767    -1.729187283271    -0.185173625147    12.000000000000
         H            0.571530747233    -1.145402283271     1.271503374853     1.007825032230
         H            1.806856747233     2.030756716729    -1.346840625147     1.007825032230
         H            2.923342747233    -1.879900283271     1.492372374853     1.007825032230
         H            4.166678747233     1.263124716729    -1.161115625147     1.007825032230
         H           -0.376444252767    -1.538093283271    -1.036703625147     1.007825032230
         H           -4.805643252767    -0.129345283271     0.672573374853     1.007825032230
         H           -2.269979252767    -3.135070283271    -1.076624625147     1.007825032230
         H            5.839042747233    -0.017293283271     0.183469374853     1.007825032230
         H            5.318166747233    -1.355577283271     1.220521374853     1.007825032230
         H            5.369919747233    -1.562287283271    -0.534039625147     1.007825032230
         H           -4.491929252767    -2.421299283271    -0.181797625147     1.007825032230
         H           -2.351458252767     2.464238716729     0.449055374853     1.007825032230
         H           -3.949399252767     2.054720716729     0.853244374853     1.007825032230

  Basis Set: AUG-CC-PVTZ
    Blend: AUG-CC-PVTZ
  Basis Set: (AUG-CC-PVTZ AUX)
    Blend: AUG-CC-PVTZ-JKFIT
	 Reference Energy          =    -667.2644580855526328 [Eh]
	 Singles Energy            =      -0.0000000000000000 [Eh]
	 Same-Spin Energy          =      -0.7355980805426977 [Eh]
	 Opposite-Spin Energy      =      -2.2665514018343758 [Eh]
	 Correlation Energy        =      -3.0021494823770736 [Eh]
	 Total Energy              =    -670.2666075679296682 [Eh]

	 ================> DF-SCS-MP2 Energies <==================
	-----------------------------------------------------------
	 SCS Same-Spin Scale       =       0.3333333333333333 [-]
	 SCS Opposite-Spin Scale   =       1.2000000000000000 [-]
	 SCS Same-Spin Energy      =      -0.2451993601808992 [Eh]
	 SCS Opposite-Spin Energy  =      -2.7198616822012509 [Eh]
	 SCS Correlation Energy    =      -2.9650610423821502 [Eh]
	 SCS Total Energy          =    -670.2295191279347364 [Eh]
	-----------------------------------------------------------

  Dipole Moment: [D]
     X:     0.4008      Y:    -1.8062      Z:    -0.1160     Total:     1.8538

*** Psi4 exiting successfully. Buy a developer a beer!
