                               Psi4 1.4a3.dev225

  ==> Input File <==

--------------------------------------------------------------------------
#psi4
#
memory 32 gb

molecule  {
0 1
  O       -0.5498120     2.2556960    -0.2996080
  N       -3.0357140     1.7752505     0.8303074
  C        1.0008190     0.4908720    -0.0872200
  C       -1.5329590     0.0859130    -0.1428360
  C       -0.3878030     1.0286420    -0.1846270
  C        3.6793340    -0.3535020     0.1683990
  C       -2.8127890     0.5150010     0.2964470
  C        1.3212360    -0.6095270     0.7211930
  C        2.0273690     1.1786660    -0.7492360
  C        2.6489240    -1.0168440     0.8468500
  C        3.3454510     0.7479200    -0.6334830
  C       -1.3791480    -1.2185740    -0.6492330
  C       -3.8612840    -0.4227650     0.3079770
  C       -2.4390410    -2.1168890    -0.6711390
  C        5.1038640    -0.8322750     0.2664150
  C       -3.6857840    -1.7096250    -0.1856360
  H        0.5383950    -1.1258400     1.2710410
  H        1.7737210     2.0503190    -1.3473030
  H        2.8902070    -1.8603380     1.4919100
  H        4.1335430     1.2826870    -1.1615780
  H       -0.4095800    -1.5185310    -1.0371660
  H       -4.8387790    -0.1097830     0.6721110
  H       -2.3031150    -3.1155080    -1.0770870
  H        5.8059070     0.0022690     0.1830070
  H        5.2850310    -1.3360150     1.2200590
  H        5.3367840    -1.5427250    -0.5345020
  H       -4.5250650    -2.4017370    -0.1822600
  H       -2.3845940     2.4838010     0.4485930
  H       -3.9825350     2.0742830     0.8527820
units angstrom
no_reorient  #important for SAPT in psi4, default
symmetry c1  #important for SAPT in psi4, default
}

set PROPERTIES_ORIGIN ["COM"]
properties('MP2/aug-cc-pvtz', properties = ['dipole'])
--------------------------------------------------------------------------

    Molecular point group: c1
  Charge       = 0
  Multiplicity = 1
  Basis Set: AUG-CC-PVTZ
    Blend: AUG-CC-PVTZ
  Basis Set: (AUG-CC-PVTZ AUX)
    Blend: AUG-CC-PVTZ-JKFIT

    Orbital Energies [Eh]
    ---------------------

    Doubly Occupied:

       1A    -20.538372     2A    -15.559576     3A    -11.338787
       4A    -11.296931     5A    -11.257462     6A    -11.252393
       7A    -11.252360     8A    -11.250724     9A    -11.246465
      10A    -11.243683    11A    -11.239573    12A    -11.239210
      13A    -11.237919    14A    -11.233315    15A    -11.231384
      16A    -11.228234    17A     -1.371320    18A     -1.226667
      19A     -1.165322    20A     -1.137121    21A     -1.069654
      22A     -1.034637    23A     -1.020720    24A     -0.996402
      25A     -0.954774    26A     -0.876857    27A     -0.839102
      28A     -0.836921    29A     -0.813012    30A     -0.765781
      31A     -0.713919    32A     -0.694067    33A     -0.683415
      34A     -0.661142    35A     -0.645615    36A     -0.636148
      37A     -0.616209    38A     -0.602071    39A     -0.599772
      40A     -0.592801    41A     -0.584513    42A     -0.583735
      43A     -0.555781    44A     -0.544634    45A     -0.531529
      46A     -0.518131    47A     -0.513448    48A     -0.505214
      49A     -0.493615    50A     -0.482265    51A     -0.452130
      52A     -0.418902    53A     -0.349721    54A     -0.343197
      55A     -0.334111    56A     -0.300163

  @DF-RHF Final Energy:  -667.27579885599016

   => Energetics <=

    Nuclear Repulsion Energy =            992.6501165572616401
    One-Electron Energy =               -2876.4299877375510732
    Two-Electron Energy =                1216.5040723242991589
    Total Energy =                       -667.2757988559901605
  Basis Set: (AUG-CC-PVTZ AUX)
    Blend: AUG-CC-PVTZ-RI
    Molecular point group: c1

    Geometry (in Angstrom), charge = 0, multiplicity = 1:

       Center              X                  Y                   Z               Mass
    ------------   -----------------  -----------------  -----------------  -----------------
         O           -0.513866630677     2.232078604472    -0.296230295471    15.994914619570
         N           -2.999768630677     1.751633104472     0.833685104529    14.003074004430
         C            1.036764369323     0.467254604472    -0.083842295471    12.000000000000
         C           -1.497013630677     0.062295604472    -0.139458295471    12.000000000000
         C           -0.351857630677     1.005024604472    -0.181249295471    12.000000000000
         C            3.715279369323    -0.377119395528     0.171776704529    12.000000000000
         C           -2.776843630677     0.491383604472     0.299824704529    12.000000000000
         C            1.357181369323    -0.633144395528     0.724570704529    12.000000000000
         C            2.063314369323     1.155048604472    -0.745858295471    12.000000000000
         C            2.684869369323    -1.040461395528     0.850227704529    12.000000000000
         C            3.381396369323     0.724302604472    -0.630105295471    12.000000000000
         C           -1.343202630677    -1.242191395528    -0.645855295471    12.000000000000
         C           -3.825338630677    -0.446382395528     0.311354704529    12.000000000000
         C           -2.403095630677    -2.140506395528    -0.667761295471    12.000000000000
         C            5.139809369323    -0.855892395528     0.269792704529    12.000000000000
         C           -3.649838630677    -1.733242395528    -0.182258295471    12.000000000000
         H            0.574340369323    -1.149457395528     1.274418704529     1.007825032230
         H            1.809666369323     2.026701604472    -1.343925295471     1.007825032230
         H            2.926152369323    -1.883955395528     1.495287704529     1.007825032230
         H            4.169488369323     1.259069604472    -1.158200295471     1.007825032230
         H           -0.373634630677    -1.542148395528    -1.033788295471     1.007825032230
         H           -4.802833630677    -0.133400395528     0.675488704529     1.007825032230
         H           -2.267169630677    -3.139125395528    -1.073709295471     1.007825032230
         H            5.841852369323    -0.021348395528     0.186384704529     1.007825032230
         H            5.320976369323    -1.359632395528     1.223436704529     1.007825032230
         H            5.372729369323    -1.566342395528    -0.531124295471     1.007825032230
         H           -4.489119630677    -2.425354395528    -0.178882295471     1.007825032230
         H           -2.348648630677     2.460183604472     0.451970704529     1.007825032230
         H           -3.946589630677     2.050665604472     0.856159704529     1.007825032230

  Basis Set: AUG-CC-PVTZ
    Blend: AUG-CC-PVTZ
  Basis Set: (AUG-CC-PVTZ AUX)
    Blend: AUG-CC-PVTZ-JKFIT
	 Reference Energy          =    -667.2757988559901605 [Eh]
	 Singles Energy            =      -0.0000000000000000 [Eh]
	 Same-Spin Energy          =      -0.7355317473516605 [Eh]
	 Opposite-Spin Energy      =      -2.2655122073997900 [Eh]
	 Correlation Energy        =      -3.0010439547514505 [Eh]
	 Total Energy              =    -670.2768428107416412 [Eh]

	 ================> DF-SCS-MP2 Energies <==================
	-----------------------------------------------------------
	 SCS Same-Spin Scale       =       0.3333333333333333 [-]
	 SCS Opposite-Spin Scale   =       1.2000000000000000 [-]
	 SCS Same-Spin Energy      =      -0.2451772491172202 [Eh]
	 SCS Opposite-Spin Energy  =      -2.7186146488797478 [Eh]
	 SCS Correlation Energy    =      -2.9637918979969680 [Eh]
	 SCS Total Energy          =    -670.2395907539871587 [Eh]
	-----------------------------------------------------------

  Dipole Moment: [D]
     X:     0.3843      Y:    -1.8098      Z:    -0.1126     Total:     1.8536

*** Psi4 exiting successfully. Buy a developer a beer!
