                               Psi4 1.4a3.dev225

  ==> Input File <==

--------------------------------------------------------------------------
#psi4
#
memory 32 gb

molecule  {
0 1
  O       -0.5498120     2.2556960    -0.2996080
  N       -3.0129360     1.7813540     0.8248620
  C        1.0008190     0.4908720    -0.0872200
  C       -1.5329590     0.0859130    -0.1428360
  C       -0.3878030     1.0286420    -0.1846270
  C        3.6793340    -0.3535020     0.1683990
  C       -2.7226300     0.4847734     0.2655012
  C        1.3212360    -0.6095270     0.7211930
  C        2.0273690     1.1786660    -0.7492360
  C        2.6489240    -1.0168440     0.8468500
  C        3.3454510     0.7479200    -0.6334830
  C       -1.3791480    -1.2185740    -0.6492330
  C       -3.8612840    -0.4227650     0.3079770
  C       -2.4390410    -2.1168890    -0.6711390
  C        5.1038640    -0.8322750     0.2664150
  C       -3.6857840    -1.7096250    -0.1856360
  H        0.5383950    -1.1258400     1.2710410
  H        1.7737210     2.0503190    -1.3473030
  H        2.8902070    -1.8603380     1.4919100
  H        4.1335430     1.2826870    -1.1615780
  H       -0.4095800    -1.5185310    -1.0371660
  H       -4.8387790    -0.1097830     0.6721110
  H       -2.3031150    -3.1155080    -1.0770870
  H        5.8059070     0.0022690     0.1830070
  H        5.2850310    -1.3360150     1.2200590
  H        5.3367840    -1.5427250    -0.5345020
  H       -4.5250650    -2.4017370    -0.1822600
  H       -2.3845940     2.4838010     0.4485930
  H       -3.9825350     2.0742830     0.8527820
units angstrom
no_reorient  #important for SAPT in psi4, default
symmetry c1  #important for SAPT in psi4, default
}

set PROPERTIES_ORIGIN ["COM"]
properties('MP2/aug-cc-pvtz', properties = ['dipole'])
--------------------------------------------------------------------------

    Molecular point group: c1
  Charge       = 0
  Multiplicity = 1
  Basis Set: AUG-CC-PVTZ
    Blend: AUG-CC-PVTZ
  Basis Set: (AUG-CC-PVTZ AUX)
    Blend: AUG-CC-PVTZ-JKFIT

    Orbital Energies [Eh]
    ---------------------

    Doubly Occupied:

       1A    -20.540942     2A    -15.553013     3A    -11.340660
       4A    -11.291797     5A    -11.258480     6A    -11.252107
       7A    -11.251837     8A    -11.250244     9A    -11.247596
      10A    -11.244859    11A    -11.240278    12A    -11.240152
      13A    -11.238855    14A    -11.234013    15A    -11.231699
      16A    -11.231644    17A     -1.373489    18A     -1.211853
      19A     -1.166348    20A     -1.136284    21A     -1.071240
      22A     -1.041449    23A     -1.022442    24A     -0.995346
      25A     -0.957371    26A     -0.875323    27A     -0.847497
      28A     -0.839106    29A     -0.810553    30A     -0.766052
      31A     -0.715632    32A     -0.685892    33A     -0.677311
      34A     -0.660080    35A     -0.646877    36A     -0.637419
      37A     -0.626151    38A     -0.600846    39A     -0.594485
      40A     -0.593304    41A     -0.585100    42A     -0.584647
      43A     -0.556900    44A     -0.545079    45A     -0.524429
      46A     -0.520707    47A     -0.516037    48A     -0.508124
      49A     -0.494606    50A     -0.481733    51A     -0.443632
      52A     -0.419927    53A     -0.353496    54A     -0.344933
      55A     -0.335117    56A     -0.305597

  @DF-RHF Final Energy:  -667.26362461687165

   => Energetics <=

    Nuclear Repulsion Energy =            994.0820019193917005
    One-Electron Energy =               -2879.2500728502018319
    Two-Electron Energy =                1217.9044463139387062
    Total Energy =                       -667.2636246168715388
  Basis Set: (AUG-CC-PVTZ AUX)
    Blend: AUG-CC-PVTZ-RI
    Molecular point group: c1

    Geometry (in Angstrom), charge = 0, multiplicity = 1:

       Center              X                  Y                   Z               Mass
    ------------   -----------------  -----------------  -----------------  -----------------
         O           -0.520502689026     2.233392028505    -0.294109961291    15.994914619570
         N           -2.983626689026     1.759050028505     0.830360038709    14.003074004430
         C            1.030128310974     0.468568028505    -0.081721961291    12.000000000000
         C           -1.503649689026     0.063609028505    -0.137337961291    12.000000000000
         C           -0.358493689026     1.006338028505    -0.179128961291    12.000000000000
         C            3.708643310974    -0.375805971495     0.173897038709    12.000000000000
         C           -2.693320689026     0.462469428505     0.270999238709    12.000000000000
         C            1.350545310974    -0.631830971495     0.726691038709    12.000000000000
         C            2.056678310974     1.156362028505    -0.743737961291    12.000000000000
         C            2.678233310974    -1.039147971495     0.852348038709    12.000000000000
         C            3.374760310974     0.725616028505    -0.627984961291    12.000000000000
         C           -1.349838689026    -1.240877971495    -0.643734961291    12.000000000000
         C           -3.831974689026    -0.445068971495     0.313475038709    12.000000000000
         C           -2.409731689026    -2.139192971495    -0.665640961291    12.000000000000
         C            5.133173310974    -0.854578971495     0.271913038709    12.000000000000
         C           -3.656474689026    -1.731928971495    -0.180137961291    12.000000000000
         H            0.567704310974    -1.148143971495     1.276539038709     1.007825032230
         H            1.803030310974     2.028015028505    -1.341804961291     1.007825032230
         H            2.919516310974    -1.882641971495     1.497408038709     1.007825032230
         H            4.162852310974     1.260383028505    -1.156079961291     1.007825032230
         H           -0.380270689026    -1.540834971495    -1.031667961291     1.007825032230
         H           -4.809469689026    -0.132086971495     0.677609038709     1.007825032230
         H           -2.273805689026    -3.137811971495    -1.071588961291     1.007825032230
         H            5.835216310974    -0.020034971495     0.188505038709     1.007825032230
         H            5.314340310974    -1.358318971495     1.225557038709     1.007825032230
         H            5.366093310974    -1.565028971495    -0.529003961291     1.007825032230
         H           -4.495755689026    -2.424040971495    -0.176761961291     1.007825032230
         H           -2.355284689026     2.461497028505     0.454091038709     1.007825032230
         H           -3.953225689026     2.051979028505     0.858280038709     1.007825032230

  Basis Set: AUG-CC-PVTZ
    Blend: AUG-CC-PVTZ
  Basis Set: (AUG-CC-PVTZ AUX)
    Blend: AUG-CC-PVTZ-JKFIT
	 Reference Energy          =    -667.2636246168716525 [Eh]
	 Singles Energy            =      -0.0000000000000000 [Eh]
	 Same-Spin Energy          =      -0.7349660662355515 [Eh]
	 Opposite-Spin Energy      =      -2.2662210616170615 [Eh]
	 Correlation Energy        =      -3.0011871278526128 [Eh]
	 Total Energy              =    -670.2648117447242839 [Eh]

	 ================> DF-SCS-MP2 Energies <==================
	-----------------------------------------------------------
	 SCS Same-Spin Scale       =       0.3333333333333333 [-]
	 SCS Opposite-Spin Scale   =       1.2000000000000000 [-]
	 SCS Same-Spin Energy      =      -0.2449886887451838 [Eh]
	 SCS Opposite-Spin Energy  =      -2.7194652739404739 [Eh]
	 SCS Correlation Energy    =      -2.9644539626856576 [Eh]
	 SCS Total Energy          =    -670.2280785795572911 [Eh]
	-----------------------------------------------------------

  Dipole Moment: [D]
     X:     0.5149      Y:    -2.0748      Z:    -0.2361     Total:     2.1507

*** Psi4 exiting successfully. Buy a developer a beer!
