                               Psi4 1.4a3.dev225

  ==> Input File <==

--------------------------------------------------------------------------
#psi4
#
memory 32 gb

molecule  {
0 1
  O       -0.5498120     2.2556960    -0.2996080
  N       -3.0129360     1.7813540     0.8248620
  C        1.0008190     0.4908720    -0.0872200
  C       -1.5329590     0.0859130    -0.1428360
  C       -0.3878030     1.0286420    -0.1846270
  C        3.6793340    -0.3535020     0.1683990
  C       -2.8127890     0.5150010     0.2964470
  C        1.3212360    -0.6095270     0.7211930
  C        2.0273690     1.1786660    -0.7492360
  C        2.6489240    -1.0168440     0.8468500
  C        3.3454510     0.7479200    -0.6334830
  C       -1.3791480    -1.2185740    -0.6492330
  C       -3.9075610    -0.4336623     0.3175507
  C       -2.4390410    -2.1168890    -0.6711390
  C        5.1038640    -0.8322750     0.2664150
  C       -3.6857840    -1.7096250    -0.1856360
  H        0.5383950    -1.1258400     1.2710410
  H        1.7737210     2.0503190    -1.3473030
  H        2.8902070    -1.8603380     1.4919100
  H        4.1335430     1.2826870    -1.1615780
  H       -0.4095800    -1.5185310    -1.0371660
  H       -4.8387790    -0.1097830     0.6721110
  H       -2.3031150    -3.1155080    -1.0770870
  H        5.8059070     0.0022690     0.1830070
  H        5.2850310    -1.3360150     1.2200590
  H        5.3367840    -1.5427250    -0.5345020
  H       -4.5250650    -2.4017370    -0.1822600
  H       -2.3845940     2.4838010     0.4485930
  H       -3.9825350     2.0742830     0.8527820
units angstrom
no_reorient  #important for SAPT in psi4, default
symmetry c1  #important for SAPT in psi4, default
}

set PROPERTIES_ORIGIN ["COM"]
properties('MP2/aug-cc-pvtz', properties = ['dipole'])
--------------------------------------------------------------------------

    Molecular point group: c1
  Charge       = 0
  Multiplicity = 1
  Basis Set: AUG-CC-PVTZ
    Blend: AUG-CC-PVTZ
  Basis Set: (AUG-CC-PVTZ AUX)
    Blend: AUG-CC-PVTZ-JKFIT

    Orbital Energies [Eh]
    ---------------------

    Doubly Occupied:

       1A    -20.537584     2A    -15.562025     3A    -11.338386
       4A    -11.302624     5A    -11.257270     6A    -11.252586
       7A    -11.252452     8A    -11.250529     9A    -11.246260
      10A    -11.243496    11A    -11.239048    12A    -11.238147
      13A    -11.237749    14A    -11.233177    15A    -11.233115
      16A    -11.227468    17A     -1.370793    18A     -1.225857
      19A     -1.165113    20A     -1.135291    21A     -1.069373
      22A     -1.034958    23A     -1.020623    24A     -0.993352
      25A     -0.954382    26A     -0.874248    27A     -0.840682
      28A     -0.837428    29A     -0.812216    30A     -0.766088
      31A     -0.714177    32A     -0.692127    33A     -0.686210
      34A     -0.661541    35A     -0.646651    36A     -0.637400
      37A     -0.614540    38A     -0.604765    39A     -0.599973
      40A     -0.592868    41A     -0.585297    42A     -0.584105
      43A     -0.554903    44A     -0.543674    45A     -0.528682
      46A     -0.517936    47A     -0.512982    48A     -0.507198
      49A     -0.493440    50A     -0.481957    51A     -0.452502
      52A     -0.418355    53A     -0.350476    54A     -0.343227
      55A     -0.333902    56A     -0.297451

  @DF-RHF Final Energy:  -667.27376021911675

   => Energetics <=

    Nuclear Repulsion Energy =            991.8731865387558173
    One-Electron Energy =               -2874.8765773546729179
    Two-Electron Energy =                1215.7296305968002343
    Total Energy =                       -667.2737602191168662
  Basis Set: (AUG-CC-PVTZ AUX)
    Blend: AUG-CC-PVTZ-RI
    Molecular point group: c1

    Geometry (in Angstrom), charge = 0, multiplicity = 1:

       Center              X                  Y                   Z               Mass
    ------------   -----------------  -----------------  -----------------  -----------------
         O           -0.512746960850     2.232293194236    -0.296413299323    15.994914619570
         N           -2.975870960850     1.757951194236     0.828056700677    14.003074004430
         C            1.037884039150     0.467469194236    -0.084025299323    12.000000000000
         C           -1.495893960850     0.062510194236    -0.139641299323    12.000000000000
         C           -0.350737960850     1.005239194236    -0.181432299323    12.000000000000
         C            3.716399039150    -0.376904805764     0.171593700677    12.000000000000
         C           -2.775723960850     0.491598194236     0.299641700677    12.000000000000
         C            1.358301039150    -0.632929805764     0.724387700677    12.000000000000
         C            2.064434039150     1.155263194236    -0.746041299323    12.000000000000
         C            2.685989039150    -1.040246805764     0.850044700677    12.000000000000
         C            3.382516039150     0.724517194236    -0.630288299323    12.000000000000
         C           -1.342082960850    -1.241976805764    -0.646038299323    12.000000000000
         C           -3.870495960850    -0.457065105764     0.320745400677    12.000000000000
         C           -2.401975960850    -2.140291805764    -0.667944299323    12.000000000000
         C            5.140929039150    -0.855677805764     0.269609700677    12.000000000000
         C           -3.648718960850    -1.733027805764    -0.182441299323    12.000000000000
         H            0.575460039150    -1.149242805764     1.274235700677     1.007825032230
         H            1.810786039150     2.026916194236    -1.344108299323     1.007825032230
         H            2.927272039150    -1.883740805764     1.495104700677     1.007825032230
         H            4.170608039150     1.259284194236    -1.158383299323     1.007825032230
         H           -0.372514960850    -1.541933805764    -1.033971299323     1.007825032230
         H           -4.801713960850    -0.133185805764     0.675305700677     1.007825032230
         H           -2.266049960850    -3.138910805764    -1.073892299323     1.007825032230
         H            5.842972039150    -0.021133805764     0.186201700677     1.007825032230
         H            5.322096039150    -1.359417805764     1.223253700677     1.007825032230
         H            5.373849039150    -1.566127805764    -0.531307299323     1.007825032230
         H           -4.487999960850    -2.425139805764    -0.179065299323     1.007825032230
         H           -2.347528960850     2.460398194236     0.451787700677     1.007825032230
         H           -3.945469960850     2.050880194236     0.855976700677     1.007825032230

  Basis Set: AUG-CC-PVTZ
    Blend: AUG-CC-PVTZ
  Basis Set: (AUG-CC-PVTZ AUX)
    Blend: AUG-CC-PVTZ-JKFIT
	 Reference Energy          =    -667.2737602191167525 [Eh]
	 Singles Energy            =      -0.0000000000000000 [Eh]
	 Same-Spin Energy          =      -0.7352237460990048 [Eh]
	 Opposite-Spin Energy      =      -2.2654369588142025 [Eh]
	 Correlation Energy        =      -3.0006607049132072 [Eh]
	 Total Energy              =    -670.2744209240299824 [Eh]

	 ================> DF-SCS-MP2 Energies <==================
	-----------------------------------------------------------
	 SCS Same-Spin Scale       =       0.3333333333333333 [-]
	 SCS Opposite-Spin Scale   =       1.2000000000000000 [-]
	 SCS Same-Spin Energy      =      -0.2450745820330016 [Eh]
	 SCS Opposite-Spin Energy  =      -2.7185243505770429 [Eh]
	 SCS Correlation Energy    =      -2.9635989326100445 [Eh]
	 SCS Total Energy          =    -670.2373591517267641 [Eh]
	-----------------------------------------------------------

  Dipole Moment: [D]
     X:     0.3145      Y:    -1.7439      Z:    -0.0689     Total:     1.7734

*** Psi4 exiting successfully. Buy a developer a beer!
