                               Psi4 1.4a3.dev225

  ==> Input File <==

--------------------------------------------------------------------------
#psi4
#
memory 32 gb

molecule  {
0 1
  O       -0.5498120     2.2556960    -0.2996080
  N       -3.0129360     1.7813540     0.8248620
  C        1.0008190     0.4908720    -0.0872200
  C       -1.5329590     0.0859130    -0.1428360
  C       -0.3878030     1.0286420    -0.1846270
  C        3.6793340    -0.3535020     0.1683990
  C       -2.8127890     0.5150010     0.2964470
  C        1.3212360    -0.6095270     0.7211930
  C        2.0273690     1.1786660    -0.7492360
  C        2.6489240    -1.0168440     0.8468500
  C        3.3454510     0.7479200    -0.6334830
  C       -1.3791480    -1.2185740    -0.6492330
  C       -3.7681451    -0.4056853     0.2870378
  C       -2.4390410    -2.1168890    -0.6711390
  C        5.1038640    -0.8322750     0.2664150
  C       -3.6857840    -1.7096250    -0.1856360
  H        0.5383950    -1.1258400     1.2710410
  H        1.7737210     2.0503190    -1.3473030
  H        2.8902070    -1.8603380     1.4919100
  H        4.1335430     1.2826870    -1.1615780
  H       -0.4095800    -1.5185310    -1.0371660
  H       -4.8387790    -0.1097830     0.6721110
  H       -2.3031150    -3.1155080    -1.0770870
  H        5.8059070     0.0022690     0.1830070
  H        5.2850310    -1.3360150     1.2200590
  H        5.3367840    -1.5427250    -0.5345020
  H       -4.5250650    -2.4017370    -0.1822600
  H       -2.3845940     2.4838010     0.4485930
  H       -3.9825350     2.0742830     0.8527820
units angstrom
no_reorient  #important for SAPT in psi4, default
symmetry c1  #important for SAPT in psi4, default
}

set PROPERTIES_ORIGIN ["COM"]
properties('MP2/aug-cc-pvtz', properties = ['dipole'])
--------------------------------------------------------------------------

    Molecular point group: c1
  Charge       = 0
  Multiplicity = 1
  Basis Set: AUG-CC-PVTZ
    Blend: AUG-CC-PVTZ
  Basis Set: (AUG-CC-PVTZ AUX)
    Blend: AUG-CC-PVTZ-JKFIT

    Orbital Energies [Eh]
    ---------------------

    Doubly Occupied:

       1A    -20.539002     2A    -15.556198     3A    -11.338787
       4A    -11.284722     5A    -11.257571     6A    -11.254270
       7A    -11.252002     8A    -11.250823     9A    -11.246558
      10A    -11.243780    11A    -11.241467    12A    -11.239316
      13A    -11.238029    14A    -11.233416    15A    -11.230546
      16A    -11.230286    17A     -1.371759    18A     -1.228925
      19A     -1.165496    20A     -1.141422    21A     -1.070091
      22A     -1.034069    23A     -1.020684    24A     -1.005267
      25A     -0.955100    26A     -0.883223    27A     -0.838490
      28A     -0.833069    29A     -0.813849    30A     -0.766808
      31A     -0.711600    32A     -0.691706    33A     -0.686230
      34A     -0.661772    35A     -0.643969    36A     -0.636520
      37A     -0.615264    38A     -0.607393    39A     -0.596751
      40A     -0.592414    41A     -0.584668    42A     -0.576668
      43A     -0.558512    44A     -0.547786    45A     -0.538982
      46A     -0.521118    47A     -0.511433    48A     -0.494179
      49A     -0.491471    50A     -0.480506    51A     -0.452068
      52A     -0.419617    53A     -0.349024    54A     -0.342893
      55A     -0.334220    56A     -0.306979

  @DF-RHF Final Energy:  -667.26412220998213

   => Energetics <=

    Nuclear Repulsion Energy =            994.9806806356783682
    One-Electron Energy =               -2881.0520663784336648
    Two-Electron Energy =                1218.8072635327732769
    Total Energy =                       -667.2641222099821334
  Basis Set: (AUG-CC-PVTZ AUX)
    Blend: AUG-CC-PVTZ-RI
    Molecular point group: c1

    Geometry (in Angstrom), charge = 0, multiplicity = 1:

       Center              X                  Y                   Z               Mass
    ------------   -----------------  -----------------  -----------------  -----------------
         O           -0.520672081960     2.230702836800    -0.294678788210    15.994914619570
         N           -2.983796081960     1.756360836800     0.829791211790    14.003074004430
         C            1.029958918040     0.465878836800    -0.082290788210    12.000000000000
         C           -1.503819081960     0.060919836800    -0.137906788210    12.000000000000
         C           -0.358663081960     1.003648836800    -0.179697788210    12.000000000000
         C            3.708473918040    -0.378495163200     0.173328211790    12.000000000000
         C           -2.783649081960     0.490007836800     0.301376211790    12.000000000000
         C            1.350375918040    -0.634520163200     0.726122211790    12.000000000000
         C            2.056508918040     1.153672836800    -0.744306788210    12.000000000000
         C            2.678063918040    -1.041837163200     0.851779211790    12.000000000000
         C            3.374590918040     0.722926836800    -0.628553788210    12.000000000000
         C           -1.350008081960    -1.243567163200    -0.644303788210    12.000000000000
         C           -3.739005181960    -0.430678463200     0.291967011790    12.000000000000
         C           -2.409901081960    -2.141882163200    -0.666209788210    12.000000000000
         C            5.133003918040    -0.857268163200     0.271344211790    12.000000000000
         C           -3.656644081960    -1.734618163200    -0.180706788210    12.000000000000
         H            0.567534918040    -1.150833163200     1.275970211790     1.007825032230
         H            1.802860918040     2.025325836800    -1.342373788210     1.007825032230
         H            2.919346918040    -1.885331163200     1.496839211790     1.007825032230
         H            4.162682918040     1.257693836800    -1.156648788210     1.007825032230
         H           -0.380440081960    -1.543524163200    -1.032236788210     1.007825032230
         H           -4.809639081960    -0.134776163200     0.677040211790     1.007825032230
         H           -2.273975081960    -3.140501163200    -1.072157788210     1.007825032230
         H            5.835046918040    -0.022724163200     0.187936211790     1.007825032230
         H            5.314170918040    -1.361008163200     1.224988211790     1.007825032230
         H            5.365923918040    -1.567718163200    -0.529572788210     1.007825032230
         H           -4.495925081960    -2.426730163200    -0.177330788210     1.007825032230
         H           -2.355454081960     2.458807836800     0.453522211790     1.007825032230
         H           -3.953395081960     2.049289836800     0.857711211790     1.007825032230

  Basis Set: AUG-CC-PVTZ
    Blend: AUG-CC-PVTZ
  Basis Set: (AUG-CC-PVTZ AUX)
    Blend: AUG-CC-PVTZ-JKFIT
	 Reference Energy          =    -667.2641222099821334 [Eh]
	 Singles Energy            =      -0.0000000000000000 [Eh]
	 Same-Spin Energy          =      -0.7362853918851421 [Eh]
	 Opposite-Spin Energy      =      -2.2665387219690540 [Eh]
	 Correlation Energy        =      -3.0028241138541962 [Eh]
	 Total Energy              =    -670.2669463238363505 [Eh]

	 ================> DF-SCS-MP2 Energies <==================
	-----------------------------------------------------------
	 SCS Same-Spin Scale       =       0.3333333333333333 [-]
	 SCS Opposite-Spin Scale   =       1.2000000000000000 [-]
	 SCS Same-Spin Energy      =      -0.2454284639617140 [Eh]
	 SCS Opposite-Spin Energy  =      -2.7198464663628648 [Eh]
	 SCS Correlation Energy    =      -2.9652749303245787 [Eh]
	 SCS Total Energy          =    -670.2293971403066735 [Eh]
	-----------------------------------------------------------

  Dipole Moment: [D]
     X:     0.4639      Y:    -1.9691      Z:    -0.1924     Total:     2.0321

*** Psi4 exiting successfully. Buy a developer a beer!
