                               Psi4 1.4a3.dev225

  ==> Input File <==

--------------------------------------------------------------------------
#psi4
#
memory 32 gb

molecule  {
0 1
  O       -0.5498120     2.2556960    -0.2996080
  N       -3.0129360     1.7813540     0.8248620
  C        1.0008190     0.4908720    -0.0872200
  C       -1.5329590     0.0859130    -0.1428360
  C       -0.3878030     1.0286420    -0.1846270
  C        3.6793340    -0.3535020     0.1683990
  C       -2.8127890     0.5150010     0.2964470
  C        1.3212360    -0.6095270     0.7211930
  C        2.0273690     1.1786660    -0.7492360
  C        2.6489240    -1.0168440     0.8468500
  C        3.3454510     0.7479200    -0.6334830
  C       -1.3649825    -1.2353642    -0.6595080
  C       -3.8612840    -0.4227650     0.3079770
  C       -2.4390410    -2.1168890    -0.6711390
  C        5.1038640    -0.8322750     0.2664150
  C       -3.6857840    -1.7096250    -0.1856360
  H        0.5383950    -1.1258400     1.2710410
  H        1.7737210     2.0503190    -1.3473030
  H        2.8902070    -1.8603380     1.4919100
  H        4.1335430     1.2826870    -1.1615780
  H       -0.4095800    -1.5185310    -1.0371660
  H       -4.8387790    -0.1097830     0.6721110
  H       -2.3031150    -3.1155080    -1.0770870
  H        5.8059070     0.0022690     0.1830070
  H        5.2850310    -1.3360150     1.2200590
  H        5.3367840    -1.5427250    -0.5345020
  H       -4.5250650    -2.4017370    -0.1822600
  H       -2.3845940     2.4838010     0.4485930
  H       -3.9825350     2.0742830     0.8527820
units angstrom
no_reorient  #important for SAPT in psi4, default
symmetry c1  #important for SAPT in psi4, default
}

set PROPERTIES_ORIGIN ["COM"]
properties('MP2/aug-cc-pvtz', properties = ['dipole'])
--------------------------------------------------------------------------

    Molecular point group: c1
  Charge       = 0
  Multiplicity = 1
  Basis Set: AUG-CC-PVTZ
    Blend: AUG-CC-PVTZ
  Basis Set: (AUG-CC-PVTZ AUX)
    Blend: AUG-CC-PVTZ-JKFIT

    Orbital Energies [Eh]
    ---------------------

    Doubly Occupied:

       1A    -20.537169     2A    -15.560029     3A    -11.337695
       4A    -11.297065     5A    -11.257215     6A    -11.253313
       7A    -11.252829     8A    -11.250419     9A    -11.246155
      10A    -11.243359    11A    -11.240434    12A    -11.239021
      13A    -11.237720    14A    -11.233158    15A    -11.233081
      16A    -11.229137    17A     -1.370334    18A     -1.226287
      19A     -1.165012    20A     -1.135485    21A     -1.069239
      22A     -1.033216    23A     -1.020308    24A     -0.997453
      25A     -0.954279    26A     -0.877380    27A     -0.839385
      28A     -0.837035    29A     -0.812322    30A     -0.765234
      31A     -0.712992    32A     -0.693062    33A     -0.685380
      34A     -0.661070    35A     -0.645103    36A     -0.635945
      37A     -0.614382    38A     -0.607272    39A     -0.599456
      40A     -0.592558    41A     -0.584323    42A     -0.583055
      43A     -0.555434    44A     -0.544472    45A     -0.530546
      46A     -0.517771    47A     -0.515066    48A     -0.504832
      49A     -0.493364    50A     -0.481843    51A     -0.451853
      52A     -0.418210    53A     -0.348265    54A     -0.342523
      55A     -0.333897    56A     -0.301084

  @DF-RHF Final Energy:  -667.27554099311885

   => Energetics <=

    Nuclear Repulsion Energy =            992.5062692344250763
    One-Electron Energy =               -2876.1545646704785213
    Two-Electron Energy =                1216.3727544429345926
    Total Energy =                       -667.2755409931189661
  Basis Set: (AUG-CC-PVTZ AUX)
    Blend: AUG-CC-PVTZ-RI
    Molecular point group: c1

    Geometry (in Angstrom), charge = 0, multiplicity = 1:

       Center              X                  Y                   Z               Mass
    ------------   -----------------  -----------------  -----------------  -----------------
         O           -0.516182825287     2.232628177163    -0.295284996516    15.994914619570
         N           -2.979306825287     1.758286177163     0.829185003484    14.003074004430
         C            1.034448174713     0.467804177163    -0.082896996516    12.000000000000
         C           -1.499329825287     0.062845177163    -0.138512996516    12.000000000000
         C           -0.354173825287     1.005574177163    -0.180303996516    12.000000000000
         C            3.712963174713    -0.376569822837     0.172722003484    12.000000000000
         C           -2.779159825287     0.491933177163     0.300770003484    12.000000000000
         C            1.354865174713    -0.632594822837     0.725516003484    12.000000000000
         C            2.060998174713     1.155598177163    -0.744912996516    12.000000000000
         C            2.682553174713    -1.039911822837     0.851173003484    12.000000000000
         C            3.379080174713     0.724852177163    -0.629159996516    12.000000000000
         C           -1.331353325287    -1.258432022837    -0.655184996516    12.000000000000
         C           -3.827654825287    -0.445832822837     0.312300003484    12.000000000000
         C           -2.405411825287    -2.139956822837    -0.666815996516    12.000000000000
         C            5.137493174713    -0.855342822837     0.270738003484    12.000000000000
         C           -3.652154825287    -1.732692822837    -0.181312996516    12.000000000000
         H            0.572024174713    -1.148907822837     1.275364003484     1.007825032230
         H            1.807350174713     2.027251177163    -1.342979996516     1.007825032230
         H            2.923836174713    -1.883405822837     1.496233003484     1.007825032230
         H            4.167172174713     1.259619177163    -1.157254996516     1.007825032230
         H           -0.375950825287    -1.541598822837    -1.032842996516     1.007825032230
         H           -4.805149825287    -0.132850822837     0.676434003484     1.007825032230
         H           -2.269485825287    -3.138575822837    -1.072763996516     1.007825032230
         H            5.839536174713    -0.020798822837     0.187330003484     1.007825032230
         H            5.318660174713    -1.359082822837     1.224382003484     1.007825032230
         H            5.370413174713    -1.565792822837    -0.530178996516     1.007825032230
         H           -4.491435825287    -2.424804822837    -0.177936996516     1.007825032230
         H           -2.350964825287     2.460733177163     0.452916003484     1.007825032230
         H           -3.948905825287     2.051215177163     0.857105003484     1.007825032230

  Basis Set: AUG-CC-PVTZ
    Blend: AUG-CC-PVTZ
  Basis Set: (AUG-CC-PVTZ AUX)
    Blend: AUG-CC-PVTZ-JKFIT
	 Reference Energy          =    -667.2755409931188524 [Eh]
	 Singles Energy            =      -0.0000000000000000 [Eh]
	 Same-Spin Energy          =      -0.7355506073340019 [Eh]
	 Opposite-Spin Energy      =      -2.2656887812560607 [Eh]
	 Correlation Energy        =      -3.0012393885900623 [Eh]
	 Total Energy              =    -670.2767803817089316 [Eh]

	 ================> DF-SCS-MP2 Energies <==================
	-----------------------------------------------------------
	 SCS Same-Spin Scale       =       0.3333333333333333 [-]
	 SCS Opposite-Spin Scale   =       1.2000000000000000 [-]
	 SCS Same-Spin Energy      =      -0.2451835357780006 [Eh]
	 SCS Opposite-Spin Energy  =      -2.7188265375072729 [Eh]
	 SCS Correlation Energy    =      -2.9640100732852734 [Eh]
	 SCS Total Energy          =    -670.2395510664041467 [Eh]
	-----------------------------------------------------------

  Dipole Moment: [D]
     X:     0.3229      Y:    -1.8300      Z:    -0.1042     Total:     1.8612

*** Psi4 exiting successfully. Buy a developer a beer!
