                               Psi4 1.4a3.dev225

  ==> Input File <==

--------------------------------------------------------------------------
#psi4
#
memory 32 gb

molecule  {
0 1
  O       -0.5498120     2.2556960    -0.2996080
  N       -3.0129360     1.7813540     0.8248620
  C        1.0008190     0.4908720    -0.0872200
  C       -1.5329590     0.0859130    -0.1428360
  C       -0.3878030     1.0286420    -0.1846270
  C        3.6793340    -0.3535020     0.1683990
  C       -2.8127890     0.5150010     0.2964470
  C        1.3212360    -0.6095270     0.7211930
  C        2.0273690     1.1786660    -0.7492360
  C        2.6489240    -1.0168440     0.8468500
  C        3.3454510     0.7479200    -0.6334830
  C       -1.3791480    -1.2185740    -0.6492330
  C       -3.8612840    -0.4227650     0.3079770
  C       -2.4390410    -2.1168890    -0.6711390
  C        5.1038640    -0.8322750     0.2664150
  C       -3.6857840    -1.7096250    -0.1856360
  H        0.5383950    -1.1258400     1.2710410
  H        1.7737210     2.0503190    -1.3473030
  H        2.8902070    -1.8603380     1.4919100
  H        4.1335430     1.2826870    -1.1615780
  H       -0.4095800    -1.5185310    -1.0371660
  H       -4.8387790    -0.1097830     0.6721110
  H       -2.3031150    -3.1155080    -1.0770870
  H        5.8059070     0.0022690     0.1830070
  H        5.2817178    -1.3268027     1.2026189
  H        5.3367840    -1.5427250    -0.5345020
  H       -4.5250650    -2.4017370    -0.1822600
  H       -2.3845940     2.4838010     0.4485930
  H       -3.9825350     2.0742830     0.8527820
units angstrom
no_reorient  #important for SAPT in psi4, default
symmetry c1  #important for SAPT in psi4, default
}

set PROPERTIES_ORIGIN ["COM"]
properties('MP2/aug-cc-pvtz', properties = ['dipole'])
--------------------------------------------------------------------------

    Molecular point group: c1
  Charge       = 0
  Multiplicity = 1
  Basis Set: AUG-CC-PVTZ
    Blend: AUG-CC-PVTZ
  Basis Set: (AUG-CC-PVTZ AUX)
    Blend: AUG-CC-PVTZ-JKFIT

    Orbital Energies [Eh]
    ---------------------

    Doubly Occupied:

       1A    -20.537969     2A    -15.560000     3A    -11.338442
       4A    -11.296873     5A    -11.257176     6A    -11.252703
       7A    -11.252230     8A    -11.250562     9A    -11.246248
      10A    -11.243490    11A    -11.239084    12A    -11.239074
      13A    -11.237665    14A    -11.231940    15A    -11.230811
      16A    -11.228277    17A     -1.371031    18A     -1.226535
      19A     -1.165165    20A     -1.137084    21A     -1.069781
      22A     -1.034703    23A     -1.020545    24A     -0.996538
      25A     -0.955733    26A     -0.877233    27A     -0.838832
      28A     -0.836552    29A     -0.813256    30A     -0.766158
      31A     -0.712747    32A     -0.691821    33A     -0.686194
      34A     -0.661184    35A     -0.645724    36A     -0.636437
      37A     -0.614266    38A     -0.603684    39A     -0.599967
      40A     -0.592629    41A     -0.584980    42A     -0.583999
      43A     -0.557167    44A     -0.545634    45A     -0.532081
      46A     -0.517991    47A     -0.513178    48A     -0.504791
      49A     -0.493642    50A     -0.482057    51A     -0.452270
      52A     -0.418880    53A     -0.349693    54A     -0.343032
      55A     -0.333932    56A     -0.300334

  @DF-RHF Final Energy:  -667.27664106945224

   => Energetics <=

    Nuclear Repulsion Energy =            992.9705667905244582
    One-Electron Energy =               -2877.0744035623743002
    Two-Electron Energy =                1216.8271957023976029
    Total Energy =                       -667.2766410694521255
  Basis Set: (AUG-CC-PVTZ AUX)
    Blend: AUG-CC-PVTZ-RI
    Molecular point group: c1

    Geometry (in Angstrom), charge = 0, multiplicity = 1:

       Center              X                  Y                   Z               Mass
    ------------   -----------------  -----------------  -----------------  -----------------
         O           -0.515361767207     2.231629754273    -0.295785818751    15.994914619570
         N           -2.978485767207     1.757287754273     0.828684181249    14.003074004430
         C            1.035269232793     0.466805754273    -0.083397818751    12.000000000000
         C           -1.498508767207     0.061846754273    -0.139013818751    12.000000000000
         C           -0.353352767207     1.004575754273    -0.180804818751    12.000000000000
         C            3.713784232793    -0.377568245727     0.172221181249    12.000000000000
         C           -2.778338767207     0.490934754273     0.300269181249    12.000000000000
         C            1.355686232793    -0.633593245727     0.725015181249    12.000000000000
         C            2.061819232793     1.154599754273    -0.745413818751    12.000000000000
         C            2.683374232793    -1.040910245727     0.850672181249    12.000000000000
         C            3.379901232793     0.723853754273    -0.629660818751    12.000000000000
         C           -1.344697767207    -1.242640245727    -0.645410818751    12.000000000000
         C           -3.826833767207    -0.446831245727     0.311799181249    12.000000000000
         C           -2.404590767207    -2.140955245727    -0.667316818751    12.000000000000
         C            5.138314232793    -0.856341245727     0.270237181249    12.000000000000
         C           -3.651333767207    -1.733691245727    -0.181813818751    12.000000000000
         H            0.572845232793    -1.149906245727     1.274863181249     1.007825032230
         H            1.808171232793     2.026252754273    -1.343480818751     1.007825032230
         H            2.924657232793    -1.884404245727     1.495732181249     1.007825032230
         H            4.167993232793     1.258620754273    -1.157755818751     1.007825032230
         H           -0.375129767207    -1.542597245727    -1.033343818751     1.007825032230
         H           -4.804328767207    -0.133849245727     0.675933181249     1.007825032230
         H           -2.268664767207    -3.139574245727    -1.073264818751     1.007825032230
         H            5.840357232793    -0.021797245727     0.186829181249     1.007825032230
         H            5.316168032793    -1.350868945727     1.206441081249     1.007825032230
         H            5.371234232793    -1.566791245727    -0.530679818751     1.007825032230
         H           -4.490614767207    -2.425803245727    -0.178437818751     1.007825032230
         H           -2.350143767207     2.459734754273     0.452415181249     1.007825032230
         H           -3.948084767207     2.050216754273     0.856604181249     1.007825032230

  Basis Set: AUG-CC-PVTZ
    Blend: AUG-CC-PVTZ
  Basis Set: (AUG-CC-PVTZ AUX)
    Blend: AUG-CC-PVTZ-JKFIT
	 Reference Energy          =    -667.2766410694522392 [Eh]
	 Singles Energy            =      -0.0000000000000000 [Eh]
	 Same-Spin Energy          =      -0.7355178258777806 [Eh]
	 Opposite-Spin Energy      =      -2.2653820669700071 [Eh]
	 Correlation Energy        =      -3.0008998928477877 [Eh]
	 Total Energy              =    -670.2775409623000087 [Eh]

	 ================> DF-SCS-MP2 Energies <==================
	-----------------------------------------------------------
	 SCS Same-Spin Scale       =       0.3333333333333333 [-]
	 SCS Opposite-Spin Scale   =       1.2000000000000000 [-]
	 SCS Same-Spin Energy      =      -0.2451726086259269 [Eh]
	 SCS Opposite-Spin Energy  =      -2.7184584803640086 [Eh]
	 SCS Correlation Energy    =      -2.9636310889899353 [Eh]
	 SCS Total Energy          =    -670.2402721584421670 [Eh]
	-----------------------------------------------------------

  Dipole Moment: [D]
     X:     0.3598      Y:    -1.8199      Z:    -0.0986     Total:     1.8578

*** Psi4 exiting successfully. Buy a developer a beer!
