                               Psi4 1.4a3.dev225

  ==> Input File <==

--------------------------------------------------------------------------
#psi4
#
memory 32 gb

molecule  {
0 1
  O       -0.5498120     2.2556960    -0.2996080
  N       -3.0129360     1.7813540     0.8248620
  C        1.0008190     0.4908720    -0.0872200
  C       -1.5329590     0.0859130    -0.1428360
  C       -0.3878030     1.0286420    -0.1846270
  C        3.6793340    -0.3535020     0.1683990
  C       -2.8127890     0.5150010     0.2964470
  C        1.3212360    -0.6095270     0.7211930
  C        2.0273690     1.1786660    -0.7492360
  C        2.6489240    -1.0168440     0.8468500
  C        3.3454510     0.7479200    -0.6334830
  C       -1.3791480    -1.2185740    -0.6492330
  C       -3.8612840    -0.4227650     0.3079770
  C       -2.4390410    -2.1168890    -0.6711390
  C        5.1038640    -0.8322750     0.2664150
  C       -3.6857840    -1.7096250    -0.1856360
  H        0.5383950    -1.1258400     1.2710410
  H        1.7737210     2.0503190    -1.3473030
  H        2.8902070    -1.8603380     1.4919100
  H        4.1335430     1.2826870    -1.1615780
  H       -0.4095800    -1.5185310    -1.0371660
  H       -4.8387790    -0.1097830     0.6721110
  H       -2.3031150    -3.1155080    -1.0770870
  H        5.8059070     0.0022690     0.1830070
  H        5.2850310    -1.3360150     1.2200590
  H        5.3367840    -1.5427250    -0.5345020
  H       -4.5250650    -2.4017370    -0.1822600
  H       -2.3845940     2.4838010     0.4485930
  H       -4.1739158     2.1321017     0.8582929
units angstrom
no_reorient  #important for SAPT in psi4, default
symmetry c1  #important for SAPT in psi4, default
}

set PROPERTIES_ORIGIN ["COM"]
properties('MP2/aug-cc-pvtz', properties = ['dipole'])
--------------------------------------------------------------------------

    Molecular point group: c1
  Charge       = 0
  Multiplicity = 1
  Basis Set: AUG-CC-PVTZ
    Blend: AUG-CC-PVTZ
  Basis Set: (AUG-CC-PVTZ AUX)
    Blend: AUG-CC-PVTZ-JKFIT

    Orbital Energies [Eh]
    ---------------------

    Doubly Occupied:

       1A    -20.538126     2A    -15.577416     3A    -11.338541
       4A    -11.297154     5A    -11.257299     6A    -11.252299
       7A    -11.252175     8A    -11.250545     9A    -11.246288
      10A    -11.243522    11A    -11.239425    12A    -11.239051
      13A    -11.237761    14A    -11.233189    15A    -11.231457
      16A    -11.227970    17A     -1.371133    18A     -1.214422
      19A     -1.165031    20A     -1.131567    21A     -1.069499
      22A     -1.034201    23A     -1.020521    24A     -0.991475
      25A     -0.953959    26A     -0.876573    27A     -0.838368
      28A     -0.832911    29A     -0.810802    30A     -0.765918
      31A     -0.709586    32A     -0.689331    33A     -0.667072
      34A     -0.660242    35A     -0.643436    36A     -0.636145
      37A     -0.607733    38A     -0.603144    39A     -0.596364
      40A     -0.592278    41A     -0.584072    42A     -0.570222
      43A     -0.555575    44A     -0.544367    45A     -0.531590
      46A     -0.517666    47A     -0.512012    48A     -0.504274
      49A     -0.493425    50A     -0.481843    51A     -0.450426
      52A     -0.418522    53A     -0.349581    54A     -0.343027
      55A     -0.333937    56A     -0.299163

  @DF-RHF Final Energy:  -667.24705634003499

   => Energetics <=

    Nuclear Repulsion Energy =            991.7934163686628608
    One-Electron Energy =               -2874.8136831023070954
    Two-Electron Energy =                1215.7732103936093608
    Total Energy =                       -667.2470563400349874
  Basis Set: (AUG-CC-PVTZ AUX)
    Blend: AUG-CC-PVTZ-RI
    Molecular point group: c1

    Geometry (in Angstrom), charge = 0, multiplicity = 1:

       Center              X                  Y                   Z               Mass
    ------------   -----------------  -----------------  -----------------  -----------------
         O           -0.514463901305     2.231397699261    -0.295895390630    15.994914619570
         N           -2.977587901305     1.757055699261     0.828574609370    14.003074004430
         C            1.036167098695     0.466573699261    -0.083507390630    12.000000000000
         C           -1.497610901305     0.061614699261    -0.139123390630    12.000000000000
         C           -0.352454901305     1.004343699261    -0.180914390630    12.000000000000
         C            3.714682098695    -0.377800300739     0.172111609370    12.000000000000
         C           -2.777440901305     0.490702699261     0.300159609370    12.000000000000
         C            1.356584098695    -0.633825300739     0.724905609370    12.000000000000
         C            2.062717098695     1.154367699261    -0.745523390630    12.000000000000
         C            2.684272098695    -1.041142300739     0.850562609370    12.000000000000
         C            3.380799098695     0.723621699261    -0.629770390630    12.000000000000
         C           -1.343799901305    -1.242872300739    -0.645520390630    12.000000000000
         C           -3.825935901305    -0.447063300739     0.311689609370    12.000000000000
         C           -2.403692901305    -2.141187300739    -0.667426390630    12.000000000000
         C            5.139212098695    -0.856573300739     0.270127609370    12.000000000000
         C           -3.650435901305    -1.733923300739    -0.181923390630    12.000000000000
         H            0.573743098695    -1.150138300739     1.274753609370     1.007825032230
         H            1.809069098695     2.026020699261    -1.343590390630     1.007825032230
         H            2.925555098695    -1.884636300739     1.495622609370     1.007825032230
         H            4.168891098695     1.258388699261    -1.157865390630     1.007825032230
         H           -0.374231901305    -1.542829300739    -1.033453390630     1.007825032230
         H           -4.803430901305    -0.134081300739     0.675823609370     1.007825032230
         H           -2.267766901305    -3.139806300739    -1.073374390630     1.007825032230
         H            5.841255098695    -0.022029300739     0.186719609370     1.007825032230
         H            5.320379098695    -1.360313300739     1.223771609370     1.007825032230
         H            5.372132098695    -1.567023300739    -0.530789390630     1.007825032230
         H           -4.489716901305    -2.426035300739    -0.178547390630     1.007825032230
         H           -2.349245901305     2.459502699261     0.452305609370     1.007825032230
         H           -4.138567701305     2.107803399261     0.862005509370     1.007825032230

  Basis Set: AUG-CC-PVTZ
    Blend: AUG-CC-PVTZ
  Basis Set: (AUG-CC-PVTZ AUX)
    Blend: AUG-CC-PVTZ-JKFIT
	 Reference Energy          =    -667.2470563400349874 [Eh]
	 Singles Energy            =      -0.0000000000000000 [Eh]
	 Same-Spin Energy          =      -0.7368085004323172 [Eh]
	 Opposite-Spin Energy      =      -2.2696070338238288 [Eh]
	 Correlation Energy        =      -3.0064155342561460 [Eh]
	 Total Energy              =    -670.2534718742911082 [Eh]

	 ================> DF-SCS-MP2 Energies <==================
	-----------------------------------------------------------
	 SCS Same-Spin Scale       =       0.3333333333333333 [-]
	 SCS Opposite-Spin Scale   =       1.2000000000000000 [-]
	 SCS Same-Spin Energy      =      -0.2456028334774391 [Eh]
	 SCS Opposite-Spin Energy  =      -2.7235284405885944 [Eh]
	 SCS Correlation Energy    =      -2.9691312740660334 [Eh]
	 SCS Total Energy          =    -670.2161876141010453 [Eh]
	-----------------------------------------------------------

  Dipole Moment: [D]
     X:     0.2562      Y:    -1.7790      Z:    -0.0967     Total:     1.8000

*** Psi4 exiting successfully. Buy a developer a beer!
