                               Psi4 1.4a3.dev225

  ==> Input File <==

--------------------------------------------------------------------------
#psi4
#
memory 32 gb

molecule  {
0 1
  O       -0.5498120     2.2556960    -0.2996080
  N       -3.0129360     1.7813540     0.8248620
  C        1.0008190     0.4908720    -0.0872200
  C       -1.5329590     0.0859130    -0.1428360
  C       -0.3878030     1.0286420    -0.1846270
  C        3.7263444    -0.3468829     0.1564219
  C       -2.8127890     0.5150010     0.2964470
  C        1.3212360    -0.6095270     0.7211930
  C        2.0273690     1.1786660    -0.7492360
  C        2.6489240    -1.0168440     0.8468500
  C        3.3454510     0.7479200    -0.6334830
  C       -1.3791480    -1.2185740    -0.6492330
  C       -3.8612840    -0.4227650     0.3079770
  C       -2.4390410    -2.1168890    -0.6711390
  C        5.1038640    -0.8322750     0.2664150
  C       -3.6857840    -1.7096250    -0.1856360
  H        0.5383950    -1.1258400     1.2710410
  H        1.7737210     2.0503190    -1.3473030
  H        2.8902070    -1.8603380     1.4919100
  H        4.1335430     1.2826870    -1.1615780
  H       -0.4095800    -1.5185310    -1.0371660
  H       -4.8387790    -0.1097830     0.6721110
  H       -2.3031150    -3.1155080    -1.0770870
  H        5.8059070     0.0022690     0.1830070
  H        5.2850310    -1.3360150     1.2200590
  H        5.3367840    -1.5427250    -0.5345020
  H       -4.5250650    -2.4017370    -0.1822600
  H       -2.3845940     2.4838010     0.4485930
  H       -3.9825350     2.0742830     0.8527820
units angstrom
no_reorient  #important for SAPT in psi4, default
symmetry c1  #important for SAPT in psi4, default
}

set PROPERTIES_ORIGIN ["COM"]
properties('MP2/aug-cc-pvtz', properties = ['dipole'])
--------------------------------------------------------------------------

    Molecular point group: c1
  Charge       = 0
  Multiplicity = 1
  Basis Set: AUG-CC-PVTZ
    Blend: AUG-CC-PVTZ
  Basis Set: (AUG-CC-PVTZ AUX)
    Blend: AUG-CC-PVTZ-JKFIT

    Orbital Energies [Eh]
    ---------------------

    Doubly Occupied:

       1A    -20.537790     2A    -15.559877     3A    -11.338211
       4A    -11.296744     5A    -11.260690     6A    -11.252580
       7A    -11.252110     8A    -11.249782     9A    -11.246835
      10A    -11.243422    11A    -11.243038    12A    -11.238936
      13A    -11.237885    14A    -11.232777    15A    -11.231818
      16A    -11.228159    17A     -1.370832    18A     -1.226409
      19A     -1.162214    20A     -1.136856    21A     -1.072919
      22A     -1.035729    23A     -1.018580    24A     -0.996481
      25A     -0.957561    26A     -0.877035    27A     -0.838444
      28A     -0.832251    29A     -0.813428    30A     -0.765312
      31A     -0.712342    32A     -0.691753    33A     -0.685975
      34A     -0.661291    35A     -0.646946    36A     -0.637033
      37A     -0.614045    38A     -0.603743    39A     -0.599801
      40A     -0.589786    41A     -0.587955    42A     -0.584685
      43A     -0.557257    44A     -0.544973    45A     -0.532325
      46A     -0.523062    47A     -0.515530    48A     -0.506265
      49A     -0.486212    50A     -0.479743    51A     -0.452116
      52A     -0.418681    53A     -0.349707    54A     -0.343238
      55A     -0.329171    56A     -0.300195

  @DF-RHF Final Energy:  -667.27241824854661

   => Energetics <=

    Nuclear Repulsion Energy =            992.3024551054726317
    One-Electron Energy =               -2875.7326755964058975
    Two-Electron Energy =                1216.1578022423864240
    Total Energy =                       -667.2724182485467281
  Basis Set: (AUG-CC-PVTZ AUX)
    Blend: AUG-CC-PVTZ-RI
    Molecular point group: c1

    Geometry (in Angstrom), charge = 0, multiplicity = 1:

       Center              X                  Y                   Z               Mass
    ------------   -----------------  -----------------  -----------------  -----------------
         O           -0.518049899346     2.231297471428    -0.295188240345    15.994914619570
         N           -2.981173899346     1.756955471428     0.829281759655    14.003074004430
         C            1.032581100654     0.466473471428    -0.082800240345    12.000000000000
         C           -1.501196899346     0.061514471428    -0.138416240345    12.000000000000
         C           -0.356040899346     1.004243471428    -0.180207240345    12.000000000000
         C            3.758106500654    -0.371281428572     0.160841659655    12.000000000000
         C           -2.781026899346     0.490602471428     0.300866759655    12.000000000000
         C            1.352998100654    -0.633925528572     0.725612759655    12.000000000000
         C            2.059131100654     1.154267471428    -0.744816240345    12.000000000000
         C            2.680686100654    -1.041242528572     0.851269759655    12.000000000000
         C            3.377213100654     0.723521471428    -0.629063240345    12.000000000000
         C           -1.347385899346    -1.242972528572    -0.644813240345    12.000000000000
         C           -3.829521899346    -0.447163528572     0.312396759655    12.000000000000
         C           -2.407278899346    -2.141287528572    -0.666719240345    12.000000000000
         C            5.135626100654    -0.856673528572     0.270834759655    12.000000000000
         C           -3.654021899346    -1.734023528572    -0.181216240345    12.000000000000
         H            0.570157100654    -1.150238528572     1.275460759655     1.007825032230
         H            1.805483100654     2.025920471428    -1.342883240345     1.007825032230
         H            2.921969100654    -1.884736528572     1.496329759655     1.007825032230
         H            4.165305100654     1.258288471428    -1.157158240345     1.007825032230
         H           -0.377817899346    -1.542929528572    -1.032746240345     1.007825032230
         H           -4.807016899346    -0.134181528572     0.676530759655     1.007825032230
         H           -2.271352899346    -3.139906528572    -1.072667240345     1.007825032230
         H            5.837669100654    -0.022129528572     0.187426759655     1.007825032230
         H            5.316793100654    -1.360413528572     1.224478759655     1.007825032230
         H            5.368546100654    -1.567123528572    -0.530082240345     1.007825032230
         H           -4.493302899346    -2.426135528572    -0.177840240345     1.007825032230
         H           -2.352831899346     2.459402471428     0.453012759655     1.007825032230
         H           -3.950772899346     2.049884471428     0.857201759655     1.007825032230

  Basis Set: AUG-CC-PVTZ
    Blend: AUG-CC-PVTZ
  Basis Set: (AUG-CC-PVTZ AUX)
    Blend: AUG-CC-PVTZ-JKFIT
	 Reference Energy          =    -667.2724182485466144 [Eh]
	 Singles Energy            =      -0.0000000000000000 [Eh]
	 Same-Spin Energy          =      -0.7360314543454183 [Eh]
	 Opposite-Spin Energy      =      -2.2663139130030068 [Eh]
	 Correlation Energy        =      -3.0023453673484251 [Eh]
	 Total Energy              =    -670.2747636158950399 [Eh]

	 ================> DF-SCS-MP2 Energies <==================
	-----------------------------------------------------------
	 SCS Same-Spin Scale       =       0.3333333333333333 [-]
	 SCS Opposite-Spin Scale   =       1.2000000000000000 [-]
	 SCS Same-Spin Energy      =      -0.2453438181151394 [Eh]
	 SCS Opposite-Spin Energy  =      -2.7195766956036080 [Eh]
	 SCS Correlation Energy    =      -2.9649205137187473 [Eh]
	 SCS Total Energy          =    -670.2373387622653809 [Eh]
	-----------------------------------------------------------

  Dipole Moment: [D]
     X:     0.4248      Y:    -1.8472      Z:    -0.0988     Total:     1.8980

*** Psi4 exiting successfully. Buy a developer a beer!
