                               Psi4 1.4a3.dev225

  ==> Input File <==

--------------------------------------------------------------------------
#psi4
#
memory 32 gb

molecule  {
0 1
  O       -0.5498120     2.2556960    -0.2996080
  N       -3.0129360     1.7813540     0.8248620
  C        1.0008190     0.4908720    -0.0872200
  C       -1.5329590     0.0859130    -0.1428360
  C       -0.3878030     1.0286420    -0.1846270
  C        3.6793340    -0.3535020     0.1683990
  C       -2.8127890     0.5150010     0.2964470
  C        1.3212360    -0.6095270     0.7211930
  C        2.0273690     1.1786660    -0.7492360
  C        2.7164961    -1.0774572     0.8831684
  C        3.3454510     0.7479200    -0.6334830
  C       -1.3791480    -1.2185740    -0.6492330
  C       -3.8612840    -0.4227650     0.3079770
  C       -2.4390410    -2.1168890    -0.6711390
  C        5.1038640    -0.8322750     0.2664150
  C       -3.6857840    -1.7096250    -0.1856360
  H        0.5383950    -1.1258400     1.2710410
  H        1.7737210     2.0503190    -1.3473030
  H        2.8902070    -1.8603380     1.4919100
  H        4.1335430     1.2826870    -1.1615780
  H       -0.4095800    -1.5185310    -1.0371660
  H       -4.8387790    -0.1097830     0.6721110
  H       -2.3031150    -3.1155080    -1.0770870
  H        5.8059070     0.0022690     0.1830070
  H        5.2850310    -1.3360150     1.2200590
  H        5.3367840    -1.5427250    -0.5345020
  H       -4.5250650    -2.4017370    -0.1822600
  H       -2.3845940     2.4838010     0.4485930
  H       -3.9825350     2.0742830     0.8527820
units angstrom
no_reorient  #important for SAPT in psi4, default
symmetry c1  #important for SAPT in psi4, default
}

set PROPERTIES_ORIGIN ["COM"]
properties('MP2/aug-cc-pvtz', properties = ['dipole'])
--------------------------------------------------------------------------

    Molecular point group: c1
  Charge       = 0
  Multiplicity = 1
  Basis Set: AUG-CC-PVTZ
    Blend: AUG-CC-PVTZ
  Basis Set: (AUG-CC-PVTZ AUX)
    Blend: AUG-CC-PVTZ-JKFIT

    Orbital Energies [Eh]
    ---------------------

    Doubly Occupied:

       1A    -20.538672     2A    -15.560179     3A    -11.339438
       4A    -11.297032     5A    -11.260694     6A    -11.258241
       7A    -11.252819     8A    -11.252240     9A    -11.248062
      10A    -11.244679    11A    -11.241072    12A    -11.239281
      13A    -11.238432    14A    -11.232022    15A    -11.230180
      16A    -11.228296    17A     -1.371773    18A     -1.226709
      19A     -1.159362    20A     -1.136992    21A     -1.070691
      22A     -1.035536    23A     -1.013429    24A     -0.996517
      25A     -0.951425    26A     -0.876292    27A     -0.845827
      28A     -0.834899    29A     -0.812797    30A     -0.768860
      31A     -0.713829    32A     -0.691479    33A     -0.686780
      34A     -0.657257    35A     -0.650241    36A     -0.641069
      37A     -0.613919    38A     -0.605937    39A     -0.603091
      40A     -0.593238    41A     -0.584824    42A     -0.582423
      43A     -0.556316    44A     -0.543047    45A     -0.531690
      46A     -0.515971    47A     -0.508567    48A     -0.507075
      49A     -0.494599    50A     -0.478645    51A     -0.452245
      52A     -0.418884    53A     -0.349118    54A     -0.337458
      55A     -0.335768    56A     -0.300456

  @DF-RHF Final Energy:  -667.26349587475659

   => Energetics <=

    Nuclear Repulsion Energy =            991.1874164805581131
    One-Electron Energy =               -2873.4690793388040220
    Two-Electron Energy =                1215.0181669834892091
    Total Energy =                       -667.2634958747566998
  Basis Set: (AUG-CC-PVTZ AUX)
    Blend: AUG-CC-PVTZ-RI
    Molecular point group: c1

    Geometry (in Angstrom), charge = 0, multiplicity = 1:

       Center              X                  Y                   Z               Mass
    ------------   -----------------  -----------------  -----------------  -----------------
         O           -0.519218732762     2.235119303228    -0.297933606451    15.994914619570
         N           -2.982342732762     1.760777303228     0.826536393549    14.003074004430
         C            1.031412267238     0.470295303228    -0.085545606451    12.000000000000
         C           -1.502365732762     0.065336303228    -0.141161606451    12.000000000000
         C           -0.357209732762     1.008065303228    -0.182952606451    12.000000000000
         C            3.709927267238    -0.374078696772     0.170073393549    12.000000000000
         C           -2.782195732762     0.494424303228     0.298121393549    12.000000000000
         C            1.351829267238    -0.630103696772     0.722867393549    12.000000000000
         C            2.057962267238     1.158089303228    -0.747561606451    12.000000000000
         C            2.747089367238    -1.098033896772     0.884842793549    12.000000000000
         C            3.376044267238     0.727343303228    -0.631808606451    12.000000000000
         C           -1.348554732762    -1.239150696772    -0.647558606451    12.000000000000
         C           -3.830690732762    -0.443341696772     0.309651393549    12.000000000000
         C           -2.408447732762    -2.137465696772    -0.669464606451    12.000000000000
         C            5.134457267238    -0.852851696772     0.268089393549    12.000000000000
         C           -3.655190732762    -1.730201696772    -0.183961606451    12.000000000000
         H            0.568988267238    -1.146416696772     1.272715393549     1.007825032230
         H            1.804314267238     2.029742303228    -1.345628606451     1.007825032230
         H            2.920800267238    -1.880914696772     1.493584393549     1.007825032230
         H            4.164136267238     1.262110303228    -1.159903606451     1.007825032230
         H           -0.378986732762    -1.539107696772    -1.035491606451     1.007825032230
         H           -4.808185732762    -0.130359696772     0.673785393549     1.007825032230
         H           -2.272521732762    -3.136084696772    -1.075412606451     1.007825032230
         H            5.836500267238    -0.018307696772     0.184681393549     1.007825032230
         H            5.315624267238    -1.356591696772     1.221733393549     1.007825032230
         H            5.367377267238    -1.563301696772    -0.532827606451     1.007825032230
         H           -4.494471732762    -2.422313696772    -0.180585606451     1.007825032230
         H           -2.354000732762     2.463224303228     0.450267393549     1.007825032230
         H           -3.951941732762     2.053706303228     0.854456393549     1.007825032230

  Basis Set: AUG-CC-PVTZ
    Blend: AUG-CC-PVTZ
  Basis Set: (AUG-CC-PVTZ AUX)
    Blend: AUG-CC-PVTZ-JKFIT
	 Reference Energy          =    -667.2634958747565861 [Eh]
	 Singles Energy            =      -0.0000000000000000 [Eh]
	 Same-Spin Energy          =      -0.7353841033556021 [Eh]
	 Opposite-Spin Energy      =      -2.2664278106842355 [Eh]
	 Correlation Energy        =      -3.0018119140398376 [Eh]
	 Total Energy              =    -670.2653077887964628 [Eh]

	 ================> DF-SCS-MP2 Energies <==================
	-----------------------------------------------------------
	 SCS Same-Spin Scale       =       0.3333333333333333 [-]
	 SCS Opposite-Spin Scale   =       1.2000000000000000 [-]
	 SCS Same-Spin Energy      =      -0.2451280344518674 [Eh]
	 SCS Opposite-Spin Energy  =      -2.7197133728210825 [Eh]
	 SCS Correlation Energy    =      -2.9648414072729499 [Eh]
	 SCS Total Energy          =    -670.2283372820295426 [Eh]
	-----------------------------------------------------------

  Dipole Moment: [D]
     X:     0.3000      Y:    -1.8270      Z:    -0.0868     Total:     1.8535

*** Psi4 exiting successfully. Buy a developer a beer!
