                               Psi4 1.4a3.dev225

  ==> Input File <==

--------------------------------------------------------------------------
#psi4
#
memory 32 gb

molecule  {
0 1
  O       -0.5498120     2.2556960    -0.2996080
  N       -3.0129360     1.7813540     0.8248620
  C        1.0008190     0.4908720    -0.0872200
  C       -1.5329590     0.0859130    -0.1428360
  C       -0.3878030     1.0286420    -0.1846270
  C        3.6793340    -0.3535020     0.1683990
  C       -2.8127890     0.5150010     0.2964470
  C        1.3212360    -0.6095270     0.7211930
  C        2.0273690     1.1786660    -0.7492360
  C        2.6489240    -1.0168440     0.8468500
  C        3.3454510     0.7479200    -0.6334830
  C       -1.3791480    -1.2185740    -0.6492330
  C       -3.8380618    -0.4179035     0.3029639
  C       -2.4390410    -2.1168890    -0.6711390
  C        5.1038640    -0.8322750     0.2664150
  C       -3.6857840    -1.7096250    -0.1856360
  H        0.5383950    -1.1258400     1.2710410
  H        1.7737210     2.0503190    -1.3473030
  H        2.8902070    -1.8603380     1.4919100
  H        4.1335430     1.2826870    -1.1615780
  H       -0.4095800    -1.5185310    -1.0371660
  H       -4.8387790    -0.1097830     0.6721110
  H       -2.3031150    -3.1155080    -1.0770870
  H        5.8059070     0.0022690     0.1830070
  H        5.2850310    -1.3360150     1.2200590
  H        5.3367840    -1.5427250    -0.5345020
  H       -4.5250650    -2.4017370    -0.1822600
  H       -2.3845940     2.4838010     0.4485930
  H       -3.9825350     2.0742830     0.8527820
units angstrom
no_reorient  #important for SAPT in psi4, default
symmetry c1  #important for SAPT in psi4, default
}

set PROPERTIES_ORIGIN ["COM"]
properties('MP2/aug-cc-pvtz', properties = ['dipole'])
--------------------------------------------------------------------------

    Molecular point group: c1
  Charge       = 0
  Multiplicity = 1
  Basis Set: AUG-CC-PVTZ
    Blend: AUG-CC-PVTZ
  Basis Set: (AUG-CC-PVTZ AUX)
    Blend: AUG-CC-PVTZ-JKFIT

    Orbital Energies [Eh]
    ---------------------

    Doubly Occupied:

       1A    -20.538236     2A    -15.559031     3A    -11.338538
       4A    -11.293911     5A    -11.257381     6A    -11.252988
       7A    -11.252140     8A    -11.250629     9A    -11.246368
      10A    -11.243592    11A    -11.239639    12A    -11.239140
      13A    -11.237849    14A    -11.233266    15A    -11.231457
      16A    -11.228785    17A     -1.371221    18A     -1.227012
      19A     -1.165255    20A     -1.138098    21A     -1.069678
      22A     -1.034408    23A     -1.020608    24A     -0.998436
      25A     -0.954715    26A     -0.878480    27A     -0.838562
      28A     -0.835560    29A     -0.813424    30A     -0.766281
      31A     -0.712241    32A     -0.691691    33A     -0.686209
      34A     -0.661256    35A     -0.644731    36A     -0.636217
      37A     -0.614151    38A     -0.604721    39A     -0.598739
      40A     -0.592533    41A     -0.584594    42A     -0.582727
      43A     -0.556364    44A     -0.545285    45A     -0.533817
      46A     -0.518754    47A     -0.512546    48A     -0.502577
      49A     -0.493518    50A     -0.482008    51A     -0.452207
      52A     -0.419147    53A     -0.349446    54A     -0.343018
      55A     -0.334015    56A     -0.301914

  @DF-RHF Final Energy:  -667.27575014190643

   => Energetics <=

    Nuclear Repulsion Energy =            993.3971450836594386
    One-Electron Energy =               -2877.9275657987873274
    Two-Electron Energy =                1217.2546705732215742
    Total Energy =                       -667.2757501419064283
  Basis Set: (AUG-CC-PVTZ AUX)
    Blend: AUG-CC-PVTZ-RI
    Molecular point group: c1

    Geometry (in Angstrom), charge = 0, multiplicity = 1:

       Center              X                  Y                   Z               Mass
    ------------   -----------------  -----------------  -----------------  -----------------
         O           -0.516697654975     2.231397382506    -0.295584110137    15.994914619570
         N           -2.979821654975     1.757055382506     0.828885889863    14.003074004430
         C            1.033933345025     0.466573382506    -0.083196110137    12.000000000000
         C           -1.499844654975     0.061614382506    -0.138812110137    12.000000000000
         C           -0.354688654975     1.004343382506    -0.180603110137    12.000000000000
         C            3.712448345025    -0.377800617494     0.172422889863    12.000000000000
         C           -2.779674654975     0.490702382506     0.300470889863    12.000000000000
         C            1.354350345025    -0.633825617494     0.725216889863    12.000000000000
         C            2.060483345025     1.154367382506    -0.745212110137    12.000000000000
         C            2.682038345025    -1.041142617494     0.850873889863    12.000000000000
         C            3.378565345025     0.723621382506    -0.629459110137    12.000000000000
         C           -1.346033654975    -1.242872617494    -0.645209110137    12.000000000000
         C           -3.804947454975    -0.442202117494     0.306987789863    12.000000000000
         C           -2.405926654975    -2.141187617494    -0.667115110137    12.000000000000
         C            5.136978345025    -0.856573617494     0.270438889863    12.000000000000
         C           -3.652669654975    -1.733923617494    -0.181612110137    12.000000000000
         H            0.571509345025    -1.150138617494     1.275064889863     1.007825032230
         H            1.806835345025     2.026020382506    -1.343279110137     1.007825032230
         H            2.923321345025    -1.884636617494     1.495933889863     1.007825032230
         H            4.166657345025     1.258388382506    -1.157554110137     1.007825032230
         H           -0.376465654975    -1.542829617494    -1.033142110137     1.007825032230
         H           -4.805664654975    -0.134081617494     0.676134889863     1.007825032230
         H           -2.270000654975    -3.139806617494    -1.073063110137     1.007825032230
         H            5.839021345025    -0.022029617494     0.187030889863     1.007825032230
         H            5.318145345025    -1.360313617494     1.224082889863     1.007825032230
         H            5.369898345025    -1.567023617494    -0.530478110137     1.007825032230
         H           -4.491950654975    -2.426035617494    -0.178236110137     1.007825032230
         H           -2.351479654975     2.459502382506     0.452616889863     1.007825032230
         H           -3.949420654975     2.049984382506     0.856805889863     1.007825032230

  Basis Set: AUG-CC-PVTZ
    Blend: AUG-CC-PVTZ
  Basis Set: (AUG-CC-PVTZ AUX)
    Blend: AUG-CC-PVTZ-JKFIT
	 Reference Energy          =    -667.2757501419064283 [Eh]
	 Singles Energy            =      -0.0000000000000000 [Eh]
	 Same-Spin Energy          =      -0.7356929344476831 [Eh]
	 Opposite-Spin Energy      =      -2.2656617734050850 [Eh]
	 Correlation Energy        =      -3.0013547078527680 [Eh]
	 Total Energy              =    -670.2771048497592119 [Eh]

	 ================> DF-SCS-MP2 Energies <==================
	-----------------------------------------------------------
	 SCS Same-Spin Scale       =       0.3333333333333333 [-]
	 SCS Opposite-Spin Scale   =       1.2000000000000000 [-]
	 SCS Same-Spin Energy      =      -0.2452309781492277 [Eh]
	 SCS Opposite-Spin Energy  =      -2.7187941280861021 [Eh]
	 SCS Correlation Energy    =      -2.9640251062353298 [Eh]
	 SCS Total Energy          =    -670.2397752481417683 [Eh]
	-----------------------------------------------------------

  Dipole Moment: [D]
     X:     0.3753      Y:    -1.8517      Z:    -0.1255     Total:     1.8935

*** Psi4 exiting successfully. Buy a developer a beer!
