                               Psi4 1.4a3.dev225

  ==> Input File <==

--------------------------------------------------------------------------
#psi4
#
memory 32 gb

molecule  {
0 1
  O       -0.5498120     2.2556960    -0.2996080
  N       -3.0129360     1.7813540     0.8248620
  C        1.0244427     0.4930476    -0.0932513
  C       -1.5329590     0.0859130    -0.1428360
  C       -0.3878030     1.0286420    -0.1846270
  C        3.6793340    -0.3535020     0.1683990
  C       -2.8127890     0.5150010     0.2964470
  C        1.3212360    -0.6095270     0.7211930
  C        2.0273690     1.1786660    -0.7492360
  C        2.6489240    -1.0168440     0.8468500
  C        3.3454510     0.7479200    -0.6334830
  C       -1.3791480    -1.2185740    -0.6492330
  C       -3.8612840    -0.4227650     0.3079770
  C       -2.4390410    -2.1168890    -0.6711390
  C        5.1038640    -0.8322750     0.2664150
  C       -3.6857840    -1.7096250    -0.1856360
  H        0.5383950    -1.1258400     1.2710410
  H        1.7737210     2.0503190    -1.3473030
  H        2.8902070    -1.8603380     1.4919100
  H        4.1335430     1.2826870    -1.1615780
  H       -0.4095800    -1.5185310    -1.0371660
  H       -4.8387790    -0.1097830     0.6721110
  H       -2.3031150    -3.1155080    -1.0770870
  H        5.8059070     0.0022690     0.1830070
  H        5.2850310    -1.3360150     1.2200590
  H        5.3367840    -1.5427250    -0.5345020
  H       -4.5250650    -2.4017370    -0.1822600
  H       -2.3845940     2.4838010     0.4485930
  H       -3.9825350     2.0742830     0.8527820
units angstrom
no_reorient  #important for SAPT in psi4, default
symmetry c1  #important for SAPT in psi4, default
}

set PROPERTIES_ORIGIN ["COM"]
properties('MP2/aug-cc-pvtz', properties = ['dipole'])
--------------------------------------------------------------------------

    Molecular point group: c1
  Charge       = 0
  Multiplicity = 1
  Basis Set: AUG-CC-PVTZ
    Blend: AUG-CC-PVTZ
  Basis Set: (AUG-CC-PVTZ AUX)
    Blend: AUG-CC-PVTZ-JKFIT

    Orbital Energies [Eh]
    ---------------------

    Doubly Occupied:

       1A    -20.538672     2A    -15.560299     3A    -11.339636
       4A    -11.297278     5A    -11.255929     6A    -11.253005
       7A    -11.252571     8A    -11.249479     9A    -11.243699
      10A    -11.242402    11A    -11.239648    12A    -11.238915
      13A    -11.237458    14A    -11.232568    15A    -11.232231
      16A    -11.228552    17A     -1.371087    18A     -1.226850
      19A     -1.166400    20A     -1.137333    21A     -1.068486
      22A     -1.035535    23A     -1.021007    24A     -0.996779
      25A     -0.952673    26A     -0.876533    27A     -0.839749
      28A     -0.835471    29A     -0.812366    30A     -0.766389
      31A     -0.712500    32A     -0.692068    33A     -0.686308
      34A     -0.660588    35A     -0.645596    36A     -0.636154
      37A     -0.614273    38A     -0.603749    39A     -0.599190
      40A     -0.594171    41A     -0.584253    42A     -0.583344
      43A     -0.555396    44A     -0.544794    45A     -0.532017
      46A     -0.518035    47A     -0.512885    48A     -0.504601
      49A     -0.494989    50A     -0.483135    51A     -0.452548
      52A     -0.417412    53A     -0.349876    54A     -0.343064
      55A     -0.334525    56A     -0.300668

  @DF-RHF Final Energy:  -667.27631588834925

   => Energetics <=

    Nuclear Repulsion Energy =            992.8293675363548800
    One-Electron Energy =               -2876.8010873854564124
    Two-Electron Energy =                1216.6954039607524010
    Total Energy =                       -667.2763158883492451
  Basis Set: (AUG-CC-PVTZ AUX)
    Blend: AUG-CC-PVTZ-RI
    Molecular point group: c1

    Geometry (in Angstrom), charge = 0, multiplicity = 1:

       Center              X                  Y                   Z               Mass
    ------------   -----------------  -----------------  -----------------  -----------------
         O           -0.516720478312     2.231550062960    -0.295526230381    15.994914619570
         N           -2.979844478312     1.757208062960     0.828943769619    14.003074004430
         C            1.057534221688     0.468901662960    -0.089169530381    12.000000000000
         C           -1.499867478312     0.061767062960    -0.138754230381    12.000000000000
         C           -0.354711478312     1.004496062960    -0.180545230381    12.000000000000
         C            3.712425521688    -0.377647937040     0.172480769619    12.000000000000
         C           -2.779697478312     0.490855062960     0.300528769619    12.000000000000
         C            1.354327521688    -0.633672937040     0.725274769619    12.000000000000
         C            2.060460521688     1.154520062960    -0.745154230381    12.000000000000
         C            2.682015521688    -1.040989937040     0.850931769619    12.000000000000
         C            3.378542521688     0.723774062960    -0.629401230381    12.000000000000
         C           -1.346056478312    -1.242719937040    -0.645151230381    12.000000000000
         C           -3.828192478312    -0.446910937040     0.312058769619    12.000000000000
         C           -2.405949478312    -2.141034937040    -0.667057230381    12.000000000000
         C            5.136955521688    -0.856420937040     0.270496769619    12.000000000000
         C           -3.652692478312    -1.733770937040    -0.181554230381    12.000000000000
         H            0.571486521688    -1.149985937040     1.275122769619     1.007825032230
         H            1.806812521688     2.026173062960    -1.343221230381     1.007825032230
         H            2.923298521688    -1.884483937040     1.495991769619     1.007825032230
         H            4.166634521688     1.258541062960    -1.157496230381     1.007825032230
         H           -0.376488478312    -1.542676937040    -1.033084230381     1.007825032230
         H           -4.805687478312    -0.133928937040     0.676192769619     1.007825032230
         H           -2.270023478312    -3.139653937040    -1.073005230381     1.007825032230
         H            5.838998521688    -0.021876937040     0.187088769619     1.007825032230
         H            5.318122521688    -1.360160937040     1.224140769619     1.007825032230
         H            5.369875521688    -1.566870937040    -0.530420230381     1.007825032230
         H           -4.491973478312    -2.425882937040    -0.178178230381     1.007825032230
         H           -2.351502478312     2.459655062960     0.452674769619     1.007825032230
         H           -3.949443478312     2.050137062960     0.856863769619     1.007825032230

  Basis Set: AUG-CC-PVTZ
    Blend: AUG-CC-PVTZ
  Basis Set: (AUG-CC-PVTZ AUX)
    Blend: AUG-CC-PVTZ-JKFIT
	 Reference Energy          =    -667.2763158883492451 [Eh]
	 Singles Energy            =      -0.0000000000000000 [Eh]
	 Same-Spin Energy          =      -0.7353729426203905 [Eh]
	 Opposite-Spin Energy      =      -2.2652706947042196 [Eh]
	 Correlation Energy        =      -3.0006436373246101 [Eh]
	 Total Energy              =    -670.2769595256738739 [Eh]

	 ================> DF-SCS-MP2 Energies <==================
	-----------------------------------------------------------
	 SCS Same-Spin Scale       =       0.3333333333333333 [-]
	 SCS Opposite-Spin Scale   =       1.2000000000000000 [-]
	 SCS Same-Spin Energy      =      -0.2451243142067968 [Eh]
	 SCS Opposite-Spin Energy  =      -2.7183248336450636 [Eh]
	 SCS Correlation Energy    =      -2.9634491478518603 [Eh]
	 SCS Total Energy          =    -670.2397650362011063 [Eh]
	-----------------------------------------------------------

  Dipole Moment: [D]
     X:     0.2816      Y:    -1.7975      Z:    -0.1110     Total:     1.8228

*** Psi4 exiting successfully. Buy a developer a beer!
