                               Psi4 1.4a3.dev225

  ==> Input File <==

--------------------------------------------------------------------------
#psi4
#
memory 32 gb

molecule  {
0 1
  O       -0.5498120     2.2556960    -0.2996080
  N       -3.0129360     1.7813540     0.8248620
  C        1.0008190     0.4908720    -0.0872200
  C       -1.5329590     0.0859130    -0.1428360
  C       -0.3878030     1.0286420    -0.1846270
  C        3.6793340    -0.3535020     0.1683990
  C       -2.8127890     0.5150010     0.2964470
  C        1.3212360    -0.6095270     0.7211930
  C        2.0273690     1.1786660    -0.7492360
  C        2.6489240    -1.0168440     0.8468500
  C        3.3454510     0.7479200    -0.6334830
  C       -1.3791480    -1.2185740    -0.6492330
  C       -3.8612840    -0.4227650     0.3079770
  C       -2.4390410    -2.1168890    -0.6711390
  C        5.1038640    -0.8322750     0.2664150
  C       -3.6857840    -1.7096250    -0.1856360
  H        0.5527976    -1.1163410     1.2609250
  H        1.7737210     2.0503190    -1.3473030
  H        2.8902070    -1.8603380     1.4919100
  H        4.1335430     1.2826870    -1.1615780
  H       -0.4095800    -1.5185310    -1.0371660
  H       -4.8387790    -0.1097830     0.6721110
  H       -2.3031150    -3.1155080    -1.0770870
  H        5.8059070     0.0022690     0.1830070
  H        5.2850310    -1.3360150     1.2200590
  H        5.3367840    -1.5427250    -0.5345020
  H       -4.5250650    -2.4017370    -0.1822600
  H       -2.3845940     2.4838010     0.4485930
  H       -3.9825350     2.0742830     0.8527820
units angstrom
no_reorient  #important for SAPT in psi4, default
symmetry c1  #important for SAPT in psi4, default
}

set PROPERTIES_ORIGIN ["COM"]
properties('MP2/aug-cc-pvtz', properties = ['dipole'])
--------------------------------------------------------------------------

    Molecular point group: c1
  Charge       = 0
  Multiplicity = 1
  Basis Set: AUG-CC-PVTZ
    Blend: AUG-CC-PVTZ
  Basis Set: (AUG-CC-PVTZ AUX)
    Blend: AUG-CC-PVTZ-JKFIT

    Orbital Energies [Eh]
    ---------------------

    Doubly Occupied:

       1A    -20.537996     2A    -15.560043     3A    -11.338465
       4A    -11.296928     5A    -11.257232     6A    -11.252753
       7A    -11.252308     8A    -11.248379     9A    -11.246197
      10A    -11.243372    11A    -11.239162    12A    -11.238964
      13A    -11.237762    14A    -11.233169    15A    -11.231997
      16A    -11.228340    17A     -1.371058    18A     -1.226583
      19A     -1.165248    20A     -1.137134    21A     -1.069653
      22A     -1.034565    23A     -1.021136    24A     -0.996583
      25A     -0.954539    26A     -0.877050    27A     -0.839772
      28A     -0.836894    29A     -0.813122    30A     -0.766421
      31A     -0.712945    32A     -0.692084    33A     -0.686255
      34A     -0.661584    35A     -0.645863    36A     -0.637554
      37A     -0.614232    38A     -0.603771    39A     -0.599908
      40A     -0.593475    41A     -0.584757    42A     -0.583767
      43A     -0.555993    44A     -0.544649    45A     -0.531905
      46A     -0.518105    47A     -0.513311    48A     -0.504891
      49A     -0.494023    50A     -0.482006    51A     -0.452366
      52A     -0.418911    53A     -0.349790    54A     -0.343048
      55A     -0.333880    56A     -0.300377

  @DF-RHF Final Energy:  -667.27677766519105

   => Energetics <=

    Nuclear Repulsion Energy =            992.9747737931286338
    One-Electron Energy =               -2877.0785512746297172
    Two-Electron Energy =                1216.8269998163100354
    Total Energy =                       -667.2767776651910481
  Basis Set: (AUG-CC-PVTZ AUX)
    Blend: AUG-CC-PVTZ-RI
    Molecular point group: c1

    Geometry (in Angstrom), charge = 0, multiplicity = 1:

       Center              X                  Y                   Z               Mass
    ------------   -----------------  -----------------  -----------------  -----------------
         O           -0.515446345373     2.231628385520    -0.295820785219    15.994914619570
         N           -2.978570345373     1.757286385520     0.828649214781    14.003074004430
         C            1.035184654627     0.466804385520    -0.083432785219    12.000000000000
         C           -1.498593345373     0.061845385520    -0.139048785219    12.000000000000
         C           -0.353437345373     1.004574385520    -0.180839785219    12.000000000000
         C            3.713699654627    -0.377569614480     0.172186214781    12.000000000000
         C           -2.778423345373     0.490933385520     0.300234214781    12.000000000000
         C            1.355601654627    -0.633594614480     0.724980214781    12.000000000000
         C            2.061734654627     1.154598385520    -0.745448785219    12.000000000000
         C            2.683289654627    -1.040911614480     0.850637214781    12.000000000000
         C            3.379816654627     0.723852385520    -0.629695785219    12.000000000000
         C           -1.344782345373    -1.242641614480    -0.645445785219    12.000000000000
         C           -3.826918345373    -0.446832614480     0.311764214781    12.000000000000
         C           -2.404675345373    -2.140956614480    -0.667351785219    12.000000000000
         C            5.138229654627    -0.856342614480     0.270202214781    12.000000000000
         C           -3.651418345373    -1.733692614480    -0.181848785219    12.000000000000
         H            0.587163254627    -1.140408614480     1.264712214781     1.007825032230
         H            1.808086654627     2.026251385520    -1.343515785219     1.007825032230
         H            2.924572654627    -1.884405614480     1.495697214781     1.007825032230
         H            4.167908654627     1.258619385520    -1.157790785219     1.007825032230
         H           -0.375214345373    -1.542598614480    -1.033378785219     1.007825032230
         H           -4.804413345373    -0.133850614480     0.675898214781     1.007825032230
         H           -2.268749345373    -3.139575614480    -1.073299785219     1.007825032230
         H            5.840272654627    -0.021798614480     0.186794214781     1.007825032230
         H            5.319396654627    -1.360082614480     1.223846214781     1.007825032230
         H            5.371149654627    -1.566792614480    -0.530714785219     1.007825032230
         H           -4.490699345373    -2.425804614480    -0.178472785219     1.007825032230
         H           -2.350228345373     2.459733385520     0.452380214781     1.007825032230
         H           -3.948169345373     2.050215385520     0.856569214781     1.007825032230

  Basis Set: AUG-CC-PVTZ
    Blend: AUG-CC-PVTZ
  Basis Set: (AUG-CC-PVTZ AUX)
    Blend: AUG-CC-PVTZ-JKFIT
	 Reference Energy          =    -667.2767776651910481 [Eh]
	 Singles Energy            =      -0.0000000000000000 [Eh]
	 Same-Spin Energy          =      -0.7354521071214077 [Eh]
	 Opposite-Spin Energy      =      -2.2653301811571804 [Eh]
	 Correlation Energy        =      -3.0007822882785882 [Eh]
	 Total Energy              =    -670.2775599534696767 [Eh]

	 ================> DF-SCS-MP2 Energies <==================
	-----------------------------------------------------------
	 SCS Same-Spin Scale       =       0.3333333333333333 [-]
	 SCS Opposite-Spin Scale   =       1.2000000000000000 [-]
	 SCS Same-Spin Energy      =      -0.2451507023738026 [Eh]
	 SCS Opposite-Spin Energy  =      -2.7183962173886163 [Eh]
	 SCS Correlation Energy    =      -2.9635469197624187 [Eh]
	 SCS Total Energy          =    -670.2403245849534414 [Eh]
	-----------------------------------------------------------

  Dipole Moment: [D]
     X:     0.3478      Y:    -1.8160      Z:    -0.1038     Total:     1.8519

*** Psi4 exiting successfully. Buy a developer a beer!
