                               Psi4 1.4a3.dev225

  ==> Input File <==

--------------------------------------------------------------------------
#psi4
#
memory 32 gb

molecule  {
0 1
  O       -0.5498120     2.2556960    -0.2996080
  N       -3.0129360     1.7813540     0.8248620
  C        1.0008190     0.4908720    -0.0872200
  C       -1.5329590     0.0859130    -0.1428360
  C       -0.3878030     1.0286420    -0.1846270
  C        3.6793340    -0.3535020     0.1683990
  C       -2.8127890     0.5150010     0.2964470
  C        1.3212360    -0.6095270     0.7211930
  C        2.0273690     1.1786660    -0.7492360
  C        2.6489240    -1.0168440     0.8468500
  C        3.3454510     0.7479200    -0.6334830
  C       -1.3791480    -1.2185740    -0.6492330
  C       -3.8612840    -0.4227650     0.3079770
  C       -2.4390410    -2.1168890    -0.6711390
  C        5.1038640    -0.8322750     0.2664150
  C       -3.6857840    -1.7096250    -0.1856360
  H        0.5383950    -1.1258400     1.2710410
  H        1.7737210     2.0503190    -1.3473030
  H        2.8902070    -1.8603380     1.4919100
  H        4.1335430     1.2826870    -1.1615780
  H       -0.4095800    -1.5185310    -1.0371660
  H       -4.8387790    -0.1097830     0.6721110
  H       -2.3031150    -3.1155080    -1.0770870
  H        5.8335588    -0.0176569     0.2513189
  H        5.2850310    -1.3360150     1.2200590
  H        5.3367840    -1.5427250    -0.5345020
  H       -4.5250650    -2.4017370    -0.1822600
  H       -2.3845940     2.4838010     0.4485930
  H       -3.9825350     2.0742830     0.8527820
units angstrom
no_reorient  #important for SAPT in psi4, default
symmetry c1  #important for SAPT in psi4, default
}

set PROPERTIES_ORIGIN ["COM"]
properties('MP2/aug-cc-pvtz', properties = ['dipole'])
--------------------------------------------------------------------------

    Molecular point group: c1
  Charge       = 0
  Multiplicity = 1
  Basis Set: AUG-CC-PVTZ
    Blend: AUG-CC-PVTZ
  Basis Set: (AUG-CC-PVTZ AUX)
    Blend: AUG-CC-PVTZ-JKFIT

    Orbital Energies [Eh]
    ---------------------

    Doubly Occupied:

       1A    -20.538108     2A    -15.560064     3A    -11.338561
       4A    -11.296942     5A    -11.257608     6A    -11.252763
       7A    -11.252300     8A    -11.250598     9A    -11.246257
      10A    -11.243714    11A    -11.239346    12A    -11.239160
      13A    -11.237821    14A    -11.232939    15A    -11.231997
      16A    -11.228334    17A     -1.371154    18A     -1.226601
      19A     -1.165193    20A     -1.137140    21A     -1.069383
      22A     -1.034548    23A     -1.020588    24A     -0.996585
      25A     -0.954647    26A     -0.877196    27A     -0.838741
      28A     -0.836546    29A     -0.813301    30A     -0.766235
      31A     -0.712788    32A     -0.691962    33A     -0.686264
      34A     -0.661135    35A     -0.644969    36A     -0.636360
      37A     -0.614092    38A     -0.603734    39A     -0.600181
      40A     -0.592629    41A     -0.587906    42A     -0.584513
      43A     -0.554130    44A     -0.541280    45A     -0.530973
      46A     -0.518863    47A     -0.513427    48A     -0.504842
      49A     -0.492831    50A     -0.482572    51A     -0.452336
      52A     -0.419009    53A     -0.349760    54A     -0.343062
      55A     -0.334419    56A     -0.300400

  @DF-RHF Final Energy:  -667.27604746410339

   => Energetics <=

    Nuclear Repulsion Energy =            992.8061153888252193
    One-Electron Energy =               -2876.7467118592271618
    Two-Electron Energy =                1216.6645490062985573
    Total Energy =                       -667.2760474641033852
  Basis Set: (AUG-CC-PVTZ AUX)
    Blend: AUG-CC-PVTZ-RI
    Molecular point group: c1

    Geometry (in Angstrom), charge = 0, multiplicity = 1:

       Center              X                  Y                   Z               Mass
    ------------   -----------------  -----------------  -----------------  -----------------
         O           -0.515509599250     2.231768864870    -0.296195213015    15.994914619570
         N           -2.978633599250     1.757426864870     0.828274786985    14.003074004430
         C            1.035121400750     0.466944864870    -0.083807213015    12.000000000000
         C           -1.498656599250     0.061985864870    -0.139423213015    12.000000000000
         C           -0.353500599250     1.004714864870    -0.181214213015    12.000000000000
         C            3.713636400750    -0.377429135130     0.171811786985    12.000000000000
         C           -2.778486599250     0.491073864870     0.299859786985    12.000000000000
         C            1.355538400750    -0.633454135130     0.724605786985    12.000000000000
         C            2.061671400750     1.154738864870    -0.745823213015    12.000000000000
         C            2.683226400750    -1.040771135130     0.850262786985    12.000000000000
         C            3.379753400750     0.723992864870    -0.630070213015    12.000000000000
         C           -1.344845599250    -1.242501135130    -0.645820213015    12.000000000000
         C           -3.826981599250    -0.446692135130     0.311389786985    12.000000000000
         C           -2.404738599250    -2.140816135130    -0.667726213015    12.000000000000
         C            5.138166400750    -0.856202135130     0.269827786985    12.000000000000
         C           -3.651481599250    -1.733552135130    -0.182223213015    12.000000000000
         H            0.572697400750    -1.149767135130     1.274453786985     1.007825032230
         H            1.808023400750     2.026391864870    -1.343890213015     1.007825032230
         H            2.924509400750    -1.884265135130     1.495322786985     1.007825032230
         H            4.167845400750     1.258759864870    -1.158165213015     1.007825032230
         H           -0.375277599250    -1.542458135130    -1.033753213015     1.007825032230
         H           -4.804476599250    -0.133710135130     0.675523786985     1.007825032230
         H           -2.268812599250    -3.139435135130    -1.073674213015     1.007825032230
         H            5.867861200750    -0.041584035130     0.254731686985     1.007825032230
         H            5.319333400750    -1.359942135130     1.223471786985     1.007825032230
         H            5.371086400750    -1.566652135130    -0.531089213015     1.007825032230
         H           -4.490762599250    -2.425664135130    -0.178847213015     1.007825032230
         H           -2.350291599250     2.459873864870     0.452005786985     1.007825032230
         H           -3.948232599250     2.050355864870     0.856194786985     1.007825032230

  Basis Set: AUG-CC-PVTZ
    Blend: AUG-CC-PVTZ
  Basis Set: (AUG-CC-PVTZ AUX)
    Blend: AUG-CC-PVTZ-JKFIT
	 Reference Energy          =    -667.2760474641033852 [Eh]
	 Singles Energy            =      -0.0000000000000000 [Eh]
	 Same-Spin Energy          =      -0.7355192199187209 [Eh]
	 Opposite-Spin Energy      =      -2.2655270457067056 [Eh]
	 Correlation Energy        =      -3.0010462656254266 [Eh]
	 Total Energy              =    -670.2770937297287901 [Eh]

	 ================> DF-SCS-MP2 Energies <==================
	-----------------------------------------------------------
	 SCS Same-Spin Scale       =       0.3333333333333333 [-]
	 SCS Opposite-Spin Scale   =       1.2000000000000000 [-]
	 SCS Same-Spin Energy      =      -0.2451730733062403 [Eh]
	 SCS Opposite-Spin Energy  =      -2.7186324548480467 [Eh]
	 SCS Correlation Energy    =      -2.9638055281542872 [Eh]
	 SCS Total Energy          =    -670.2398529922576245 [Eh]
	-----------------------------------------------------------

  Dipole Moment: [D]
     X:     0.3497      Y:    -1.8065      Z:    -0.0844     Total:     1.8420

*** Psi4 exiting successfully. Buy a developer a beer!
