                               Psi4 1.4a3.dev225

  ==> Input File <==

--------------------------------------------------------------------------
#psi4
#
memory 32 gb

molecule  {
0 1
  O       -0.5498120     2.2556960    -0.2996080
  N       -3.0129360     1.7813540     0.8248620
  C        1.0481569     0.4948874    -0.0990345
  C       -1.5329590     0.0859130    -0.1428360
  C       -0.3878030     1.0286420    -0.1846270
  C        3.6793340    -0.3535020     0.1683990
  C       -2.8127890     0.5150010     0.2964470
  C        1.3212360    -0.6095270     0.7211930
  C        2.0273690     1.1786660    -0.7492360
  C        2.6489240    -1.0168440     0.8468500
  C        3.3454510     0.7479200    -0.6334830
  C       -1.3791480    -1.2185740    -0.6492330
  C       -3.8612840    -0.4227650     0.3079770
  C       -2.4390410    -2.1168890    -0.6711390
  C        5.1038640    -0.8322750     0.2664150
  C       -3.6857840    -1.7096250    -0.1856360
  H        0.5383950    -1.1258400     1.2710410
  H        1.7737210     2.0503190    -1.3473030
  H        2.8902070    -1.8603380     1.4919100
  H        4.1335430     1.2826870    -1.1615780
  H       -0.4095800    -1.5185310    -1.0371660
  H       -4.8387790    -0.1097830     0.6721110
  H       -2.3031150    -3.1155080    -1.0770870
  H        5.8059070     0.0022690     0.1830070
  H        5.2850310    -1.3360150     1.2200590
  H        5.3367840    -1.5427250    -0.5345020
  H       -4.5250650    -2.4017370    -0.1822600
  H       -2.3845940     2.4838010     0.4485930
  H       -3.9825350     2.0742830     0.8527820
units angstrom
no_reorient  #important for SAPT in psi4, default
symmetry c1  #important for SAPT in psi4, default
}

set PROPERTIES_ORIGIN ["COM"]
properties('MP2/aug-cc-pvtz', properties = ['dipole'])
--------------------------------------------------------------------------

    Molecular point group: c1
  Charge       = 0
  Multiplicity = 1
  Basis Set: AUG-CC-PVTZ
    Blend: AUG-CC-PVTZ
  Basis Set: (AUG-CC-PVTZ AUX)
    Blend: AUG-CC-PVTZ-JKFIT

    Orbital Energies [Eh]
    ---------------------

    Doubly Occupied:

       1A    -20.539246     2A    -15.560537     3A    -11.340608
       4A    -11.297612     5A    -11.254598     6A    -11.253249
       7A    -11.252850     8A    -11.248492     9A    -11.242629
      10A    -11.240130    11A    -11.239711    12A    -11.238779
      13A    -11.237106    14A    -11.232467    15A    -11.231952
      16A    -11.228775    17A     -1.371024    18A     -1.227101
      19A     -1.167808    20A     -1.137536    21A     -1.067586
      22A     -1.036524    23A     -1.021443    24A     -0.996982
      25A     -0.950832    26A     -0.876130    27A     -0.840681
      28A     -0.834567    29A     -0.811506    30A     -0.766568
      31A     -0.712247    32A     -0.692346    33A     -0.686372
      34A     -0.659995    35A     -0.646099    36A     -0.635777
      37A     -0.614350    38A     -0.603852    39A     -0.599241
      40A     -0.595044    41A     -0.583611    42A     -0.582876
      43A     -0.554967    44A     -0.544859    45A     -0.532120
      46A     -0.518120    47A     -0.512628    48A     -0.504472
      49A     -0.496033    50A     -0.484225    51A     -0.452770
      52A     -0.415531    53A     -0.350047    54A     -0.343560
      55A     -0.334662    56A     -0.300938

  @DF-RHF Final Energy:  -667.27453504945868

   => Energetics <=

    Nuclear Repulsion Energy =            992.7872452598012387
    One-Electron Energy =               -2876.7200157163397307
    Two-Electron Energy =                1216.6582354070797010
    Total Energy =                       -667.2745350494587910
  Basis Set: (AUG-CC-PVTZ AUX)
    Blend: AUG-CC-PVTZ-RI
    Molecular point group: c1

    Geometry (in Angstrom), charge = 0, multiplicity = 1:

       Center              X                  Y                   Z               Mass
    ------------   -----------------  -----------------  -----------------  -----------------
         O           -0.518068516140     2.231445479208    -0.295197483370    15.994914619570
         N           -2.981192516140     1.757103479208     0.829272516630    14.003074004430
         C            1.079900383860     0.470636879208    -0.094623983370    12.000000000000
         C           -1.501215516140     0.061662479208    -0.138425483370    12.000000000000
         C           -0.356059516140     1.004391479208    -0.180216483370    12.000000000000
         C            3.711077483860    -0.377752520792     0.172809516630    12.000000000000
         C           -2.781045516140     0.490750479208     0.300857516630    12.000000000000
         C            1.352979483860    -0.633777520792     0.725603516630    12.000000000000
         C            2.059112483860     1.154415479208    -0.744825483370    12.000000000000
         C            2.680667483860    -1.041094520792     0.851260516630    12.000000000000
         C            3.377194483860     0.723669479208    -0.629072483370    12.000000000000
         C           -1.347404516140    -1.242824520792    -0.644822483370    12.000000000000
         C           -3.829540516140    -0.447015520792     0.312387516630    12.000000000000
         C           -2.407297516140    -2.141139520792    -0.666728483370    12.000000000000
         C            5.135607483860    -0.856525520792     0.270825516630    12.000000000000
         C           -3.654040516140    -1.733875520792    -0.181225483370    12.000000000000
         H            0.570138483860    -1.150090520792     1.275451516630     1.007825032230
         H            1.805464483860     2.026068479208    -1.342892483370     1.007825032230
         H            2.921950483860    -1.884588520792     1.496320516630     1.007825032230
         H            4.165286483860     1.258436479208    -1.157167483370     1.007825032230
         H           -0.377836516140    -1.542781520792    -1.032755483370     1.007825032230
         H           -4.807035516140    -0.134033520792     0.676521516630     1.007825032230
         H           -2.271371516140    -3.139758520792    -1.072676483370     1.007825032230
         H            5.837650483860    -0.021981520792     0.187417516630     1.007825032230
         H            5.316774483860    -1.360265520792     1.224469516630     1.007825032230
         H            5.368527483860    -1.566975520792    -0.530091483370     1.007825032230
         H           -4.493321516140    -2.425987520792    -0.177849483370     1.007825032230
         H           -2.352850516140     2.459550479208     0.453003516630     1.007825032230
         H           -3.950791516140     2.050032479208     0.857192516630     1.007825032230

  Basis Set: AUG-CC-PVTZ
    Blend: AUG-CC-PVTZ
  Basis Set: (AUG-CC-PVTZ AUX)
    Blend: AUG-CC-PVTZ-JKFIT
	 Reference Energy          =    -667.2745350494586773 [Eh]
	 Singles Energy            =      -0.0000000000000000 [Eh]
	 Same-Spin Energy          =      -0.7352651512069290 [Eh]
	 Opposite-Spin Energy      =      -2.2651344034593586 [Eh]
	 Correlation Energy        =      -3.0003995546662878 [Eh]
	 Total Energy              =    -670.2749346041249510 [Eh]

	 ================> DF-SCS-MP2 Energies <==================
	-----------------------------------------------------------
	 SCS Same-Spin Scale       =       0.3333333333333333 [-]
	 SCS Opposite-Spin Scale   =       1.2000000000000000 [-]
	 SCS Same-Spin Energy      =      -0.2450883837356430 [Eh]
	 SCS Opposite-Spin Energy  =      -2.7181612841512304 [Eh]
	 SCS Correlation Energy    =      -2.9632496678868732 [Eh]
	 SCS Total Energy          =    -670.2377847173455621 [Eh]
	-----------------------------------------------------------

  Dipole Moment: [D]
     X:     0.2147      Y:    -1.7811      Z:    -0.1162     Total:     1.7977

*** Psi4 exiting successfully. Buy a developer a beer!
