                               Psi4 1.4a3.dev225

  ==> Input File <==

--------------------------------------------------------------------------
#psi4
#
memory 32 gb

molecule  {
0 1
  O       -0.5498120     2.2556960    -0.2996080
  N       -3.0129360     1.7813540     0.8248620
  C        1.0008190     0.4908720    -0.0872200
  C       -1.5329590     0.0859130    -0.1428360
  C       -0.3878030     1.0286420    -0.1846270
  C        3.6793340    -0.3535020     0.1683990
  C       -2.8127890     0.5150010     0.2964470
  C        1.3212360    -0.6095270     0.7211930
  C        2.0273690     1.1786660    -0.7492360
  C        2.6489240    -1.0168440     0.8468500
  C        3.3454510     0.7479200    -0.6334830
  C       -1.3791480    -1.2185740    -0.6492330
  C       -3.8612840    -0.4227650     0.3079770
  C       -2.4390410    -2.1168890    -0.6711390
  C        5.1038640    -0.8322750     0.2664150
  C       -3.6857840    -1.7096250    -0.1856360
  H        0.5023885    -1.1495876     1.2963310
  H        1.7737210     2.0503190    -1.3473030
  H        2.8902070    -1.8603380     1.4919100
  H        4.1335430     1.2826870    -1.1615780
  H       -0.4095800    -1.5185310    -1.0371660
  H       -4.8387790    -0.1097830     0.6721110
  H       -2.3031150    -3.1155080    -1.0770870
  H        5.8059070     0.0022690     0.1830070
  H        5.2850310    -1.3360150     1.2200590
  H        5.3367840    -1.5427250    -0.5345020
  H       -4.5250650    -2.4017370    -0.1822600
  H       -2.3845940     2.4838010     0.4485930
  H       -3.9825350     2.0742830     0.8527820
units angstrom
no_reorient  #important for SAPT in psi4, default
symmetry c1  #important for SAPT in psi4, default
}

set PROPERTIES_ORIGIN ["COM"]
properties('MP2/aug-cc-pvtz', properties = ['dipole'])
--------------------------------------------------------------------------

    Molecular point group: c1
  Charge       = 0
  Multiplicity = 1
  Basis Set: AUG-CC-PVTZ
    Blend: AUG-CC-PVTZ
  Basis Set: (AUG-CC-PVTZ AUX)
    Blend: AUG-CC-PVTZ-JKFIT

    Orbital Energies [Eh]
    ---------------------

    Doubly Occupied:

       1A    -20.538049     2A    -15.559962     3A    -11.338529
       4A    -11.296813     5A    -11.257622     6A    -11.255999
       7A    -11.252644     8A    -11.252115     9A    -11.246663
      10A    -11.244016    11A    -11.239477    12A    -11.238976
      13A    -11.237950    14A    -11.233399    15A    -11.231861
      16A    -11.228182    17A     -1.371104    18A     -1.226489
      19A     -1.165149    20A     -1.137025    21A     -1.069415
      22A     -1.034578    23A     -1.019475    24A     -0.996454
      25A     -0.954768    26A     -0.876889    27A     -0.837941
      28A     -0.834404    29A     -0.813026    30A     -0.765607
      31A     -0.712307    32A     -0.691115    33A     -0.686097
      34A     -0.660637    35A     -0.644216    36A     -0.633379
      37A     -0.614202    38A     -0.603541    39A     -0.599744
      40A     -0.590196    41A     -0.584725    42A     -0.583898
      43A     -0.555307    44A     -0.544720    45A     -0.531870
      46A     -0.517896    47A     -0.513038    48A     -0.504783
      49A     -0.491941    50A     -0.482139    51A     -0.452078
      52A     -0.418948    53A     -0.349549    54A     -0.343196
      55A     -0.334213    56A     -0.300297

  @DF-RHF Final Energy:  -667.27398430289293

   => Energetics <=

    Nuclear Repulsion Energy =            992.6599204511745711
    One-Electron Energy =               -2876.4705845839189351
    Two-Electron Energy =                1216.5366798298516642
    Total Energy =                       -667.2739843028928135
  Basis Set: (AUG-CC-PVTZ AUX)
    Blend: AUG-CC-PVTZ-RI
    Molecular point group: c1

    Geometry (in Angstrom), charge = 0, multiplicity = 1:

       Center              X                  Y                   Z               Mass
    ------------   -----------------  -----------------  -----------------  -----------------
         O           -0.515205683972     2.231787110300    -0.295989819332    15.994914619570
         N           -2.978329683972     1.757445110300     0.828480180668    14.003074004430
         C            1.035425316028     0.466963110300    -0.083601819332    12.000000000000
         C           -1.498352683972     0.062004110300    -0.139217819332    12.000000000000
         C           -0.353196683972     1.004733110300    -0.181008819332    12.000000000000
         C            3.713940316028    -0.377410889700     0.172017180668    12.000000000000
         C           -2.778182683972     0.491092110300     0.300065180668    12.000000000000
         C            1.355842316028    -0.633435889700     0.724811180668    12.000000000000
         C            2.061975316028     1.154757110300    -0.745617819332    12.000000000000
         C            2.683530316028    -1.040752889700     0.850468180668    12.000000000000
         C            3.380057316028     0.724011110300    -0.629864819332    12.000000000000
         C           -1.344541683972    -1.242482889700    -0.645614819332    12.000000000000
         C           -3.826677683972    -0.446673889700     0.311595180668    12.000000000000
         C           -2.404434683972    -2.140797889700    -0.667520819332    12.000000000000
         C            5.138470316028    -0.856183889700     0.270033180668    12.000000000000
         C           -3.651177683972    -1.733533889700    -0.182017819332    12.000000000000
         H            0.536994816028    -1.173496489700     1.299949180668     1.007825032230
         H            1.808327316028     2.026410110300    -1.343684819332     1.007825032230
         H            2.924813316028    -1.884246889700     1.495528180668     1.007825032230
         H            4.168149316028     1.258778110300    -1.157959819332     1.007825032230
         H           -0.374973683972    -1.542439889700    -1.033547819332     1.007825032230
         H           -4.804172683972    -0.133691889700     0.675729180668     1.007825032230
         H           -2.268508683972    -3.139416889700    -1.073468819332     1.007825032230
         H            5.840513316028    -0.021639889700     0.186625180668     1.007825032230
         H            5.319637316028    -1.359923889700     1.223677180668     1.007825032230
         H            5.371390316028    -1.566633889700    -0.530883819332     1.007825032230
         H           -4.490458683972    -2.425645889700    -0.178641819332     1.007825032230
         H           -2.349987683972     2.459892110300     0.452211180668     1.007825032230
         H           -3.947928683972     2.050374110300     0.856400180668     1.007825032230

  Basis Set: AUG-CC-PVTZ
    Blend: AUG-CC-PVTZ
  Basis Set: (AUG-CC-PVTZ AUX)
    Blend: AUG-CC-PVTZ-JKFIT
	 Reference Energy          =    -667.2739843028929272 [Eh]
	 Singles Energy            =      -0.0000000000000000 [Eh]
	 Same-Spin Energy          =      -0.7357127692289717 [Eh]
	 Opposite-Spin Energy      =      -2.2660445885893208 [Eh]
	 Correlation Energy        =      -3.0017573578182923 [Eh]
	 Total Energy              =    -670.2757416607112191 [Eh]

	 ================> DF-SCS-MP2 Energies <==================
	-----------------------------------------------------------
	 SCS Same-Spin Scale       =       0.3333333333333333 [-]
	 SCS Opposite-Spin Scale   =       1.2000000000000000 [-]
	 SCS Same-Spin Energy      =      -0.2452375897429905 [Eh]
	 SCS Opposite-Spin Energy  =      -2.7192535063071848 [Eh]
	 SCS Correlation Energy    =      -2.9644910960501751 [Eh]
	 SCS Total Energy          =    -670.2384753989431374 [Eh]
	-----------------------------------------------------------

  Dipole Moment: [D]
     X:     0.3651      Y:    -1.8103      Z:    -0.1111     Total:     1.8501

*** Psi4 exiting successfully. Buy a developer a beer!
