                               Psi4 1.4a3.dev225

  ==> Input File <==

--------------------------------------------------------------------------
#psi4
#
memory 32 gb

molecule  {
0 1
  O       -0.5498120     2.2556960    -0.2996080
  N       -3.0129360     1.7813540     0.8248620
  C        1.0008190     0.4908720    -0.0872200
  C       -1.5329590     0.0859130    -0.1428360
  C       -0.3878030     1.0286420    -0.1846270
  C        3.6793340    -0.3535020     0.1683990
  C       -2.8127890     0.5150010     0.2964470
  C        1.3212360    -0.6095270     0.7211930
  C        2.0273690     1.1786660    -0.7492360
  C        2.6489240    -1.0168440     0.8468500
  C        3.3454510     0.7479200    -0.6334830
  C       -1.3791480    -1.2185740    -0.6492330
  C       -3.8612840    -0.4227650     0.3079770
  C       -2.4390410    -2.1168890    -0.6711390
  C        5.1038640    -0.8322750     0.2664150
  C       -3.6857840    -1.7096250    -0.1856360
  H        0.5383950    -1.1258400     1.2710410
  H        1.7737210     2.0503190    -1.3473030
  H        2.8902070    -1.8603380     1.4919100
  H        4.1335430     1.2826870    -1.1615780
  H       -0.4095800    -1.5185310    -1.0371660
  H       -4.8387790    -0.1097830     0.6721110
  H       -2.3031150    -3.1155080    -1.0770870
  H        5.8059070     0.0022690     0.1830070
  H        5.2850310    -1.3360150     1.2200590
  H        5.3367840    -1.5427250    -0.5345020
  H       -4.5250650    -2.4017370    -0.1822600
  H       -2.3845940     2.4838010     0.4485930
  H       -3.7911542     2.0164643     0.8472711
units angstrom
no_reorient  #important for SAPT in psi4, default
symmetry c1  #important for SAPT in psi4, default
}

set PROPERTIES_ORIGIN ["COM"]
properties('MP2/aug-cc-pvtz', properties = ['dipole'])
--------------------------------------------------------------------------

    Molecular point group: c1
  Charge       = 0
  Multiplicity = 1
  Basis Set: AUG-CC-PVTZ
    Blend: AUG-CC-PVTZ
  Basis Set: (AUG-CC-PVTZ AUX)
    Blend: AUG-CC-PVTZ-JKFIT

    Orbital Energies [Eh]
    ---------------------

    Doubly Occupied:

       1A    -20.538314     2A    -15.537283     3A    -11.338819
       4A    -11.297047     5A    -11.257569     6A    -11.253329
       7A    -11.252635     8A    -11.250853     9A    -11.246574
      10A    -11.243818    11A    -11.239511    12A    -11.239335
      13A    -11.238034    14A    -11.233408    15A    -11.232852
      16A    -11.229090    17A     -1.371455    18A     -1.254831
      19A     -1.165691    20A     -1.145141    21A     -1.069870
      22A     -1.035412    23A     -1.020927    24A     -1.005373
      25A     -0.955651    26A     -0.878156    27A     -0.846052
      28A     -0.838311    29A     -0.816509    30A     -0.766765
      31A     -0.733935    32A     -0.704417    33A     -0.689965
      34A     -0.661727    35A     -0.646529    36A     -0.637065
      37A     -0.621208    38A     -0.604648    39A     -0.601776
      40A     -0.593097    41A     -0.588325    42A     -0.584256
      43A     -0.556391    44A     -0.545262    45A     -0.532364
      46A     -0.518788    47A     -0.514040    48A     -0.505401
      49A     -0.493751    50A     -0.482537    51A     -0.454801
      52A     -0.419591    53A     -0.350105    54A     -0.343346
      55A     -0.334213    56A     -0.302257

  @DF-RHF Final Energy:  -667.23169967951037

   => Energetics <=

    Nuclear Repulsion Energy =            994.2980313147211291
    One-Electron Energy =               -2879.4226361849919158
    Two-Electron Energy =                1217.8929051907603025
    Total Energy =                       -667.2316996795104842
  Basis Set: (AUG-CC-PVTZ AUX)
    Blend: AUG-CC-PVTZ-RI
    Molecular point group: c1

    Geometry (in Angstrom), charge = 0, multiplicity = 1:

       Center              X                  Y                   Z               Mass
    ------------   -----------------  -----------------  -----------------  -----------------
         O           -0.516291268640     2.231949771380    -0.295842770729    15.994914619570
         N           -2.979415268640     1.757607771380     0.828627229271    14.003074004430
         C            1.034339731360     0.467125771380    -0.083454770729    12.000000000000
         C           -1.499438268640     0.062166771380    -0.139070770729    12.000000000000
         C           -0.354282268640     1.004895771380    -0.180861770729    12.000000000000
         C            3.712854731360    -0.377248228620     0.172164229271    12.000000000000
         C           -2.779268268640     0.491254771380     0.300212229271    12.000000000000
         C            1.354756731360    -0.633273228620     0.724958229271    12.000000000000
         C            2.060889731360     1.154919771380    -0.745470770729    12.000000000000
         C            2.682444731360    -1.040590228620     0.850615229271    12.000000000000
         C            3.378971731360     0.724173771380    -0.629717770729    12.000000000000
         C           -1.345627268640    -1.242320228620    -0.645467770729    12.000000000000
         C           -3.827763268640    -0.446511228620     0.311742229271    12.000000000000
         C           -2.405520268640    -2.140635228620    -0.667373770729    12.000000000000
         C            5.137384731360    -0.856021228620     0.270180229271    12.000000000000
         C           -3.652263268640    -1.733371228620    -0.181870770729    12.000000000000
         H            0.571915731360    -1.149586228620     1.274806229271     1.007825032230
         H            1.807241731360     2.026572771380    -1.343537770729     1.007825032230
         H            2.923727731360    -1.884084228620     1.495675229271     1.007825032230
         H            4.167063731360     1.258940771380    -1.157812770729     1.007825032230
         H           -0.376059268640    -1.542277228620    -1.033400770729     1.007825032230
         H           -4.805258268640    -0.133529228620     0.675876229271     1.007825032230
         H           -2.269594268640    -3.139254228620    -1.073321770729     1.007825032230
         H            5.839427731360    -0.021477228620     0.186772229271     1.007825032230
         H            5.318551731360    -1.359761228620     1.223824229271     1.007825032230
         H            5.370304731360    -1.566471228620    -0.530736770729     1.007825032230
         H           -4.491544268640    -2.425483228620    -0.178494770729     1.007825032230
         H           -2.351073268640     2.460054771380     0.452358229271     1.007825032230
         H           -3.757633468640     1.992718071380     0.851036329271     1.007825032230

  Basis Set: AUG-CC-PVTZ
    Blend: AUG-CC-PVTZ
  Basis Set: (AUG-CC-PVTZ AUX)
    Blend: AUG-CC-PVTZ-JKFIT
	 Reference Energy          =    -667.2316996795103705 [Eh]
	 Singles Energy            =      -0.0000000000000000 [Eh]
	 Same-Spin Energy          =      -0.7344296486472287 [Eh]
	 Opposite-Spin Energy      =      -2.2627223589941377 [Eh]
	 Correlation Energy        =      -2.9971520076413665 [Eh]
	 Total Energy              =    -670.2288516871517459 [Eh]

	 ================> DF-SCS-MP2 Energies <==================
	-----------------------------------------------------------
	 SCS Same-Spin Scale       =       0.3333333333333333 [-]
	 SCS Opposite-Spin Scale   =       1.2000000000000000 [-]
	 SCS Same-Spin Energy      =      -0.2448098828824096 [Eh]
	 SCS Opposite-Spin Energy  =      -2.7152668307929653 [Eh]
	 SCS Correlation Energy    =      -2.9600767136753747 [Eh]
	 SCS Total Energy          =    -670.1917763931857053 [Eh]
	-----------------------------------------------------------

  Dipole Moment: [D]
     X:     0.4815      Y:    -1.8886      Z:    -0.1356     Total:     1.9537

*** Psi4 exiting successfully. Buy a developer a beer!
