                               Psi4 1.4a3.dev225

  ==> Input File <==

--------------------------------------------------------------------------
#psi4
#
memory 32 gb

molecule  {
0 1
  O       -0.5498120     2.2556960    -0.2996080
  N       -3.0129360     1.7813540     0.8248620
  C        1.0008190     0.4908720    -0.0872200
  C       -1.5329590     0.0859130    -0.1428360
  C       -0.3878030     1.0286420    -0.1846270
  C        3.6793340    -0.3535020     0.1683990
  C       -2.9085683     0.5087711     0.2839634
  C        1.3212360    -0.6095270     0.7211930
  C        2.0273690     1.1786660    -0.7492360
  C        2.6489240    -1.0168440     0.8468500
  C        3.3454510     0.7479200    -0.6334830
  C       -1.3791480    -1.2185740    -0.6492330
  C       -3.8612840    -0.4227650     0.3079770
  C       -2.4390410    -2.1168890    -0.6711390
  C        5.1038640    -0.8322750     0.2664150
  C       -3.6857840    -1.7096250    -0.1856360
  H        0.5383950    -1.1258400     1.2710410
  H        1.7737210     2.0503190    -1.3473030
  H        2.8902070    -1.8603380     1.4919100
  H        4.1335430     1.2826870    -1.1615780
  H       -0.4095800    -1.5185310    -1.0371660
  H       -4.8387790    -0.1097830     0.6721110
  H       -2.3031150    -3.1155080    -1.0770870
  H        5.8059070     0.0022690     0.1830070
  H        5.2850310    -1.3360150     1.2200590
  H        5.3367840    -1.5427250    -0.5345020
  H       -4.5250650    -2.4017370    -0.1822600
  H       -2.3845940     2.4838010     0.4485930
  H       -3.9825350     2.0742830     0.8527820
units angstrom
no_reorient  #important for SAPT in psi4, default
symmetry c1  #important for SAPT in psi4, default
}

set PROPERTIES_ORIGIN ["COM"]
properties('MP2/aug-cc-pvtz', properties = ['dipole'])
--------------------------------------------------------------------------

    Molecular point group: c1
  Charge       = 0
  Multiplicity = 1
  Basis Set: AUG-CC-PVTZ
    Blend: AUG-CC-PVTZ
  Basis Set: (AUG-CC-PVTZ AUX)
    Blend: AUG-CC-PVTZ-JKFIT

    Orbital Energies [Eh]
    ---------------------

    Doubly Occupied:

       1A    -20.536818     2A    -15.559232     3A    -11.338549
       4A    -11.294471     5A    -11.257077     6A    -11.256133
       7A    -11.253673     8A    -11.250175     9A    -11.246094
      10A    -11.245803    11A    -11.243589    12A    -11.238801
      13A    -11.237607    14A    -11.233068    15A    -11.229278
      16A    -11.222982    17A     -1.369791    18A     -1.226685
      19A     -1.164901    20A     -1.137666    21A     -1.069781
      22A     -1.035184    23A     -1.020506    24A     -1.000374
      25A     -0.953219    26A     -0.881728    27A     -0.837971
      28A     -0.829295    29A     -0.813197    30A     -0.766561
      31A     -0.711189    32A     -0.693537    33A     -0.686486
      34A     -0.662642    35A     -0.644044    36A     -0.636939
      37A     -0.613327    38A     -0.602568    39A     -0.599406
      40A     -0.592309    41A     -0.583985    42A     -0.582923
      43A     -0.555599    44A     -0.545150    45A     -0.536938
      46A     -0.519426    47A     -0.511603    48A     -0.495549
      49A     -0.493043    50A     -0.481341    51A     -0.453402
      52A     -0.419130    53A     -0.350704    54A     -0.342785
      55A     -0.333703    56A     -0.301120

  @DF-RHF Final Energy:  -667.26528400355892

   => Energetics <=

    Nuclear Repulsion Energy =            991.9700551947448730
    One-Electron Energy =               -2875.0725648435686708
    Two-Electron Energy =                1215.8372256452648799
    Total Energy =                       -667.2652840035589179
  Basis Set: (AUG-CC-PVTZ AUX)
    Blend: AUG-CC-PVTZ-RI
    Molecular point group: c1

    Geometry (in Angstrom), charge = 0, multiplicity = 1:

       Center              X                  Y                   Z               Mass
    ------------   -----------------  -----------------  -----------------  -----------------
         O           -0.509932993988     2.232027875071    -0.295159448264    15.994914619570
         N           -2.973056993988     1.757685875071     0.829310551736    14.003074004430
         C            1.040698006012     0.467203875071    -0.082771448264    12.000000000000
         C           -1.493079993988     0.062244875071    -0.138387448264    12.000000000000
         C           -0.347923993988     1.004973875071    -0.180178448264    12.000000000000
         C            3.719213006012    -0.377170124929     0.172847551736    12.000000000000
         C           -2.868689293988     0.485102975071     0.288411951736    12.000000000000
         C            1.361115006012    -0.633195124929     0.725641551736    12.000000000000
         C            2.067248006012     1.154997875071    -0.744787448264    12.000000000000
         C            2.688803006012    -1.040512124929     0.851298551736    12.000000000000
         C            3.385330006012     0.724251875071    -0.629034448264    12.000000000000
         C           -1.339268993988    -1.242242124929    -0.644784448264    12.000000000000
         C           -3.821404993988    -0.446433124929     0.312425551736    12.000000000000
         C           -2.399161993988    -2.140557124929    -0.666690448264    12.000000000000
         C            5.143743006012    -0.855943124929     0.270863551736    12.000000000000
         C           -3.645904993988    -1.733293124929    -0.181187448264    12.000000000000
         H            0.578274006012    -1.149508124929     1.275489551736     1.007825032230
         H            1.813600006012     2.026650875071    -1.342854448264     1.007825032230
         H            2.930086006012    -1.884006124929     1.496358551736     1.007825032230
         H            4.173422006012     1.259018875071    -1.157129448264     1.007825032230
         H           -0.369700993988    -1.542199124929    -1.032717448264     1.007825032230
         H           -4.798899993988    -0.133451124929     0.676559551736     1.007825032230
         H           -2.263235993988    -3.139176124929    -1.072638448264     1.007825032230
         H            5.845786006012    -0.021399124929     0.187455551736     1.007825032230
         H            5.324910006012    -1.359683124929     1.224507551736     1.007825032230
         H            5.376663006012    -1.566393124929    -0.530053448264     1.007825032230
         H           -4.485185993988    -2.425405124929    -0.177811448264     1.007825032230
         H           -2.344714993988     2.460132875071     0.453041551736     1.007825032230
         H           -3.942655993988     2.050614875071     0.857230551736     1.007825032230

  Basis Set: AUG-CC-PVTZ
    Blend: AUG-CC-PVTZ
  Basis Set: (AUG-CC-PVTZ AUX)
    Blend: AUG-CC-PVTZ-JKFIT
	 Reference Energy          =    -667.2652840035589179 [Eh]
	 Singles Energy            =      -0.0000000000000000 [Eh]
	 Same-Spin Energy          =      -0.7356948183124403 [Eh]
	 Opposite-Spin Energy      =      -2.2661239006896921 [Eh]
	 Correlation Energy        =      -3.0018187190021326 [Eh]
	 Total Energy              =    -670.2671027225610487 [Eh]

	 ================> DF-SCS-MP2 Energies <==================
	-----------------------------------------------------------
	 SCS Same-Spin Scale       =       0.3333333333333333 [-]
	 SCS Opposite-Spin Scale   =       1.2000000000000000 [-]
	 SCS Same-Spin Energy      =      -0.2452316061041468 [Eh]
	 SCS Opposite-Spin Energy  =      -2.7193486808276304 [Eh]
	 SCS Correlation Energy    =      -2.9645802869317772 [Eh]
	 SCS Total Energy          =    -670.2298642904906956 [Eh]
	-----------------------------------------------------------

  Dipole Moment: [D]
     X:     0.3645      Y:    -1.8777      Z:    -0.1343     Total:     1.9174

*** Psi4 exiting successfully. Buy a developer a beer!
