                               Psi4 1.4a3.dev225

  ==> Input File <==

--------------------------------------------------------------------------
#psi4
#
memory 32 gb

molecule  {
0 1
  O       -0.5498120     2.2556960    -0.2996080
  N       -3.0129360     1.7813540     0.8248620
  C        1.0008190     0.4908720    -0.0872200
  C       -1.5329590     0.0859130    -0.1428360
  C       -0.3878030     1.0286420    -0.1846270
  C        3.6793340    -0.3535020     0.1683990
  C       -2.8127890     0.5150010     0.2964470
  C        1.3212360    -0.6095270     0.7211930
  C        2.0273690     1.1786660    -0.7492360
  C        2.6489240    -1.0168440     0.8468500
  C        3.3454510     0.7479200    -0.6334830
  C       -1.3791480    -1.2185740    -0.6492330
  C       -3.9992485    -0.4601055     0.3348481
  C       -2.4390410    -2.1168890    -0.6711390
  C        5.1038640    -0.8322750     0.2664150
  C       -3.6857840    -1.7096250    -0.1856360
  H        0.5383950    -1.1258400     1.2710410
  H        1.7737210     2.0503190    -1.3473030
  H        2.8902070    -1.8603380     1.4919100
  H        4.1335430     1.2826870    -1.1615780
  H       -0.4095800    -1.5185310    -1.0371660
  H       -4.8387790    -0.1097830     0.6721110
  H       -2.3031150    -3.1155080    -1.0770870
  H        5.8059070     0.0022690     0.1830070
  H        5.2850310    -1.3360150     1.2200590
  H        5.3367840    -1.5427250    -0.5345020
  H       -4.5250650    -2.4017370    -0.1822600
  H       -2.3845940     2.4838010     0.4485930
  H       -3.9825350     2.0742830     0.8527820
units angstrom
no_reorient  #important for SAPT in psi4, default
symmetry c1  #important for SAPT in psi4, default
}

set PROPERTIES_ORIGIN ["COM"]
properties('MP2/aug-cc-pvtz', properties = ['dipole'])
--------------------------------------------------------------------------

    Molecular point group: c1
  Charge       = 0
  Multiplicity = 1
  Basis Set: AUG-CC-PVTZ
    Blend: AUG-CC-PVTZ
  Basis Set: (AUG-CC-PVTZ AUX)
    Blend: AUG-CC-PVTZ-JKFIT

    Orbital Energies [Eh]
    ---------------------

    Doubly Occupied:

       1A    -20.536799     2A    -15.565950     3A    -11.338209
       4A    -11.312587     5A    -11.257193     6A    -11.253655
       7A    -11.253061     8A    -11.250483     9A    -11.246184
      10A    -11.243440    11A    -11.239009    12A    -11.237691
      13A    -11.236480    14A    -11.236076    15A    -11.233117
      16A    -11.226352    17A     -1.370292    18A     -1.225017
      19A     -1.165016    20A     -1.132356    21A     -1.069103
      22A     -1.036025    23A     -1.020729    24A     -0.989154
      25A     -0.953979    26A     -0.869970    27A     -0.847529
      28A     -0.837708    29A     -0.809991    30A     -0.766756
      31A     -0.718818    32A     -0.693877    33A     -0.686349
      34A     -0.664446    35A     -0.650408    36A     -0.639257
      37A     -0.614923    38A     -0.611426    39A     -0.597383
      40A     -0.592791    41A     -0.584612    42A     -0.582213
      43A     -0.553610    44A     -0.542300    45A     -0.529712
      46A     -0.517518    47A     -0.508569    48A     -0.502206
      49A     -0.493334    50A     -0.481413    51A     -0.452999
      52A     -0.416622    53A     -0.352708    54A     -0.343486
      55A     -0.333834    56A     -0.292533

  @DF-RHF Final Energy:  -667.25033960795793

   => Energetics <=

    Nuclear Repulsion Energy =            989.9440889501393031
    One-Electron Energy =               -2870.9543458938187541
    Two-Electron Energy =                1213.7599173357214113
    Total Energy =                       -667.2503396079580398
  Basis Set: (AUG-CC-PVTZ AUX)
    Blend: AUG-CC-PVTZ-RI
    Molecular point group: c1

    Geometry (in Angstrom), charge = 0, multiplicity = 1:

       Center              X                  Y                   Z               Mass
    ------------   -----------------  -----------------  -----------------  -----------------
         O           -0.507534968949     2.233796362544    -0.297396573038    15.994914619570
         N           -2.970658968949     1.759454362544     0.827073426962    14.003074004430
         C            1.043096031051     0.468972362544    -0.085008573038    12.000000000000
         C           -1.490681968949     0.064013362544    -0.140624573038    12.000000000000
         C           -0.345525968949     1.006742362544    -0.182415573038    12.000000000000
         C            3.721611031051    -0.375401637456     0.170610426962    12.000000000000
         C           -2.770511968949     0.493101362544     0.298658426962    12.000000000000
         C            1.363513031051    -0.631426637456     0.723404426962    12.000000000000
         C            2.069646031051     1.156766362544    -0.747024573038    12.000000000000
         C            2.691201031051    -1.038743637456     0.849061426962    12.000000000000
         C            3.387728031051     0.726020362544    -0.631271573038    12.000000000000
         C           -1.336870968949    -1.240473637456    -0.647021573038    12.000000000000
         C           -3.956971468949    -0.482005137456     0.337059526962    12.000000000000
         C           -2.396763968949    -2.138788637456    -0.668927573038    12.000000000000
         C            5.146141031051    -0.854174637456     0.268626426962    12.000000000000
         C           -3.643506968949    -1.731524637456    -0.183424573038    12.000000000000
         H            0.580672031051    -1.147739637456     1.273252426962     1.007825032230
         H            1.815998031051     2.028419362544    -1.345091573038     1.007825032230
         H            2.932484031051    -1.882237637456     1.494121426962     1.007825032230
         H            4.175820031051     1.260787362544    -1.159366573038     1.007825032230
         H           -0.367302968949    -1.540430637456    -1.034954573038     1.007825032230
         H           -4.796501968949    -0.131682637456     0.674322426962     1.007825032230
         H           -2.260837968949    -3.137407637456    -1.074875573038     1.007825032230
         H            5.848184031051    -0.019630637456     0.185218426962     1.007825032230
         H            5.327308031051    -1.357914637456     1.222270426962     1.007825032230
         H            5.379061031051    -1.564624637456    -0.532290573038     1.007825032230
         H           -4.482787968949    -2.423636637456    -0.180048573038     1.007825032230
         H           -2.342316968949     2.461901362544     0.450804426962     1.007825032230
         H           -3.940257968949     2.052383362544     0.854993426962     1.007825032230

  Basis Set: AUG-CC-PVTZ
    Blend: AUG-CC-PVTZ
  Basis Set: (AUG-CC-PVTZ AUX)
    Blend: AUG-CC-PVTZ-JKFIT
	 Reference Energy          =    -667.2503396079579261 [Eh]
	 Singles Energy            =      -0.0000000000000000 [Eh]
	 Same-Spin Energy          =      -0.7348300603433293 [Eh]
	 Opposite-Spin Energy      =      -2.2662420520373088 [Eh]
	 Correlation Energy        =      -3.0010721123806379 [Eh]
	 Total Energy              =    -670.2514117203385240 [Eh]

	 ================> DF-SCS-MP2 Energies <==================
	-----------------------------------------------------------
	 SCS Same-Spin Scale       =       0.3333333333333333 [-]
	 SCS Opposite-Spin Scale   =       1.2000000000000000 [-]
	 SCS Same-Spin Energy      =      -0.2449433534477764 [Eh]
	 SCS Opposite-Spin Energy  =      -2.7194904624447704 [Eh]
	 SCS Correlation Energy    =      -2.9644338158925470 [Eh]
	 SCS Total Energy          =    -670.2147734238504881 [Eh]
	-----------------------------------------------------------

  Dipole Moment: [D]
     X:     0.2648      Y:    -1.6166      Z:    -0.0077     Total:     1.6382

*** Psi4 exiting successfully. Buy a developer a beer!
