                               Psi4 1.4a3.dev225

  ==> Input File <==

--------------------------------------------------------------------------
#psi4
#
memory 32 gb

molecule  {
0 1
  O       -0.5498120     2.2556960    -0.2996080
  N       -3.0129360     1.7813540     0.8248620
  C        1.0008190     0.4908720    -0.0872200
  C       -1.5329590     0.0859130    -0.1428360
  C       -0.3878030     1.0286420    -0.1846270
  C        3.6793340    -0.3535020     0.1683990
  C       -2.8127890     0.5150010     0.2964470
  C        1.3212360    -0.6095270     0.7211930
  C        2.0273690     1.1786660    -0.7492360
  C        2.6489240    -1.0168440     0.8468500
  C        3.3454510     0.7479200    -0.6334830
  C       -1.3791480    -1.2185740    -0.6492330
  C       -3.8612840    -0.4227650     0.3079770
  C       -2.4390410    -2.1168890    -0.6711390
  C        5.1038640    -0.8322750     0.2664150
  C       -3.6857840    -1.7096250    -0.1856360
  H        0.5383950    -1.1258400     1.2710410
  H        1.7737210     2.0503190    -1.3473030
  H        2.8902070    -1.8603380     1.4919100
  H        4.1335430     1.2826870    -1.1615780
  H       -0.4095800    -1.5185310    -1.0371660
  H       -4.8387790    -0.1097830     0.6721110
  H       -2.3031150    -3.1155080    -1.0770870
  H        5.9342808     0.1548716     0.1677552
  H        5.2850310    -1.3360150     1.2200590
  H        5.3367840    -1.5427250    -0.5345020
  H       -4.5250650    -2.4017370    -0.1822600
  H       -2.3845940     2.4838010     0.4485930
  H       -3.9825350     2.0742830     0.8527820
units angstrom
no_reorient  #important for SAPT in psi4, default
symmetry c1  #important for SAPT in psi4, default
}

set PROPERTIES_ORIGIN ["COM"]
properties('MP2/aug-cc-pvtz', properties = ['dipole'])
--------------------------------------------------------------------------

    Molecular point group: c1
  Charge       = 0
  Multiplicity = 1
  Basis Set: AUG-CC-PVTZ
    Blend: AUG-CC-PVTZ
  Basis Set: (AUG-CC-PVTZ AUX)
    Blend: AUG-CC-PVTZ-JKFIT

    Orbital Energies [Eh]
    ---------------------

    Doubly Occupied:

       1A    -20.538575     2A    -15.560368     3A    -11.339035
       4A    -11.297288     5A    -11.259349     6A    -11.255735
       7A    -11.253088     8A    -11.252676     9A    -11.251546
      10A    -11.246777    11A    -11.244457    12A    -11.240926
      13A    -11.239540    14A    -11.238355    15A    -11.232317
      16A    -11.228675    17A     -1.371606    18A     -1.226920
      19A     -1.165959    20A     -1.137491    21A     -1.068767
      22A     -1.034283    23A     -1.021247    24A     -0.996859
      25A     -0.947369    26A     -0.875792    27A     -0.839445
      28A     -0.834903    29A     -0.812885    30A     -0.766622
      31A     -0.713211    32A     -0.691982    33A     -0.686576
      34A     -0.659530    35A     -0.646109    36A     -0.635805
      37A     -0.614320    38A     -0.604221    39A     -0.600635
      40A     -0.593508    41A     -0.585651    42A     -0.579061
      43A     -0.554181    44A     -0.535546    45A     -0.525980
      46A     -0.514623    47A     -0.508923    48A     -0.505303
      49A     -0.492366    50A     -0.480121    51A     -0.452627
      52A     -0.419473    53A     -0.350149    54A     -0.343720
      55A     -0.334554    56A     -0.300724

  @DF-RHF Final Energy:  -667.25635330631860

   => Energetics <=

    Nuclear Repulsion Energy =            992.0807463749371209
    One-Electron Energy =               -2875.2586917631410870
    Two-Electron Energy =                1215.9215920818855921
    Total Energy =                       -667.2563533063184877
  Basis Set: (AUG-CC-PVTZ AUX)
    Blend: AUG-CC-PVTZ-RI
    Molecular point group: c1

    Geometry (in Angstrom), charge = 0, multiplicity = 1:

       Center              X                  Y                   Z               Mass
    ------------   -----------------  -----------------  -----------------  -----------------
         O           -0.515990462776     2.230945185209    -0.295796266058    15.994914619570
         N           -2.979114462776     1.756603185209     0.828673733942    14.003074004430
         C            1.034640537224     0.466121185209    -0.083408266058    12.000000000000
         C           -1.499137462776     0.061162185209    -0.139024266058    12.000000000000
         C           -0.353981462776     1.003891185209    -0.180815266058    12.000000000000
         C            3.713155537224    -0.378252814791     0.172210733942    12.000000000000
         C           -2.778967462776     0.490250185209     0.300258733942    12.000000000000
         C            1.355057537224    -0.634277814791     0.725004733942    12.000000000000
         C            2.061190537224     1.153915185209    -0.745424266058    12.000000000000
         C            2.682745537224    -1.041594814791     0.850661733942    12.000000000000
         C            3.379272537224     0.723169185209    -0.629671266058    12.000000000000
         C           -1.345326462776    -1.243324814791    -0.645421266058    12.000000000000
         C           -3.827462462776    -0.447515814791     0.311788733942    12.000000000000
         C           -2.405219462776    -2.141639814791    -0.667327266058    12.000000000000
         C            5.137685537224    -0.857025814791     0.270226733942    12.000000000000
         C           -3.651962462776    -1.734375814791    -0.181824266058    12.000000000000
         H            0.572216537224    -1.150590814791     1.274852733942     1.007825032230
         H            1.807542537224     2.025568185209    -1.343491266058     1.007825032230
         H            2.924028537224    -1.885088814791     1.495721733942     1.007825032230
         H            4.167364537224     1.257936185209    -1.157766266058     1.007825032230
         H           -0.375758462776    -1.543281814791    -1.033354266058     1.007825032230
         H           -4.804957462776    -0.134533814791     0.675922733942     1.007825032230
         H           -2.269293462776    -3.140258814791    -1.073275266058     1.007825032230
         H            5.968102337224     0.130120785209     0.171566933942     1.007825032230
         H            5.318852537224    -1.360765814791     1.223870733942     1.007825032230
         H            5.370605537224    -1.567475814791    -0.530690266058     1.007825032230
         H           -4.491243462776    -2.426487814791    -0.178448266058     1.007825032230
         H           -2.350772462776     2.459050185209     0.452404733942     1.007825032230
         H           -3.948713462776     2.049532185209     0.856593733942     1.007825032230

  Basis Set: AUG-CC-PVTZ
    Blend: AUG-CC-PVTZ
  Basis Set: (AUG-CC-PVTZ AUX)
    Blend: AUG-CC-PVTZ-JKFIT
	 Reference Energy          =    -667.2563533063186014 [Eh]
	 Singles Energy            =      -0.0000000000000000 [Eh]
	 Same-Spin Energy          =      -0.7355867506371119 [Eh]
	 Opposite-Spin Energy      =      -2.2672127503439037 [Eh]
	 Correlation Energy        =      -3.0027995009810153 [Eh]
	 Total Energy              =    -670.2591528072996425 [Eh]

	 ================> DF-SCS-MP2 Energies <==================
	-----------------------------------------------------------
	 SCS Same-Spin Scale       =       0.3333333333333333 [-]
	 SCS Opposite-Spin Scale   =       1.2000000000000000 [-]
	 SCS Same-Spin Energy      =      -0.2451955835457039 [Eh]
	 SCS Opposite-Spin Energy  =      -2.7206553004126843 [Eh]
	 SCS Correlation Energy    =      -2.9658508839583884 [Eh]
	 SCS Total Energy          =    -670.2222041902770115 [Eh]
	-----------------------------------------------------------

  Dipole Moment: [D]
     X:     0.2074      Y:    -1.8678      Z:    -0.1018     Total:     1.8820

*** Psi4 exiting successfully. Buy a developer a beer!
