                               Psi4 1.4a3.dev225

  ==> Input File <==

--------------------------------------------------------------------------
#psi4
#
memory 32 gb

molecule  {
0 1
  O       -0.5498120     2.2556960    -0.2996080
  N       -3.0129360     1.7813540     0.8248620
  C        1.0008190     0.4908720    -0.0872200
  C       -1.5329590     0.0859130    -0.1428360
  C       -0.3878030     1.0286420    -0.1846270
  C        3.6793340    -0.3535020     0.1683990
  C       -2.8127890     0.5150010     0.2964470
  C        1.3212360    -0.6095270     0.7211930
  C        2.0273690     1.1786660    -0.7492360
  C        2.6489240    -1.0168440     0.8468500
  C        3.3454510     0.7479200    -0.6334830
  C       -1.3791480    -1.2185740    -0.6492330
  C       -3.8612840    -0.4227650     0.3079770
  C       -2.4390410    -2.1168890    -0.6711390
  C        5.1038640    -0.8322750     0.2664150
  C       -3.6857840    -1.7096250    -0.1856360
  H        0.5383950    -1.1258400     1.2710410
  H        1.7737210     2.0503190    -1.3473030
  H        2.8902070    -1.8603380     1.4919100
  H        4.1335430     1.2826870    -1.1615780
  H       -0.4095800    -1.5185310    -1.0371660
  H       -4.8387790    -0.1097830     0.6721110
  H       -2.3031150    -3.1155080    -1.0770870
  H        5.8059070     0.0022690     0.1830070
  H        5.2933139    -1.3590458     1.2636592
  H        5.3367840    -1.5427250    -0.5345020
  H       -4.5250650    -2.4017370    -0.1822600
  H       -2.3845940     2.4838010     0.4485930
  H       -3.9825350     2.0742830     0.8527820
units angstrom
no_reorient  #important for SAPT in psi4, default
symmetry c1  #important for SAPT in psi4, default
}

set PROPERTIES_ORIGIN ["COM"]
properties('MP2/aug-cc-pvtz', properties = ['dipole'])
--------------------------------------------------------------------------

    Molecular point group: c1
  Charge       = 0
  Multiplicity = 1
  Basis Set: AUG-CC-PVTZ
    Blend: AUG-CC-PVTZ
  Basis Set: (AUG-CC-PVTZ AUX)
    Blend: AUG-CC-PVTZ-JKFIT

    Orbital Energies [Eh]
    ---------------------

    Doubly Occupied:

       1A    -20.538120     2A    -15.560081     3A    -11.338588
       4A    -11.296962     5A    -11.257773     6A    -11.252781
       7A    -11.252323     8A    -11.250663     9A    -11.246533
      10A    -11.243730    11A    -11.239199    12A    -11.239183
      13A    -11.239157    14A    -11.238199    15A    -11.232017
      16A    -11.228356    17A     -1.371176    18A     -1.226620
      19A     -1.165315    20A     -1.137165    21A     -1.069160
      22A     -1.034303    23A     -1.020772    24A     -0.996585
      25A     -0.952131    26A     -0.876469    27A     -0.838926
      28A     -0.836233    29A     -0.812735    30A     -0.766224
      31A     -0.712747    32A     -0.691699    33A     -0.686258
      34A     -0.661379    35A     -0.644169    36A     -0.636625
      37A     -0.614159    38A     -0.603774    39A     -0.599654
      40A     -0.592754    41A     -0.584657    42A     -0.583259
      43A     -0.553412    44A     -0.541232    45A     -0.531013
      46A     -0.518154    47A     -0.513377    48A     -0.505024
      49A     -0.493010    50A     -0.481970    51A     -0.452352
      52A     -0.419032    53A     -0.349809    54A     -0.343232
      55A     -0.334080    56A     -0.300417

  @DF-RHF Final Energy:  -667.27444412738771

   => Energetics <=

    Nuclear Repulsion Energy =            992.6699611758446053
    One-Electron Energy =               -2876.4793617673954031
    Two-Electron Energy =                1216.5349564641633151
    Total Energy =                       -667.2744441273875964
  Basis Set: (AUG-CC-PVTZ AUX)
    Blend: AUG-CC-PVTZ-RI
    Molecular point group: c1

    Geometry (in Angstrom), charge = 0, multiplicity = 1:

       Center              X                  Y                   Z               Mass
    ------------   -----------------  -----------------  -----------------  -----------------
         O           -0.515417128910     2.231783688178    -0.296077235263    15.994914619570
         N           -2.978541128910     1.757441688178     0.828392764737    14.003074004430
         C            1.035213871090     0.466959688178    -0.083689235263    12.000000000000
         C           -1.498564128910     0.062000688178    -0.139305235263    12.000000000000
         C           -0.353408128910     1.004729688178    -0.181096235263    12.000000000000
         C            3.713728871090    -0.377414311822     0.171929764737    12.000000000000
         C           -2.778394128910     0.491088688178     0.299977764737    12.000000000000
         C            1.355630871090    -0.633439311822     0.724723764737    12.000000000000
         C            2.061763871090     1.154753688178    -0.745705235263    12.000000000000
         C            2.683318871090    -1.040756311822     0.850380764737    12.000000000000
         C            3.379845871090     0.724007688178    -0.629952235263    12.000000000000
         C           -1.344753128910    -1.242486311822    -0.645702235263    12.000000000000
         C           -3.826889128910    -0.446677311822     0.311507764737    12.000000000000
         C           -2.404646128910    -2.140801311822    -0.667608235263    12.000000000000
         C            5.138258871090    -0.856187311822     0.269945764737    12.000000000000
         C           -3.651389128910    -1.733537311822    -0.182105235263    12.000000000000
         H            0.572789871090    -1.149752311822     1.274571764737     1.007825032230
         H            1.808115871090     2.026406688178    -1.343772235263     1.007825032230
         H            2.924601871090    -1.884250311822     1.495440764737     1.007825032230
         H            4.167937871090     1.258774688178    -1.158047235263     1.007825032230
         H           -0.375185128910    -1.542443311822    -1.033635235263     1.007825032230
         H           -4.804384128910    -0.133695311822     0.675641764737     1.007825032230
         H           -2.268720128910    -3.139420311822    -1.073556235263     1.007825032230
         H            5.840301871090    -0.021643311822     0.186537764737     1.007825032230
         H            5.327708771090    -1.382958111822     1.267189964737     1.007825032230
         H            5.371178871090    -1.566637311822    -0.530971235263     1.007825032230
         H           -4.490670128910    -2.425649311822    -0.178729235263     1.007825032230
         H           -2.350199128910     2.459888688178     0.452123764737     1.007825032230
         H           -3.948140128910     2.050370688178     0.856312764737     1.007825032230

  Basis Set: AUG-CC-PVTZ
    Blend: AUG-CC-PVTZ
  Basis Set: (AUG-CC-PVTZ AUX)
    Blend: AUG-CC-PVTZ-JKFIT
	 Reference Energy          =    -667.2744441273877101 [Eh]
	 Singles Energy            =      -0.0000000000000000 [Eh]
	 Same-Spin Energy          =      -0.7355365483893846 [Eh]
	 Opposite-Spin Energy      =      -2.2658714205433190 [Eh]
	 Correlation Energy        =      -3.0014079689327038 [Eh]
	 Total Energy              =    -670.2758520963203637 [Eh]

	 ================> DF-SCS-MP2 Energies <==================
	-----------------------------------------------------------
	 SCS Same-Spin Scale       =       0.3333333333333333 [-]
	 SCS Opposite-Spin Scale   =       1.2000000000000000 [-]
	 SCS Same-Spin Energy      =      -0.2451788494631282 [Eh]
	 SCS Opposite-Spin Energy  =      -2.7190457046519829 [Eh]
	 SCS Correlation Energy    =      -2.9642245541151113 [Eh]
	 SCS Total Energy          =    -670.2386686815028725 [Eh]
	-----------------------------------------------------------

  Dipole Moment: [D]
     X:     0.3317      Y:    -1.8002      Z:    -0.1248     Total:     1.8348

*** Psi4 exiting successfully. Buy a developer a beer!
