                               Psi4 1.4a3.dev225

  ==> Input File <==

--------------------------------------------------------------------------
#psi4
#
memory 32 gb

molecule  {
0 1
  O       -0.5498120     2.2556960    -0.2996080
  N       -3.0129360     1.7813540     0.8248620
  C        1.0008190     0.4908720    -0.0872200
  C       -1.5329590     0.0859130    -0.1428360
  C       -0.3878030     1.0286420    -0.1846270
  C        3.6793340    -0.3535020     0.1683990
  C       -2.8127890     0.5150010     0.2964470
  C        1.3212360    -0.6095270     0.7211930
  C        2.0273690     1.1786660    -0.7492360
  C        2.6489240    -1.0168440     0.8468500
  C        3.3454510     0.7479200    -0.6334830
  C       -1.3791480    -1.2185740    -0.6492330
  C       -3.8612840    -0.4227650     0.3079770
  C       -2.3627645    -2.0522407    -0.6695625
  C        5.1038640    -0.8322750     0.2664150
  C       -3.6857840    -1.7096250    -0.1856360
  H        0.5383950    -1.1258400     1.2710410
  H        1.7737210     2.0503190    -1.3473030
  H        2.8902070    -1.8603380     1.4919100
  H        4.1335430     1.2826870    -1.1615780
  H       -0.4095800    -1.5185310    -1.0371660
  H       -4.8387790    -0.1097830     0.6721110
  H       -2.3031150    -3.1155080    -1.0770870
  H        5.8059070     0.0022690     0.1830070
  H        5.2850310    -1.3360150     1.2200590
  H        5.3367840    -1.5427250    -0.5345020
  H       -4.5250650    -2.4017370    -0.1822600
  H       -2.3845940     2.4838010     0.4485930
  H       -3.9825350     2.0742830     0.8527820
units angstrom
no_reorient  #important for SAPT in psi4, default
symmetry c1  #important for SAPT in psi4, default
}

set PROPERTIES_ORIGIN ["COM"]
properties('MP2/aug-cc-pvtz', properties = ['dipole'])
--------------------------------------------------------------------------

    Molecular point group: c1
  Charge       = 0
  Multiplicity = 1
  Basis Set: AUG-CC-PVTZ
    Blend: AUG-CC-PVTZ
  Basis Set: (AUG-CC-PVTZ AUX)
    Blend: AUG-CC-PVTZ-JKFIT

    Orbital Energies [Eh]
    ---------------------

    Doubly Occupied:

       1A    -20.535068     2A    -15.561389     3A    -11.335677
       4A    -11.298299     5A    -11.260012     6A    -11.256139
       7A    -11.249373     8A    -11.244976     9A    -11.242068
      10A    -11.238069    11A    -11.236687    12A    -11.236615
      13A    -11.235975    14A    -11.234103    15A    -11.232389
      16A    -11.226555    17A     -1.368434    18A     -1.228058
      19A     -1.164195    20A     -1.144188    21A     -1.067700
      22A     -1.034514    23A     -1.019916    24A     -1.003482
      25A     -0.953130    26A     -0.879562    27A     -0.837089
      28A     -0.834122    29A     -0.809828    30A     -0.764150
      31A     -0.713074    32A     -0.691718    33A     -0.688214
      34A     -0.659717    35A     -0.642744    36A     -0.634063
      37A     -0.612703    38A     -0.609842    39A     -0.597882
      40A     -0.591580    41A     -0.583947    42A     -0.582969
      43A     -0.556230    44A     -0.547966    45A     -0.536491
      46A     -0.518453    47A     -0.510059    48A     -0.492383
      49A     -0.491039    50A     -0.476928    51A     -0.458028
      52A     -0.417257    53A     -0.351855    54A     -0.342339
      55A     -0.332748    56A     -0.303142

  @DF-RHF Final Energy:  -667.26310160534831

   => Energetics <=

    Nuclear Repulsion Energy =            994.5254070714696581
    One-Electron Energy =               -2880.2267408374709703
    Two-Electron Energy =                1218.4382321606531150
    Total Energy =                       -667.2631016053483108
  Basis Set: (AUG-CC-PVTZ AUX)
    Blend: AUG-CC-PVTZ-RI
    Molecular point group: c1

    Geometry (in Angstrom), charge = 0, multiplicity = 1:

       Center              X                  Y                   Z               Mass
    ------------   -----------------  -----------------  -----------------  -----------------
         O           -0.519713535896     2.227998791451    -0.295958697097    15.994914619570
         N           -2.982837535896     1.753656791451     0.828511302903    14.003074004430
         C            1.030917464104     0.463174791451    -0.083570697097    12.000000000000
         C           -1.502860535896     0.058215791451    -0.139186697097    12.000000000000
         C           -0.357704535896     1.000944791451    -0.180977697097    12.000000000000
         C            3.709432464104    -0.381199208549     0.172048302903    12.000000000000
         C           -2.782690535896     0.487303791451     0.300096302903    12.000000000000
         C            1.351334464104    -0.637224208549     0.724842302903    12.000000000000
         C            2.057467464104     1.150968791451    -0.745586697097    12.000000000000
         C            2.679022464104    -1.044541208549     0.850499302903    12.000000000000
         C            3.375549464104     0.720222791451    -0.629833697097    12.000000000000
         C           -1.349049535896    -1.246271208549    -0.645583697097    12.000000000000
         C           -3.831185535896    -0.450462208549     0.311626302903    12.000000000000
         C           -2.332666035896    -2.079937908549    -0.665913197097    12.000000000000
         C            5.133962464104    -0.859972208549     0.270064302903    12.000000000000
         C           -3.655685535896    -1.737322208549    -0.181986697097    12.000000000000
         H            0.568493464104    -1.153537208549     1.274690302903     1.007825032230
         H            1.803819464104     2.022621791451    -1.343653697097     1.007825032230
         H            2.920305464104    -1.888035208549     1.495559302903     1.007825032230
         H            4.163641464104     1.254989791451    -1.157928697097     1.007825032230
         H           -0.379481535896    -1.546228208549    -1.033516697097     1.007825032230
         H           -4.808680535896    -0.137480208549     0.675760302903     1.007825032230
         H           -2.273016535896    -3.143205208549    -1.073437697097     1.007825032230
         H            5.836005464104    -0.025428208549     0.186656302903     1.007825032230
         H            5.315129464104    -1.363712208549     1.223708302903     1.007825032230
         H            5.366882464104    -1.570422208549    -0.530852697097     1.007825032230
         H           -4.494966535896    -2.429434208549    -0.178610697097     1.007825032230
         H           -2.354495535896     2.456103791451     0.452242302903     1.007825032230
         H           -3.952436535896     2.046585791451     0.856431302903     1.007825032230

  Basis Set: AUG-CC-PVTZ
    Blend: AUG-CC-PVTZ
  Basis Set: (AUG-CC-PVTZ AUX)
    Blend: AUG-CC-PVTZ-JKFIT
	 Reference Energy          =    -667.2631016053483108 [Eh]
	 Singles Energy            =      -0.0000000000000000 [Eh]
	 Same-Spin Energy          =      -0.7353201743764277 [Eh]
	 Opposite-Spin Energy      =      -2.2657456130262563 [Eh]
	 Correlation Energy        =      -3.0010657874026840 [Eh]
	 Total Energy              =    -670.2641673927510055 [Eh]

	 ================> DF-SCS-MP2 Energies <==================
	-----------------------------------------------------------
	 SCS Same-Spin Scale       =       0.3333333333333333 [-]
	 SCS Opposite-Spin Scale   =       1.2000000000000000 [-]
	 SCS Same-Spin Energy      =      -0.2451067247921426 [Eh]
	 SCS Opposite-Spin Energy  =      -2.7188947356315074 [Eh]
	 SCS Correlation Energy    =      -2.9640014604236500 [Eh]
	 SCS Total Energy          =    -670.2271030657719848 [Eh]
	-----------------------------------------------------------

  Dipole Moment: [D]
     X:     0.1788      Y:    -1.8296      Z:    -0.0736     Total:     1.8398

*** Psi4 exiting successfully. Buy a developer a beer!
