                               Psi4 1.4a3.dev225

  ==> Input File <==

--------------------------------------------------------------------------
#psi4
#
memory 32 gb

molecule  {
0 1
  O       -0.5498120     2.2556960    -0.2996080
  N       -3.0129360     1.7813540     0.8248620
  C        1.1437726     0.4988784    -0.1196523
  C       -1.5329590     0.0859130    -0.1428360
  C       -0.3878030     1.0286420    -0.1846270
  C        3.6793340    -0.3535020     0.1683990
  C       -2.8127890     0.5150010     0.2964470
  C        1.3212360    -0.6095270     0.7211930
  C        2.0273690     1.1786660    -0.7492360
  C        2.6489240    -1.0168440     0.8468500
  C        3.3454510     0.7479200    -0.6334830
  C       -1.3791480    -1.2185740    -0.6492330
  C       -3.8612840    -0.4227650     0.3079770
  C       -2.4390410    -2.1168890    -0.6711390
  C        5.1038640    -0.8322750     0.2664150
  C       -3.6857840    -1.7096250    -0.1856360
  H        0.5383950    -1.1258400     1.2710410
  H        1.7737210     2.0503190    -1.3473030
  H        2.8902070    -1.8603380     1.4919100
  H        4.1335430     1.2826870    -1.1615780
  H       -0.4095800    -1.5185310    -1.0371660
  H       -4.8387790    -0.1097830     0.6721110
  H       -2.3031150    -3.1155080    -1.0770870
  H        5.8059070     0.0022690     0.1830070
  H        5.2850310    -1.3360150     1.2200590
  H        5.3367840    -1.5427250    -0.5345020
  H       -4.5250650    -2.4017370    -0.1822600
  H       -2.3845940     2.4838010     0.4485930
  H       -3.9825350     2.0742830     0.8527820
units angstrom
no_reorient  #important for SAPT in psi4, default
symmetry c1  #important for SAPT in psi4, default
}

set PROPERTIES_ORIGIN ["COM"]
properties('MP2/aug-cc-pvtz', properties = ['dipole'])
--------------------------------------------------------------------------

    Molecular point group: c1
  Charge       = 0
  Multiplicity = 1
  Basis Set: AUG-CC-PVTZ
    Blend: AUG-CC-PVTZ
  Basis Set: (AUG-CC-PVTZ AUX)
    Blend: AUG-CC-PVTZ-JKFIT

    Orbital Energies [Eh]
    ---------------------

    Doubly Occupied:

       1A    -20.540653     2A    -15.561060     3A    -11.342431
       4A    -11.298403     5A    -11.253816     6A    -11.253529
       7A    -11.250090     8A    -11.245806     9A    -11.241393
      10A    -11.240015    11A    -11.238765    12A    -11.236875
      13A    -11.233032    14A    -11.229994    15A    -11.229324
      16A    -11.227030    17A     -1.369966    18A     -1.227648
      19A     -1.175691    20A     -1.137991    21A     -1.066132
      22A     -1.040285    23A     -1.023377    24A     -0.997426
      25A     -0.944465    26A     -0.874751    27A     -0.844508
      28A     -0.831860    29A     -0.807065    30A     -0.766906
      31A     -0.711158    32A     -0.693327    33A     -0.686326
      34A     -0.658120    35A     -0.649183    36A     -0.634095
      37A     -0.615088    38A     -0.606480    39A     -0.603179
      40A     -0.593197    41A     -0.581768    42A     -0.578938
      43A     -0.553043    44A     -0.544584    45A     -0.532268
      46A     -0.519565    47A     -0.512191    48A     -0.506199
      49A     -0.496087    50A     -0.488237    51A     -0.453282
      52A     -0.403926    53A     -0.351482    54A     -0.348448
      55A     -0.332668    56A     -0.301560

  @DF-RHF Final Energy:  -667.25195214466919

   => Energetics <=

    Nuclear Repulsion Energy =            992.7269029726403460
    One-Electron Energy =               -2876.5883406400207605
    Two-Electron Energy =                1216.6094855227111111
    Total Energy =                       -667.2519521446693034
  Basis Set: (AUG-CC-PVTZ AUX)
    Blend: AUG-CC-PVTZ-RI
    Molecular point group: c1

    Geometry (in Angstrom), charge = 0, multiplicity = 1:

       Center              X                  Y                   Z               Mass
    ------------   -----------------  -----------------  -----------------  -----------------
         O           -0.523503807255     2.231218610118    -0.294025460939    15.994914619570
         N           -2.986627807255     1.756876610118     0.830444539061    14.003074004430
         C            1.170080792745     0.474401010118    -0.114069760939    12.000000000000
         C           -1.506650807255     0.061435610118    -0.137253460939    12.000000000000
         C           -0.361494807255     1.004164610118    -0.179044460939    12.000000000000
         C            3.705642192745    -0.377979389882     0.173981539061    12.000000000000
         C           -2.786480807255     0.490523610118     0.302029539061    12.000000000000
         C            1.347544192745    -0.634004389882     0.726775539061    12.000000000000
         C            2.053677192745     1.154188610118    -0.743653460939    12.000000000000
         C            2.675232192745    -1.041321389882     0.852432539061    12.000000000000
         C            3.371759192745     0.723442610118    -0.627900460939    12.000000000000
         C           -1.352839807255    -1.243051389882    -0.643650460939    12.000000000000
         C           -3.834975807255    -0.447242389882     0.313559539061    12.000000000000
         C           -2.412732807255    -2.141366389882    -0.665556460939    12.000000000000
         C            5.130172192745    -0.856752389882     0.271997539061    12.000000000000
         C           -3.659475807255    -1.734102389882    -0.180053460939    12.000000000000
         H            0.564703192745    -1.150317389882     1.276623539061     1.007825032230
         H            1.800029192745     2.025841610118    -1.341720460939     1.007825032230
         H            2.916515192745    -1.884815389882     1.497492539061     1.007825032230
         H            4.159851192745     1.258209610118    -1.155995460939     1.007825032230
         H           -0.383271807255    -1.543008389882    -1.031583460939     1.007825032230
         H           -4.812470807255    -0.134260389882     0.677693539061     1.007825032230
         H           -2.276806807255    -3.139985389882    -1.071504460939     1.007825032230
         H            5.832215192745    -0.022208389882     0.188589539061     1.007825032230
         H            5.311339192745    -1.360492389882     1.225641539061     1.007825032230
         H            5.363092192745    -1.567202389882    -0.528919460939     1.007825032230
         H           -4.498756807255    -2.426214389882    -0.176677460939     1.007825032230
         H           -2.358285807255     2.459323610118     0.454175539061     1.007825032230
         H           -3.956226807255     2.049805610118     0.858364539061     1.007825032230

  Basis Set: AUG-CC-PVTZ
    Blend: AUG-CC-PVTZ
  Basis Set: (AUG-CC-PVTZ AUX)
    Blend: AUG-CC-PVTZ-JKFIT
	 Reference Energy          =    -667.2519521446691897 [Eh]
	 Singles Energy            =      -0.0000000000000000 [Eh]
	 Same-Spin Energy          =      -0.7352695394391047 [Eh]
	 Opposite-Spin Energy      =      -2.2656119060075057 [Eh]
	 Correlation Energy        =      -3.0008814454466104 [Eh]
	 Total Energy              =    -670.2528335901157561 [Eh]

	 ================> DF-SCS-MP2 Energies <==================
	-----------------------------------------------------------
	 SCS Same-Spin Scale       =       0.3333333333333333 [-]
	 SCS Opposite-Spin Scale   =       1.2000000000000000 [-]
	 SCS Same-Spin Energy      =      -0.2450898464797016 [Eh]
	 SCS Opposite-Spin Energy  =      -2.7187342872090068 [Eh]
	 SCS Correlation Energy    =      -2.9638241336887083 [Eh]
	 SCS Total Energy          =    -670.2157762783579074 [Eh]
	-----------------------------------------------------------

  Dipole Moment: [D]
     X:    -0.0070      Y:    -1.7236      Z:    -0.1331     Total:     1.7287

*** Psi4 exiting successfully. Buy a developer a beer!
