                               Psi4 1.4a3.dev225

  ==> Input File <==

--------------------------------------------------------------------------
#psi4
#
memory 32 gb

molecule  {
0 1
  O       -0.5498120     2.2556960    -0.2996080
  N       -3.0129360     1.7813540     0.8248620
  C        1.0008190     0.4908720    -0.0872200
  C       -1.5329590     0.0859130    -0.1428360
  C       -0.3878030     1.0286420    -0.1846270
  C        3.6793340    -0.3535020     0.1683990
  C       -2.8127890     0.5150010     0.2964470
  C        1.3212360    -0.6095270     0.7211930
  C        2.0273690     1.1786660    -0.7492360
  C        2.6489240    -1.0168440     0.8468500
  C        3.3454510     0.7479200    -0.6334830
  C       -1.3791480    -1.2185740    -0.6492330
  C       -3.8761909    -0.4360976     0.3081409
  C       -2.4390410    -2.1168890    -0.6711390
  C        5.1038640    -0.8322750     0.2664150
  C       -3.6857840    -1.7096250    -0.1856360
  H        0.5383950    -1.1258400     1.2710410
  H        1.7737210     2.0503190    -1.3473030
  H        2.8902070    -1.8603380     1.4919100
  H        4.1335430     1.2826870    -1.1615780
  H       -0.4095800    -1.5185310    -1.0371660
  H       -4.8387790    -0.1097830     0.6721110
  H       -2.3031150    -3.1155080    -1.0770870
  H        5.8059070     0.0022690     0.1830070
  H        5.2850310    -1.3360150     1.2200590
  H        5.3367840    -1.5427250    -0.5345020
  H       -4.5250650    -2.4017370    -0.1822600
  H       -2.3845940     2.4838010     0.4485930
  H       -3.9825350     2.0742830     0.8527820
units angstrom
no_reorient  #important for SAPT in psi4, default
symmetry c1  #important for SAPT in psi4, default
}

set PROPERTIES_ORIGIN ["COM"]
properties('MP2/aug-cc-pvtz', properties = ['dipole'])
--------------------------------------------------------------------------

    Molecular point group: c1
  Charge       = 0
  Multiplicity = 1
  Basis Set: AUG-CC-PVTZ
    Blend: AUG-CC-PVTZ
  Basis Set: (AUG-CC-PVTZ AUX)
    Blend: AUG-CC-PVTZ-JKFIT

    Orbital Energies [Eh]
    ---------------------

    Doubly Occupied:

       1A    -20.537805     2A    -15.561564     3A    -11.338327
       4A    -11.299821     5A    -11.257258     6A    -11.251926
       7A    -11.251221     8A    -11.250507     9A    -11.246243
      10A    -11.243455    11A    -11.239028    12A    -11.238413
      13A    -11.237732    14A    -11.233170    15A    -11.232569
      16A    -11.227658    17A     -1.370923    18A     -1.226438
      19A     -1.165116    20A     -1.137094    21A     -1.069656
      22A     -1.035366    23A     -1.020627    24A     -0.994860
      25A     -0.954532    26A     -0.875837    27A     -0.839125
      28A     -0.836666    29A     -0.813141    30A     -0.765993
      31A     -0.713023    32A     -0.691969    33A     -0.686566
      34A     -0.661317    35A     -0.645612    36A     -0.636873
      37A     -0.614394    38A     -0.602176    39A     -0.600544
      40A     -0.592695    41A     -0.585571    42A     -0.584034
      43A     -0.555477    44A     -0.544341    45A     -0.531036
      46A     -0.517875    47A     -0.512640    48A     -0.505614
      49A     -0.493415    50A     -0.482052    51A     -0.452920
      52A     -0.418546    53A     -0.350992    54A     -0.343234
      55A     -0.333889    56A     -0.298759

  @DF-RHF Final Energy:  -667.27625399022395

   => Energetics <=

    Nuclear Repulsion Energy =            992.5660747460162838
    One-Electron Energy =               -2876.2693770796108765
    Two-Electron Energy =                1216.4270483433706431
    Total Energy =                       -667.2762539902239496
  Basis Set: (AUG-CC-PVTZ AUX)
    Blend: AUG-CC-PVTZ-RI
    Molecular point group: c1

    Geometry (in Angstrom), charge = 0, multiplicity = 1:

       Center              X                  Y                   Z               Mass
    ------------   -----------------  -----------------  -----------------  -----------------
         O           -0.514530199647     2.232431629289    -0.295878397604    15.994914619570
         N           -2.977654199647     1.758089629289     0.828591602396    14.003074004430
         C            1.036100800353     0.467607629289    -0.083490397604    12.000000000000
         C           -1.497677199647     0.062648629289    -0.139106397604    12.000000000000
         C           -0.352521199647     1.005377629289    -0.180897397604    12.000000000000
         C            3.714615800353    -0.376766370711     0.172128602396    12.000000000000
         C           -2.777507199647     0.491736629289     0.300176602396    12.000000000000
         C            1.356517800353    -0.632791370711     0.724922602396    12.000000000000
         C            2.062650800353     1.155401629289    -0.745506397604    12.000000000000
         C            2.684205800353    -1.040108370711     0.850579602396    12.000000000000
         C            3.380732800353     0.724655629289    -0.629753397604    12.000000000000
         C           -1.343866199647    -1.241838370711    -0.645503397604    12.000000000000
         C           -3.840909099647    -0.459361970711     0.311870502396    12.000000000000
         C           -2.403759199647    -2.140153370711    -0.667409397604    12.000000000000
         C            5.139145800353    -0.855539370711     0.270144602396    12.000000000000
         C           -3.650502199647    -1.732889370711    -0.181906397604    12.000000000000
         H            0.573676800353    -1.149104370711     1.274770602396     1.007825032230
         H            1.809002800353     2.027054629289    -1.343573397604     1.007825032230
         H            2.925488800353    -1.883602370711     1.495639602396     1.007825032230
         H            4.168824800353     1.259422629289    -1.157848397604     1.007825032230
         H           -0.374298199647    -1.541795370711    -1.033436397604     1.007825032230
         H           -4.803497199647    -0.133047370711     0.675840602396     1.007825032230
         H           -2.267833199647    -3.138772370711    -1.073357397604     1.007825032230
         H            5.841188800353    -0.020995370711     0.186736602396     1.007825032230
         H            5.320312800353    -1.359279370711     1.223788602396     1.007825032230
         H            5.372065800353    -1.565989370711    -0.530772397604     1.007825032230
         H           -4.489783199647    -2.425001370711    -0.178530397604     1.007825032230
         H           -2.349312199647     2.460536629289     0.452322602396     1.007825032230
         H           -3.947253199647     2.051018629289     0.856511602396     1.007825032230

  Basis Set: AUG-CC-PVTZ
    Blend: AUG-CC-PVTZ
  Basis Set: (AUG-CC-PVTZ AUX)
    Blend: AUG-CC-PVTZ-JKFIT
	 Reference Energy          =    -667.2762539902239496 [Eh]
	 Singles Energy            =      -0.0000000000000000 [Eh]
	 Same-Spin Energy          =      -0.7353899962536807 [Eh]
	 Opposite-Spin Energy      =      -2.2653948082552660 [Eh]
	 Correlation Energy        =      -3.0007848045089469 [Eh]
	 Total Energy              =    -670.2770387947329027 [Eh]

	 ================> DF-SCS-MP2 Energies <==================
	-----------------------------------------------------------
	 SCS Same-Spin Scale       =       0.3333333333333333 [-]
	 SCS Opposite-Spin Scale   =       1.2000000000000000 [-]
	 SCS Same-Spin Energy      =      -0.2451299987512269 [Eh]
	 SCS Opposite-Spin Energy  =      -2.7184737699063191 [Eh]
	 SCS Correlation Energy    =      -2.9636037686575460 [Eh]
	 SCS Total Energy          =    -670.2398577588814987 [Eh]
	-----------------------------------------------------------

  Dipole Moment: [D]
     X:     0.3281      Y:    -1.7768      Z:    -0.0857     Total:     1.8088

*** Psi4 exiting successfully. Buy a developer a beer!
