                               Psi4 1.4a3.dev225

  ==> Input File <==

--------------------------------------------------------------------------
#psi4
#
memory 32 gb

molecule  {
0 1
  O       -0.5498120     2.2556960    -0.2996080
  N       -3.0129360     1.7813540     0.8248620
  C        1.0008190     0.4908720    -0.0872200
  C       -1.5329590     0.0859130    -0.1428360
  C       -0.3878030     1.0286420    -0.1846270
  C        3.6793340    -0.3535020     0.1683990
  C       -2.8127890     0.5150010     0.2964470
  C        1.3212360    -0.6095270     0.7211930
  C        2.0273690     1.1786660    -0.7492360
  C        2.6489240    -1.0168440     0.8468500
  C        3.3454510     0.7479200    -0.6334830
  C       -1.3791480    -1.2185740    -0.6492330
  C       -3.8612840    -0.4227650     0.3079770
  C       -2.4390410    -2.1168890    -0.6711390
  C        5.1038640    -0.8322750     0.2664150
  C       -3.6857840    -1.7096250    -0.1856360
  H        0.5383950    -1.1258400     1.2710410
  H        1.7737210     2.0503190    -1.3473030
  H        2.8902070    -1.8603380     1.4919100
  H        4.1335430     1.2826870    -1.1615780
  H       -0.4095800    -1.5185310    -1.0371660
  H       -4.6592670    -0.1672606     0.6052396
  H       -2.3031150    -3.1155080    -1.0770870
  H        5.8059070     0.0022690     0.1830070
  H        5.2850310    -1.3360150     1.2200590
  H        5.3367840    -1.5427250    -0.5345020
  H       -4.5250650    -2.4017370    -0.1822600
  H       -2.3845940     2.4838010     0.4485930
  H       -3.9825350     2.0742830     0.8527820
units angstrom
no_reorient  #important for SAPT in psi4, default
symmetry c1  #important for SAPT in psi4, default
}

set PROPERTIES_ORIGIN ["COM"]
properties('MP2/aug-cc-pvtz', properties = ['dipole'])
--------------------------------------------------------------------------

    Molecular point group: c1
  Charge       = 0
  Multiplicity = 1
  Basis Set: AUG-CC-PVTZ
    Blend: AUG-CC-PVTZ
  Basis Set: (AUG-CC-PVTZ AUX)
    Blend: AUG-CC-PVTZ-JKFIT

    Orbital Energies [Eh]
    ---------------------

    Doubly Occupied:

       1A    -20.537546     2A    -15.560414     3A    -11.337881
       4A    -11.295405     5A    -11.257082     6A    -11.251788
       7A    -11.251368     8A    -11.250294     9A    -11.246032
      10A    -11.243197    11A    -11.238858    12A    -11.237907
      13A    -11.237566    14A    -11.233049    15A    -11.227147
      16A    -11.207664    17A     -1.370635    18A     -1.227378
      19A     -1.164914    20A     -1.137076    21A     -1.070145
      22A     -1.038870    23A     -1.020788    24A     -1.001025
      25A     -0.954370    26A     -0.877109    27A     -0.850696
      28A     -0.837716    29A     -0.813508    30A     -0.768623
      31A     -0.724343    32A     -0.692598    33A     -0.687192
      34A     -0.662735    35A     -0.649772    36A     -0.638758
      37A     -0.616210    38A     -0.613262    39A     -0.600735
      40A     -0.592758    41A     -0.586311    42A     -0.584066
      43A     -0.555373    44A     -0.544255    45A     -0.530991
      46A     -0.518354    47A     -0.516905    48A     -0.506939
      49A     -0.493266    50A     -0.481935    51A     -0.451930
      52A     -0.418524    53A     -0.349132    54A     -0.342758
      55A     -0.333692    56A     -0.299812

  @DF-RHF Final Energy:  -667.24252530761078

   => Energetics <=

    Nuclear Repulsion Energy =            994.1276166911122800
    One-Electron Energy =               -2879.2629765707088154
    Two-Electron Energy =                1217.8928345719857589
    Total Energy =                       -667.2425253076107765
  Basis Set: (AUG-CC-PVTZ AUX)
    Blend: AUG-CC-PVTZ-RI
    Molecular point group: c1

    Geometry (in Angstrom), charge = 0, multiplicity = 1:

       Center              X                  Y                   Z               Mass
    ------------   -----------------  -----------------  -----------------  -----------------
         O           -0.516234605021     2.231948142912    -0.295549825530    15.994914619570
         N           -2.979358605021     1.757606142912     0.828920174470    14.003074004430
         C            1.034396394979     0.467124142912    -0.083161825530    12.000000000000
         C           -1.499381605021     0.062165142912    -0.138777825530    12.000000000000
         C           -0.354225605021     1.004894142912    -0.180568825530    12.000000000000
         C            3.712911394979    -0.377249857088     0.172457174470    12.000000000000
         C           -2.779211605021     0.491253142912     0.300505174470    12.000000000000
         C            1.354813394979    -0.633274857088     0.725251174470    12.000000000000
         C            2.060946394979     1.154918142912    -0.745177825530    12.000000000000
         C            2.682501394979    -1.040591857088     0.850908174470    12.000000000000
         C            3.379028394979     0.724172142912    -0.629424825530    12.000000000000
         C           -1.345570605021    -1.242321857088    -0.645174825530    12.000000000000
         C           -3.827706605021    -0.446512857088     0.312035174470    12.000000000000
         C           -2.405463605021    -2.140636857088    -0.667080825530    12.000000000000
         C            5.137441394979    -0.856022857088     0.270473174470    12.000000000000
         C           -3.652206605021    -1.733372857088    -0.181577825530    12.000000000000
         H            0.571972394979    -1.149587857088     1.275099174470     1.007825032230
         H            1.807298394979     2.026571142912    -1.343244825530     1.007825032230
         H            2.923784394979    -1.884085857088     1.495968174470     1.007825032230
         H            4.167120394979     1.258939142912    -1.157519825530     1.007825032230
         H           -0.376002605021    -1.542278857088    -1.033107825530     1.007825032230
         H           -4.625689605021    -0.191008457088     0.609297774470     1.007825032230
         H           -2.269537605021    -3.139255857088    -1.073028825530     1.007825032230
         H            5.839484394979    -0.021478857088     0.187065174470     1.007825032230
         H            5.318608394979    -1.359762857088     1.224117174470     1.007825032230
         H            5.370361394979    -1.566472857088    -0.530443825530     1.007825032230
         H           -4.491487605021    -2.425484857088    -0.178201825530     1.007825032230
         H           -2.351016605021     2.460053142912     0.452651174470     1.007825032230
         H           -3.948957605021     2.050535142912     0.856840174470     1.007825032230

  Basis Set: AUG-CC-PVTZ
    Blend: AUG-CC-PVTZ
  Basis Set: (AUG-CC-PVTZ AUX)
    Blend: AUG-CC-PVTZ-JKFIT
	 Reference Energy          =    -667.2425253076107765 [Eh]
	 Singles Energy            =      -0.0000000000000000 [Eh]
	 Same-Spin Energy          =      -0.7352379657143191 [Eh]
	 Opposite-Spin Energy      =      -2.2648688771720491 [Eh]
	 Correlation Energy        =      -3.0001068428863684 [Eh]
	 Total Energy              =    -670.2426321504971156 [Eh]

	 ================> DF-SCS-MP2 Energies <==================
	-----------------------------------------------------------
	 SCS Same-Spin Scale       =       0.3333333333333333 [-]
	 SCS Opposite-Spin Scale   =       1.2000000000000000 [-]
	 SCS Same-Spin Energy      =      -0.2450793219047730 [Eh]
	 SCS Opposite-Spin Energy  =      -2.7178426526064587 [Eh]
	 SCS Correlation Energy    =      -2.9629219745112318 [Eh]
	 SCS Total Energy          =    -670.2054472821220088 [Eh]
	-----------------------------------------------------------

  Dipole Moment: [D]
     X:     0.2967      Y:    -1.7945      Z:    -0.0892     Total:     1.8211

*** Psi4 exiting successfully. Buy a developer a beer!
