                               Psi4 1.4a3.dev225

  ==> Input File <==

--------------------------------------------------------------------------
#psi4
#
memory 32 gb

molecule  {
0 1
  O       -0.5498120     2.2556960    -0.2996080
  N       -3.0129360     1.7813540     0.8248620
  C        1.0008190     0.4908720    -0.0872200
  C       -1.5329590     0.0859130    -0.1428360
  C       -0.3878030     1.0286420    -0.1846270
  C        3.6793340    -0.3535020     0.1683990
  C       -2.8127890     0.5150010     0.2964470
  C        1.3212360    -0.6095270     0.7211930
  C        2.0273690     1.1786660    -0.7492360
  C        2.6489240    -1.0168440     0.8468500
  C        3.3454510     0.7479200    -0.6334830
  C       -1.3791480    -1.2185740    -0.6492330
  C       -3.8612840    -0.4227650     0.3079770
  C       -2.4390410    -2.1168890    -0.6711390
  C        5.1038640    -0.8322750     0.2664150
  C       -3.6857840    -1.7096250    -0.1856360
  H        0.5383950    -1.1258400     1.2710410
  H        1.7783875     2.0342828    -1.3363001
  H        2.8902070    -1.8603380     1.4919100
  H        4.1335430     1.2826870    -1.1615780
  H       -0.4095800    -1.5185310    -1.0371660
  H       -4.8387790    -0.1097830     0.6721110
  H       -2.3031150    -3.1155080    -1.0770870
  H        5.8059070     0.0022690     0.1830070
  H        5.2850310    -1.3360150     1.2200590
  H        5.3367840    -1.5427250    -0.5345020
  H       -4.5250650    -2.4017370    -0.1822600
  H       -2.3845940     2.4838010     0.4485930
  H       -3.9825350     2.0742830     0.8527820
units angstrom
no_reorient  #important for SAPT in psi4, default
symmetry c1  #important for SAPT in psi4, default
}

set PROPERTIES_ORIGIN ["COM"]
properties('MP2/aug-cc-pvtz', properties = ['dipole'])
--------------------------------------------------------------------------

    Molecular point group: c1
  Charge       = 0
  Multiplicity = 1
  Basis Set: AUG-CC-PVTZ
    Blend: AUG-CC-PVTZ
  Basis Set: (AUG-CC-PVTZ AUX)
    Blend: AUG-CC-PVTZ-JKFIT

    Orbital Energies [Eh]
    ---------------------

    Doubly Occupied:

       1A    -20.538043     2A    -15.560025     3A    -11.338487
       4A    -11.296898     5A    -11.257261     6A    -11.252724
       7A    -11.252255     8A    -11.250493     9A    -11.244429
      10A    -11.243161    11A    -11.239108    12A    -11.239083
      13A    -11.237702    14A    -11.233190    15A    -11.231960
      16A    -11.228297    17A     -1.371103    18A     -1.226561
      19A     -1.165248    20A     -1.137106    21A     -1.069585
      22A     -1.034765    23A     -1.021013    24A     -0.996550
      25A     -0.954558    26A     -0.877156    27A     -0.839541
      28A     -0.836439    29A     -0.813654    30A     -0.766452
      31A     -0.712795    32A     -0.692018    33A     -0.686228
      34A     -0.661615    35A     -0.646250    36A     -0.636971
      37A     -0.614325    38A     -0.603716    39A     -0.599825
      40A     -0.593917    41A     -0.584758    42A     -0.583794
      43A     -0.555879    44A     -0.544660    45A     -0.531950
      46A     -0.518029    47A     -0.513337    48A     -0.505051
      49A     -0.494232    50A     -0.482018    51A     -0.452293
      52A     -0.418926    53A     -0.349719    54A     -0.343057
      55A     -0.333917    56A     -0.300356

  @DF-RHF Final Energy:  -667.27676756214555

   => Energetics <=

    Nuclear Repulsion Energy =            992.9876374434625177
    One-Electron Energy =               -2877.1038334246563863
    Two-Electron Energy =                1216.8394284190483177
    Total Energy =                       -667.2767675621455510
  Basis Set: (AUG-CC-PVTZ AUX)
    Blend: AUG-CC-PVTZ-RI
    Molecular point group: c1

    Geometry (in Angstrom), charge = 0, multiplicity = 1:

       Center              X                  Y                   Z               Mass
    ------------   -----------------  -----------------  -----------------  -----------------
         O           -0.515399863617     2.231750294798    -0.295921610348    15.994914619570
         N           -2.978523863617     1.757408294798     0.828548389652    14.003074004430
         C            1.035231136383     0.466926294798    -0.083533610348    12.000000000000
         C           -1.498546863617     0.061967294798    -0.139149610348    12.000000000000
         C           -0.353390863617     1.004696294798    -0.180940610348    12.000000000000
         C            3.713746136383    -0.377447705202     0.172085389652    12.000000000000
         C           -2.778376863617     0.491055294798     0.300133389652    12.000000000000
         C            1.355648136383    -0.633472705202     0.724879389652    12.000000000000
         C            2.061781136383     1.154720294798    -0.745549610348    12.000000000000
         C            2.683336136383    -1.040789705202     0.850536389652    12.000000000000
         C            3.379863136383     0.723974294798    -0.629796610348    12.000000000000
         C           -1.344735863617    -1.242519705202    -0.645546610348    12.000000000000
         C           -3.826871863617    -0.446710705202     0.311663389652    12.000000000000
         C           -2.404628863617    -2.140834705202    -0.667452610348    12.000000000000
         C            5.138276136383    -0.856220705202     0.270101389652    12.000000000000
         C           -3.651371863617    -1.733570705202    -0.181949610348    12.000000000000
         H            0.572807136383    -1.149785705202     1.274727389652     1.007825032230
         H            1.812799636383     2.010337094798    -1.332613710348     1.007825032230
         H            2.924619136383    -1.884283705202     1.495596389652     1.007825032230
         H            4.167955136383     1.258741294798    -1.157891610348     1.007825032230
         H           -0.375167863617    -1.542476705202    -1.033479610348     1.007825032230
         H           -4.804366863617    -0.133728705202     0.675797389652     1.007825032230
         H           -2.268702863617    -3.139453705202    -1.073400610348     1.007825032230
         H            5.840319136383    -0.021676705202     0.186693389652     1.007825032230
         H            5.319443136383    -1.359960705202     1.223745389652     1.007825032230
         H            5.371196136383    -1.566670705202    -0.530815610348     1.007825032230
         H           -4.490652863617    -2.425682705202    -0.178573610348     1.007825032230
         H           -2.350181863617     2.459855294798     0.452279389652     1.007825032230
         H           -3.948122863617     2.050337294798     0.856468389652     1.007825032230

  Basis Set: AUG-CC-PVTZ
    Blend: AUG-CC-PVTZ
  Basis Set: (AUG-CC-PVTZ AUX)
    Blend: AUG-CC-PVTZ-JKFIT
	 Reference Energy          =    -667.2767675621455510 [Eh]
	 Singles Energy            =      -0.0000000000000000 [Eh]
	 Same-Spin Energy          =      -0.7354579360520686 [Eh]
	 Opposite-Spin Energy      =      -2.2653359702000091 [Eh]
	 Correlation Energy        =      -3.0007939062520776 [Eh]
	 Total Energy              =    -670.2775614683976073 [Eh]

	 ================> DF-SCS-MP2 Energies <==================
	-----------------------------------------------------------
	 SCS Same-Spin Scale       =       0.3333333333333333 [-]
	 SCS Opposite-Spin Scale   =       1.2000000000000000 [-]
	 SCS Same-Spin Energy      =      -0.2451526453506895 [Eh]
	 SCS Opposite-Spin Energy  =      -2.7184031642400108 [Eh]
	 SCS Correlation Energy    =      -2.9635558095907002 [Eh]
	 SCS Total Energy          =    -670.2403233717362809 [Eh]
	-----------------------------------------------------------

  Dipole Moment: [D]
     X:     0.3529      Y:    -1.8145      Z:    -0.1072     Total:     1.8516

*** Psi4 exiting successfully. Buy a developer a beer!
