                               Psi4 1.4a3.dev225

  ==> Input File <==

--------------------------------------------------------------------------
#psi4
#
memory 32 gb

molecule  {
0 1
  O       -0.5498120     2.2556960    -0.2996080
  N       -3.0129360     1.7813540     0.8248620
  C        1.0008190     0.4908720    -0.0872200
  C       -1.5329590     0.0859130    -0.1428360
  C       -0.3878030     1.0286420    -0.1846270
  C        3.6793340    -0.3535020     0.1683990
  C       -2.8127890     0.5150010     0.2964470
  C        1.3258051    -0.6252187     0.7327210
  C        2.0273690     1.1786660    -0.7492360
  C        2.6489240    -1.0168440     0.8468500
  C        3.3454510     0.7479200    -0.6334830
  C       -1.3791480    -1.2185740    -0.6492330
  C       -3.8612840    -0.4227650     0.3079770
  C       -2.4390410    -2.1168890    -0.6711390
  C        5.1038640    -0.8322750     0.2664150
  C       -3.6857840    -1.7096250    -0.1856360
  H        0.5383950    -1.1258400     1.2710410
  H        1.7737210     2.0503190    -1.3473030
  H        2.8902070    -1.8603380     1.4919100
  H        4.1335430     1.2826870    -1.1615780
  H       -0.4095800    -1.5185310    -1.0371660
  H       -4.8387790    -0.1097830     0.6721110
  H       -2.3031150    -3.1155080    -1.0770870
  H        5.8059070     0.0022690     0.1830070
  H        5.2850310    -1.3360150     1.2200590
  H        5.3367840    -1.5427250    -0.5345020
  H       -4.5250650    -2.4017370    -0.1822600
  H       -2.3845940     2.4838010     0.4485930
  H       -3.9825350     2.0742830     0.8527820
units angstrom
no_reorient  #important for SAPT in psi4, default
symmetry c1  #important for SAPT in psi4, default
}

set PROPERTIES_ORIGIN ["COM"]
properties('MP2/aug-cc-pvtz', properties = ['dipole'])
--------------------------------------------------------------------------

    Molecular point group: c1
  Charge       = 0
  Multiplicity = 1
  Basis Set: AUG-CC-PVTZ
    Blend: AUG-CC-PVTZ
  Basis Set: (AUG-CC-PVTZ AUX)
    Blend: AUG-CC-PVTZ-JKFIT

    Orbital Energies [Eh]
    ---------------------

    Doubly Occupied:

       1A    -20.537650     2A    -15.559942     3A    -11.338269
       4A    -11.296828     5A    -11.257717     6A    -11.252675
       7A    -11.252192     8A    -11.250848     9A    -11.246624
      10A    -11.245026    11A    -11.239049    12A    -11.238480
      13A    -11.237959    14A    -11.233439    15A    -11.231930
      16A    -11.228276    17A     -1.370743    18A     -1.226484
      19A     -1.164298    20A     -1.137067    21A     -1.068158
      22A     -1.034435    23A     -1.022150    24A     -0.996507
      25A     -0.954414    26A     -0.876916    27A     -0.838431
      28A     -0.836862    29A     -0.812972    30A     -0.765654
      31A     -0.712555    32A     -0.691794    33A     -0.686120
      34A     -0.661811    35A     -0.644893    36A     -0.637755
      37A     -0.614000    38A     -0.603410    39A     -0.599023
      40A     -0.594143    41A     -0.584651    42A     -0.583663
      43A     -0.555609    44A     -0.544516    45A     -0.531749
      46A     -0.518357    47A     -0.513737    48A     -0.504984
      49A     -0.492214    50A     -0.481743    51A     -0.452301
      52A     -0.418758    53A     -0.349981    54A     -0.344198
      55A     -0.332259    56A     -0.300266

  @DF-RHF Final Energy:  -667.27589979903121

   => Energetics <=

    Nuclear Repulsion Energy =            992.5904601027142462
    One-Electron Energy =               -2876.3197494401642871
    Two-Electron Energy =                1216.4533895384190600
    Total Energy =                       -667.2758997990310945
  Basis Set: (AUG-CC-PVTZ AUX)
    Blend: AUG-CC-PVTZ-RI
    Molecular point group: c1

    Geometry (in Angstrom), charge = 0, multiplicity = 1:

       Center              X                  Y                   Z               Mass
    ------------   -----------------  -----------------  -----------------  -----------------
         O           -0.515637316258     2.232565732739    -0.296524391847    15.994914619570
         N           -2.978761316258     1.758223732739     0.827945608153    14.003074004430
         C            1.034993683742     0.467741732739    -0.084136391847    12.000000000000
         C           -1.498784316258     0.062782732739    -0.139752391847    12.000000000000
         C           -0.353628316258     1.005511732739    -0.181543391847    12.000000000000
         C            3.713508683742    -0.376632267261     0.171482608153    12.000000000000
         C           -2.778614316258     0.491870732739     0.299530608153    12.000000000000
         C            1.359979783742    -0.648348967261     0.735804608153    12.000000000000
         C            2.061543683742     1.155535732739    -0.746152391847    12.000000000000
         C            2.683098683742    -1.039974267261     0.849933608153    12.000000000000
         C            3.379625683742     0.724789732739    -0.630399391847    12.000000000000
         C           -1.344973316258    -1.241704267261    -0.646149391847    12.000000000000
         C           -3.827109316258    -0.445895267261     0.311060608153    12.000000000000
         C           -2.404866316258    -2.140019267261    -0.668055391847    12.000000000000
         C            5.138038683742    -0.855405267261     0.269498608153    12.000000000000
         C           -3.651609316258    -1.732755267261    -0.182552391847    12.000000000000
         H            0.572569683742    -1.148970267261     1.274124608153     1.007825032230
         H            1.807895683742     2.027188732739    -1.344219391847     1.007825032230
         H            2.924381683742    -1.883468267261     1.494993608153     1.007825032230
         H            4.167717683742     1.259556732739    -1.158494391847     1.007825032230
         H           -0.375405316258    -1.541661267261    -1.034082391847     1.007825032230
         H           -4.804604316258    -0.132913267261     0.675194608153     1.007825032230
         H           -2.268940316258    -3.138638267261    -1.074003391847     1.007825032230
         H            5.840081683742    -0.020861267261     0.186090608153     1.007825032230
         H            5.319205683742    -1.359145267261     1.223142608153     1.007825032230
         H            5.370958683742    -1.565855267261    -0.531418391847     1.007825032230
         H           -4.490890316258    -2.424867267261    -0.179176391847     1.007825032230
         H           -2.350419316258     2.460670732739     0.451676608153     1.007825032230
         H           -3.948360316258     2.051152732739     0.855865608153     1.007825032230

  Basis Set: AUG-CC-PVTZ
    Blend: AUG-CC-PVTZ
  Basis Set: (AUG-CC-PVTZ AUX)
    Blend: AUG-CC-PVTZ-JKFIT
	 Reference Energy          =    -667.2758997990312082 [Eh]
	 Singles Energy            =      -0.0000000000000000 [Eh]
	 Same-Spin Energy          =      -0.7355537727475361 [Eh]
	 Opposite-Spin Energy      =      -2.2656235281512944 [Eh]
	 Correlation Energy        =      -3.0011773008988305 [Eh]
	 Total Energy              =    -670.2770770999300112 [Eh]

	 ================> DF-SCS-MP2 Energies <==================
	-----------------------------------------------------------
	 SCS Same-Spin Scale       =       0.3333333333333333 [-]
	 SCS Opposite-Spin Scale   =       1.2000000000000000 [-]
	 SCS Same-Spin Energy      =      -0.2451845909158454 [Eh]
	 SCS Opposite-Spin Energy  =      -2.7187482337815534 [Eh]
	 SCS Correlation Energy    =      -2.9639328246973986 [Eh]
	 SCS Total Energy          =    -670.2398326237286028 [Eh]
	-----------------------------------------------------------

  Dipole Moment: [D]
     X:     0.3625      Y:    -1.8132      Z:    -0.1077     Total:     1.8523

*** Psi4 exiting successfully. Buy a developer a beer!
