                               Psi4 1.4a3.dev225

  ==> Input File <==

--------------------------------------------------------------------------
#psi4
#
memory 32 gb

molecule  {
0 1
  O       -0.5498120     2.2556960    -0.2996080
  N       -3.0129360     1.7813540     0.8248620
  C        1.0008190     0.4908720    -0.0872200
  C       -1.5329590     0.0859130    -0.1428360
  C       -0.3878030     1.0286420    -0.1846270
  C        3.6793340    -0.3535020     0.1683990
  C       -2.8127890     0.5150010     0.2964470
  C        1.3212360    -0.6095270     0.7211930
  C        2.0273690     1.1786660    -0.7492360
  C        2.6489240    -1.0168440     0.8468500
  C        3.3454510     0.7479200    -0.6334830
  C       -1.3791480    -1.2185740    -0.6492330
  C       -3.8612840    -0.4227650     0.3079770
  C       -2.4390410    -2.1168890    -0.6711390
  C        5.1038640    -0.8322750     0.2664150
  C       -3.6857840    -1.7096250    -0.1856360
  H        0.5383950    -1.1258400     1.2710410
  H        1.7737210     2.0503190    -1.3473030
  H        2.8902070    -1.8603380     1.4919100
  H        4.1335430     1.2826870    -1.1615780
  H       -0.4095800    -1.5185310    -1.0371660
  H       -4.8387790    -0.1097830     0.6721110
  H       -2.3031150    -3.1155080    -1.0770870
  H        5.8059070     0.0022690     0.1830070
  H        5.2850310    -1.3360150     1.2200590
  H        5.3367840    -1.5427250    -0.5345020
  H       -4.5250650    -2.4017370    -0.1822600
  H       -2.3845940     2.4838010     0.4485930
  H       -4.0016731     2.0800649     0.8533331
units angstrom
no_reorient  #important for SAPT in psi4, default
symmetry c1  #important for SAPT in psi4, default
}

set PROPERTIES_ORIGIN ["COM"]
properties('MP2/aug-cc-pvtz', properties = ['dipole'])
--------------------------------------------------------------------------

    Molecular point group: c1
  Charge       = 0
  Multiplicity = 1
  Basis Set: AUG-CC-PVTZ
    Blend: AUG-CC-PVTZ
  Basis Set: (AUG-CC-PVTZ AUX)
    Blend: AUG-CC-PVTZ-JKFIT

    Orbital Energies [Eh]
    ---------------------

    Doubly Occupied:

       1A    -20.538000     2A    -15.562021     3A    -11.338466
       4A    -11.296904     5A    -11.257323     6A    -11.252671
       7A    -11.252231     8A    -11.250572     9A    -11.246310
      10A    -11.243537    11A    -11.239107    12A    -11.239087
      13A    -11.237794    14A    -11.233219    15A    -11.231889
      16A    -11.228241    17A     -1.371054    18A     -1.224815
      19A     -1.165167    20A     -1.136416    21A     -1.069547
      22A     -1.034511    23A     -1.020585    24A     -0.995881
      25A     -0.954515    26A     -0.876925    27A     -0.838706
      28A     -0.836016    29A     -0.812804    30A     -0.766130
      31A     -0.712053    32A     -0.690863    33A     -0.684442
      34A     -0.661182    35A     -0.645060    36A     -0.636440
      37A     -0.613396    38A     -0.603630    39A     -0.599535
      40A     -0.592615    41A     -0.584391    42A     -0.583422
      43A     -0.555777    44A     -0.544624    45A     -0.531858
      46A     -0.517987    47A     -0.513143    48A     -0.504803
      49A     -0.493477    50A     -0.482011    51A     -0.452080
      52A     -0.418868    53A     -0.349697    54A     -0.343068
      55A     -0.333955    56A     -0.300203

  @DF-RHF Final Energy:  -667.27555683412572

   => Energetics <=

    Nuclear Repulsion Energy =            992.7614105379718694
    One-Electron Energy =               -2876.6758874796873897
    Two-Electron Energy =                1216.6389201075899109
    Total Energy =                       -667.2755568341256094
  Basis Set: (AUG-CC-PVTZ AUX)
    Blend: AUG-CC-PVTZ-RI
    Molecular point group: c1

    Geometry (in Angstrom), charge = 0, multiplicity = 1:

       Center              X                  Y                   Z               Mass
    ------------   -----------------  -----------------  -----------------  -----------------
         O           -0.515286216510     2.231646131571    -0.295871711722    15.994914619570
         N           -2.978410216510     1.757304131571     0.828598288278    14.003074004430
         C            1.035344783490     0.466822131571    -0.083483711722    12.000000000000
         C           -1.498433216510     0.061863131571    -0.139099711722    12.000000000000
         C           -0.353277216510     1.004592131571    -0.180890711722    12.000000000000
         C            3.713859783490    -0.377551868429     0.172135288278    12.000000000000
         C           -2.778263216510     0.490951131571     0.300183288278    12.000000000000
         C            1.355761783490    -0.633576868429     0.724929288278    12.000000000000
         C            2.061894783490     1.154616131571    -0.745499711722    12.000000000000
         C            2.683449783490    -1.040893868429     0.850586288278    12.000000000000
         C            3.379976783490     0.723870131571    -0.629746711722    12.000000000000
         C           -1.344622216510    -1.242623868429    -0.645496711722    12.000000000000
         C           -3.826758216510    -0.446814868429     0.311713288278    12.000000000000
         C           -2.404515216510    -2.140938868429    -0.667402711722    12.000000000000
         C            5.138389783490    -0.856324868429     0.270151288278    12.000000000000
         C           -3.651258216510    -1.733674868429    -0.181899711722    12.000000000000
         H            0.572920783490    -1.149889868429     1.274777288278     1.007825032230
         H            1.808246783490     2.026269131571    -1.343566711722     1.007825032230
         H            2.924732783490    -1.884387868429     1.495646288278     1.007825032230
         H            4.168068783490     1.258637131571    -1.157841711722     1.007825032230
         H           -0.375054216510    -1.542580868429    -1.033429711722     1.007825032230
         H           -4.804253216510    -0.133832868429     0.675847288278     1.007825032230
         H           -2.268589216510    -3.139557868429    -1.073350711722     1.007825032230
         H            5.840432783490    -0.021780868429     0.186743288278     1.007825032230
         H            5.319556783490    -1.360064868429     1.223795288278     1.007825032230
         H            5.371309783490    -1.566774868429    -0.530765711722     1.007825032230
         H           -4.490539216510    -2.425786868429    -0.178523711722     1.007825032230
         H           -2.350068216510     2.459751131571     0.452329288278     1.007825032230
         H           -3.967147316510     2.056015031571     0.857069388278     1.007825032230

  Basis Set: AUG-CC-PVTZ
    Blend: AUG-CC-PVTZ
  Basis Set: (AUG-CC-PVTZ AUX)
    Blend: AUG-CC-PVTZ-JKFIT
	 Reference Energy          =    -667.2755568341257231 [Eh]
	 Singles Energy            =      -0.0000000000000000 [Eh]
	 Same-Spin Energy          =      -0.7356490783009499 [Eh]
	 Opposite-Spin Energy      =      -2.2658729504638075 [Eh]
	 Correlation Energy        =      -3.0015220287647573 [Eh]
	 Total Energy              =    -670.2770788628904484 [Eh]

	 ================> DF-SCS-MP2 Energies <==================
	-----------------------------------------------------------
	 SCS Same-Spin Scale       =       0.3333333333333333 [-]
	 SCS Opposite-Spin Scale   =       1.2000000000000000 [-]
	 SCS Same-Spin Energy      =      -0.2452163594336500 [Eh]
	 SCS Opposite-Spin Energy  =      -2.7190475405565691 [Eh]
	 SCS Correlation Energy    =      -2.9642638999902191 [Eh]
	 SCS Total Energy          =    -670.2398207341159377 [Eh]
	-----------------------------------------------------------

  Dipole Moment: [D]
     X:     0.3409      Y:    -1.8091      Z:    -0.1037     Total:     1.8439

*** Psi4 exiting successfully. Buy a developer a beer!
