                               Psi4 1.4a3.dev225

  ==> Input File <==

--------------------------------------------------------------------------
#psi4
#
memory 32 gb

molecule  {
0 1
  O       -0.5498120     2.2556960    -0.2996080
  N       -3.0129360     1.7813540     0.8248620
  C        1.0008190     0.4908720    -0.0872200
  C       -1.5329590     0.0859130    -0.1428360
  C       -0.3878030     1.0286420    -0.1846270
  C        3.6793340    -0.3535020     0.1683990
  C       -2.8127890     0.5150010     0.2964470
  C        1.3212360    -0.6095270     0.7211930
  C        2.0273690     1.1786660    -0.7492360
  C        2.6489240    -1.0168440     0.8468500
  C        3.3454510     0.7479200    -0.6334830
  C       -1.3791480    -1.2185740    -0.6492330
  C       -3.8612840    -0.4227650     0.3079770
  C       -2.4390410    -2.1168890    -0.6711390
  C        5.1038640    -0.8322750     0.2664150
  C       -3.5074933    -1.7678658    -0.2550654
  H        0.5383950    -1.1258400     1.2710410
  H        1.7737210     2.0503190    -1.3473030
  H        2.8902070    -1.8603380     1.4919100
  H        4.1335430     1.2826870    -1.1615780
  H       -0.4095800    -1.5185310    -1.0371660
  H       -4.8387790    -0.1097830     0.6721110
  H       -2.3031150    -3.1155080    -1.0770870
  H        5.8059070     0.0022690     0.1830070
  H        5.2850310    -1.3360150     1.2200590
  H        5.3367840    -1.5427250    -0.5345020
  H       -4.5250650    -2.4017370    -0.1822600
  H       -2.3845940     2.4838010     0.4485930
  H       -3.9825350     2.0742830     0.8527820
units angstrom
no_reorient  #important for SAPT in psi4, default
symmetry c1  #important for SAPT in psi4, default
}

set PROPERTIES_ORIGIN ["COM"]
properties('MP2/aug-cc-pvtz', properties = ['dipole'])
--------------------------------------------------------------------------

    Molecular point group: c1
  Charge       = 0
  Multiplicity = 1
  Basis Set: AUG-CC-PVTZ
    Blend: AUG-CC-PVTZ
  Basis Set: (AUG-CC-PVTZ AUX)
    Blend: AUG-CC-PVTZ-JKFIT

    Orbital Energies [Eh]
    ---------------------

    Doubly Occupied:

       1A    -20.541203     2A    -15.553266     3A    -11.341731
       4A    -11.288505     5A    -11.260958     6A    -11.259051
       7A    -11.252478     8A    -11.248165     9A    -11.246196
      10A    -11.245641    11A    -11.243335    12A    -11.240763
      13A    -11.239487    14A    -11.234515    15A    -11.231112
      16A    -11.207573    17A     -1.373927    18A     -1.222616
      19A     -1.167862    20A     -1.158198    21A     -1.073909
      22A     -1.040525    23A     -1.022883    24A     -0.994802
      25A     -0.955933    26A     -0.882133    27A     -0.842717
      28A     -0.839678    29A     -0.802546    30A     -0.765843
      31A     -0.716566    32A     -0.688881    33A     -0.680569
      34A     -0.660073    35A     -0.648189    36A     -0.639581
      37A     -0.623571    38A     -0.602667    39A     -0.598787
      40A     -0.594579    41A     -0.587738    42A     -0.584928
      43A     -0.558028    44A     -0.545002    45A     -0.530036
      46A     -0.522267    47A     -0.511016    48A     -0.495241
      49A     -0.485765    50A     -0.477573    51A     -0.462500
      52A     -0.419361    53A     -0.349761    54A     -0.344715
      55A     -0.335552    56A     -0.304461

  @DF-RHF Final Energy:  -667.21366301493424

   => Energetics <=

    Nuclear Repulsion Energy =            995.3718071665612115
    One-Electron Energy =               -2881.6810371287692760
    Two-Electron Energy =                1219.0955669472739373
    Total Energy =                       -667.2136630149341272
  Basis Set: (AUG-CC-PVTZ AUX)
    Blend: AUG-CC-PVTZ-RI
    Molecular point group: c1

    Geometry (in Angstrom), charge = 0, multiplicity = 1:

       Center              X                  Y                   Z               Mass
    ------------   -----------------  -----------------  -----------------  -----------------
         O           -0.525512550857     2.234984443737    -0.291922354348    15.994914619570
         N           -2.988636550857     1.760642443737     0.832547645652    14.003074004430
         C            1.025118449143     0.470160443737    -0.079534354348    12.000000000000
         C           -1.508659550857     0.065201443737    -0.135150354348    12.000000000000
         C           -0.363503550857     1.007930443737    -0.176941354348    12.000000000000
         C            3.703633449143    -0.374213556263     0.176084645652    12.000000000000
         C           -2.788489550857     0.494289443737     0.304132645652    12.000000000000
         C            1.345535449143    -0.630238556263     0.728878645652    12.000000000000
         C            2.051668449143     1.157954443737    -0.741550354348    12.000000000000
         C            2.673223449143    -1.037555556263     0.854535645652    12.000000000000
         C            3.369750449143     0.727208443737    -0.625797354348    12.000000000000
         C           -1.354848550857    -1.239285556263    -0.641547354348    12.000000000000
         C           -3.836984550857    -0.443476556263     0.315662645652    12.000000000000
         C           -2.414741550857    -2.137600556263    -0.663453354348    12.000000000000
         C            5.128163449143    -0.852986556263     0.274100645652    12.000000000000
         C           -3.483193850857    -1.788577356263    -0.247379754348    12.000000000000
         H            0.562694449143    -1.146551556263     1.278726645652     1.007825032230
         H            1.798020449143     2.029607443737    -1.339617354348     1.007825032230
         H            2.914506449143    -1.881049556263     1.499595645652     1.007825032230
         H            4.157842449143     1.261975443737    -1.153892354348     1.007825032230
         H           -0.385280550857    -1.539242556263    -1.029480354348     1.007825032230
         H           -4.814479550857    -0.130494556263     0.679796645652     1.007825032230
         H           -2.278815550857    -3.136219556263    -1.069401354348     1.007825032230
         H            5.830206449143    -0.018442556263     0.190692645652     1.007825032230
         H            5.309330449143    -1.356726556263     1.227744645652     1.007825032230
         H            5.361083449143    -1.563436556263    -0.526816354348     1.007825032230
         H           -4.500765550857    -2.422448556263    -0.174574354348     1.007825032230
         H           -2.360294550857     2.463089443737     0.456278645652     1.007825032230
         H           -3.958235550857     2.053571443737     0.860467645652     1.007825032230

  Basis Set: AUG-CC-PVTZ
    Blend: AUG-CC-PVTZ
  Basis Set: (AUG-CC-PVTZ AUX)
    Blend: AUG-CC-PVTZ-JKFIT
	 Reference Energy          =    -667.2136630149342409 [Eh]
	 Singles Energy            =      -0.0000000000000000 [Eh]
	 Same-Spin Energy          =      -0.7353568071668276 [Eh]
	 Opposite-Spin Energy      =      -2.2671721151215349 [Eh]
	 Correlation Energy        =      -3.0025289222883624 [Eh]
	 Total Energy              =    -670.2161919372225611 [Eh]

	 ================> DF-SCS-MP2 Energies <==================
	-----------------------------------------------------------
	 SCS Same-Spin Scale       =       0.3333333333333333 [-]
	 SCS Opposite-Spin Scale   =       1.2000000000000000 [-]
	 SCS Same-Spin Energy      =      -0.2451189357222759 [Eh]
	 SCS Opposite-Spin Energy  =      -2.7206065381458417 [Eh]
	 SCS Correlation Energy    =      -2.9657254738681176 [Eh]
	 SCS Total Energy          =    -670.1793884888023740 [Eh]
	-----------------------------------------------------------

  Dipole Moment: [D]
     X:     0.6824      Y:    -1.8334      Z:    -0.1946     Total:     1.9659

*** Psi4 exiting successfully. Buy a developer a beer!
