                               Psi4 1.4a3.dev225

  ==> Input File <==

--------------------------------------------------------------------------
#psi4
#
memory 32 gb

molecule  {
0 1
  O       -0.5498120     2.2556960    -0.2996080
  N       -3.0129360     1.7813540     0.8248620
  C        1.0008190     0.4908720    -0.0872200
  C       -1.5329590     0.0859130    -0.1428360
  C       -0.3878030     1.0286420    -0.1846270
  C        3.6793340    -0.3535020     0.1683990
  C       -2.8127890     0.5150010     0.2964470
  C        1.3212360    -0.6095270     0.7211930
  C        2.0273690     1.1786660    -0.7492360
  C        2.6489240    -1.0168440     0.8468500
  C        3.3454510     0.7479200    -0.6334830
  C       -1.3791480    -1.2185740    -0.6492330
  C       -3.8612840    -0.4227650     0.3079770
  C       -2.4390410    -2.1168890    -0.6711390
  C        5.1038640    -0.8322750     0.2664150
  C       -3.6857840    -1.7096250    -0.1856360
  H        0.5383950    -1.1258400     1.2710410
  H        1.7737210     2.0503190    -1.3473030
  H        2.8902070    -1.8603380     1.4919100
  H        4.1335430     1.2826870    -1.1615780
  H       -0.4095800    -1.5185310    -1.0371660
  H       -4.8387790    -0.1097830     0.6721110
  H       -2.3031150    -3.1155080    -1.0770870
  H        5.8059070     0.0022690     0.1830070
  H        5.2850310    -1.3360150     1.2200590
  H        5.2942670    -1.4130400    -0.3883032
  H       -4.5250650    -2.4017370    -0.1822600
  H       -2.3845940     2.4838010     0.4485930
  H       -3.9825350     2.0742830     0.8527820
units angstrom
no_reorient  #important for SAPT in psi4, default
symmetry c1  #important for SAPT in psi4, default
}

set PROPERTIES_ORIGIN ["COM"]
properties('MP2/aug-cc-pvtz', properties = ['dipole'])
--------------------------------------------------------------------------

    Molecular point group: c1
  Charge       = 0
  Multiplicity = 1
  Basis Set: AUG-CC-PVTZ
    Blend: AUG-CC-PVTZ
  Basis Set: (AUG-CC-PVTZ AUX)
    Blend: AUG-CC-PVTZ-JKFIT

    Orbital Energies [Eh]
    ---------------------

    Doubly Occupied:

       1A    -20.537821     2A    -15.559912     3A    -11.338296
       4A    -11.296785     5A    -11.256327     6A    -11.252626
       7A    -11.252144     8A    -11.250291     9A    -11.246051
      10A    -11.243229    11A    -11.238988    12A    -11.238635
      13A    -11.237388    14A    -11.231862    15A    -11.228202
      16A    -11.208784    17A     -1.370887    18A     -1.226447
      19A     -1.165372    20A     -1.137050    21A     -1.073848
      22A     -1.036764    23A     -1.020393    24A     -0.996683
      25A     -0.969981    26A     -0.879872    27A     -0.838795
      28A     -0.838439    29A     -0.814438    30A     -0.766220
      31A     -0.712933    32A     -0.692924    33A     -0.686239
      34A     -0.662693    35A     -0.645989    36A     -0.636659
      37A     -0.621413    38A     -0.613189    39A     -0.602796
      40A     -0.598309    41A     -0.592149    42A     -0.584049
      43A     -0.555321    44A     -0.543900    45A     -0.531700
      46A     -0.517828    47A     -0.513738    48A     -0.506056
      49A     -0.493137    50A     -0.483444    51A     -0.452185
      52A     -0.418730    53A     -0.349589    54A     -0.342813
      55A     -0.335010    56A     -0.300260

  @DF-RHF Final Energy:  -667.24305170523758

   => Energetics <=

    Nuclear Repulsion Energy =            993.8892674453769587
    One-Electron Energy =               -2878.7734662912162094
    Two-Electron Energy =                1217.6411471406017881
    Total Energy =                       -667.2430517052375762
  Basis Set: (AUG-CC-PVTZ AUX)
    Blend: AUG-CC-PVTZ-RI
    Molecular point group: c1

    Geometry (in Angstrom), charge = 0, multiplicity = 1:

       Center              X                  Y                   Z               Mass
    ------------   -----------------  -----------------  -----------------  -----------------
         O           -0.515174601766     2.231054597630    -0.296567057989    15.994914619570
         N           -2.978298601766     1.756712597630     0.827902942011    14.003074004430
         C            1.035456398234     0.466230597630    -0.084179057989    12.000000000000
         C           -1.498321601766     0.061271597630    -0.139795057989    12.000000000000
         C           -0.353165601766     1.004000597630    -0.181586057989    12.000000000000
         C            3.713971398234    -0.378143402370     0.171439942011    12.000000000000
         C           -2.778151601766     0.490359597630     0.299487942011    12.000000000000
         C            1.355873398234    -0.634168402370     0.724233942011    12.000000000000
         C            2.062006398234     1.154024597630    -0.746195057989    12.000000000000
         C            2.683561398234    -1.041485402370     0.849890942011    12.000000000000
         C            3.380088398234     0.723278597630    -0.630442057989    12.000000000000
         C           -1.344510601766    -1.243215402370    -0.646192057989    12.000000000000
         C           -3.826646601766    -0.447406402370     0.311017942011    12.000000000000
         C           -2.404403601766    -2.141530402370    -0.668098057989    12.000000000000
         C            5.138501398234    -0.856916402370     0.269455942011    12.000000000000
         C           -3.651146601766    -1.734266402370    -0.182595057989    12.000000000000
         H            0.573032398234    -1.150481402370     1.274081942011     1.007825032230
         H            1.808358398234     2.025677597630    -1.344262057989     1.007825032230
         H            2.924844398234    -1.884979402370     1.494950942011     1.007825032230
         H            4.168180398234     1.258045597630    -1.158537057989     1.007825032230
         H           -0.374942601766    -1.543172402370    -1.034125057989     1.007825032230
         H           -4.804141601766    -0.134424402370     0.675151942011     1.007825032230
         H           -2.268477601766    -3.140149402370    -1.074046057989     1.007825032230
         H            5.840544398234    -0.022372402370     0.186047942011     1.007825032230
         H            5.319668398234    -1.360656402370     1.223099942011     1.007825032230
         H            5.328904398234    -1.437681402370    -0.385262257989     1.007825032230
         H           -4.490427601766    -2.426378402370    -0.179219057989     1.007825032230
         H           -2.349956601766     2.459159597630     0.451633942011     1.007825032230
         H           -3.947897601766     2.049641597630     0.855822942011     1.007825032230

  Basis Set: AUG-CC-PVTZ
    Blend: AUG-CC-PVTZ
  Basis Set: (AUG-CC-PVTZ AUX)
    Blend: AUG-CC-PVTZ-JKFIT
	 Reference Energy          =    -667.2430517052375762 [Eh]
	 Singles Energy            =      -0.0000000000000000 [Eh]
	 Same-Spin Energy          =      -0.7356283607315600 [Eh]
	 Opposite-Spin Energy      =      -2.2649110185946015 [Eh]
	 Correlation Energy        =      -3.0005393793261614 [Eh]
	 Total Energy              =    -670.2435910845637181 [Eh]

	 ================> DF-SCS-MP2 Energies <==================
	-----------------------------------------------------------
	 SCS Same-Spin Scale       =       0.3333333333333333 [-]
	 SCS Opposite-Spin Scale   =       1.2000000000000000 [-]
	 SCS Same-Spin Energy      =      -0.2452094535771867 [Eh]
	 SCS Opposite-Spin Energy  =      -2.7178932223135219 [Eh]
	 SCS Correlation Energy    =      -2.9631026758907084 [Eh]
	 SCS Total Energy          =    -670.2061543811282718 [Eh]
	-----------------------------------------------------------

  Dipole Moment: [D]
     X:     0.3932      Y:    -1.8486      Z:    -0.1318     Total:     1.8946

*** Psi4 exiting successfully. Buy a developer a beer!
