                               Psi4 1.4a3.dev225

  ==> Input File <==

--------------------------------------------------------------------------
#psi4
#
memory 32 gb

molecule  {
0 1
  O       -0.5498120     2.2556960    -0.2996080
  N       -3.0129360     1.7813540     0.8248620
  C        1.0008190     0.4908720    -0.0872200
  C       -1.4382493     0.1015328    -0.1638391
  C       -0.3878030     1.0286420    -0.1846270
  C        3.6793340    -0.3535020     0.1683990
  C       -2.8127890     0.5150010     0.2964470
  C        1.3212360    -0.6095270     0.7211930
  C        2.0273690     1.1786660    -0.7492360
  C        2.6489240    -1.0168440     0.8468500
  C        3.3454510     0.7479200    -0.6334830
  C       -1.3791480    -1.2185740    -0.6492330
  C       -3.8612840    -0.4227650     0.3079770
  C       -2.4390410    -2.1168890    -0.6711390
  C        5.1038640    -0.8322750     0.2664150
  C       -3.6857840    -1.7096250    -0.1856360
  H        0.5383950    -1.1258400     1.2710410
  H        1.7737210     2.0503190    -1.3473030
  H        2.8902070    -1.8603380     1.4919100
  H        4.1335430     1.2826870    -1.1615780
  H       -0.4095800    -1.5185310    -1.0371660
  H       -4.8387790    -0.1097830     0.6721110
  H       -2.3031150    -3.1155080    -1.0770870
  H        5.8059070     0.0022690     0.1830070
  H        5.2850310    -1.3360150     1.2200590
  H        5.3367840    -1.5427250    -0.5345020
  H       -4.5250650    -2.4017370    -0.1822600
  H       -2.3845940     2.4838010     0.4485930
  H       -3.9825350     2.0742830     0.8527820
units angstrom
no_reorient  #important for SAPT in psi4, default
symmetry c1  #important for SAPT in psi4, default
}

set PROPERTIES_ORIGIN ["COM"]
properties('MP2/aug-cc-pvtz', properties = ['dipole'])
--------------------------------------------------------------------------

    Molecular point group: c1
  Charge       = 0
  Multiplicity = 1
  Basis Set: AUG-CC-PVTZ
    Blend: AUG-CC-PVTZ
  Basis Set: (AUG-CC-PVTZ AUX)
    Blend: AUG-CC-PVTZ-JKFIT

    Orbital Energies [Eh]
    ---------------------

    Doubly Occupied:

       1A    -20.532227     2A    -15.565074     3A    -11.329904
       4A    -11.310617     5A    -11.259574     6A    -11.257853
       7A    -11.255252     8A    -11.248313     9A    -11.243609
      10A    -11.240530    11A    -11.240015    12A    -11.237319
      13A    -11.235931    14A    -11.232424    15A    -11.231846
      16A    -11.229151    17A     -1.368443    18A     -1.226574
      19A     -1.163648    20A     -1.137133    21A     -1.072831
      22A     -1.038713    23A     -1.018897    24A     -0.995525
      25A     -0.951981    26A     -0.888420    27A     -0.836345
      28A     -0.830168    29A     -0.813803    30A     -0.767307
      31A     -0.712868    32A     -0.698540    33A     -0.688853
      34A     -0.660862    35A     -0.643774    36A     -0.635607
      37A     -0.612237    38A     -0.605438    39A     -0.599863
      40A     -0.590478    41A     -0.582799    42A     -0.582311
      43A     -0.554892    44A     -0.543593    45A     -0.537082
      46A     -0.515779    47A     -0.511322    48A     -0.495891
      49A     -0.491515    50A     -0.479592    51A     -0.454786
      52A     -0.420531    53A     -0.352995    54A     -0.341636
      55A     -0.331987    56A     -0.297302

  @DF-RHF Final Energy:  -667.26401721764887

   => Energetics <=

    Nuclear Repulsion Energy =            993.1181769139046764
    One-Electron Energy =               -2877.3604646505809797
    Two-Electron Energy =                1216.9782705190273191
    Total Energy =                       -667.2640172176488704
  Basis Set: (AUG-CC-PVTZ AUX)
    Blend: AUG-CC-PVTZ-RI
    Molecular point group: c1

    Geometry (in Angstrom), charge = 0, multiplicity = 1:

       Center              X                  Y                   Z               Mass
    ------------   -----------------  -----------------  -----------------  -----------------
         O           -0.520761374359     2.230785825070    -0.294675155803    15.994914619570
         N           -2.983885374359     1.756443825070     0.829794844197    14.003074004430
         C            1.029869625641     0.465961825070    -0.082287155803    12.000000000000
         C           -1.409198674359     0.076622625070    -0.158906255803    12.000000000000
         C           -0.358752374359     1.003731825070    -0.179694155803    12.000000000000
         C            3.708384625641    -0.378412174930     0.173331844197    12.000000000000
         C           -2.783738374359     0.490090825070     0.301379844197    12.000000000000
         C            1.350286625641    -0.634437174930     0.726125844197    12.000000000000
         C            2.056419625641     1.153755825070    -0.744303155803    12.000000000000
         C            2.677974625641    -1.041754174930     0.851782844197    12.000000000000
         C            3.374501625641     0.723009825070    -0.628550155803    12.000000000000
         C           -1.350097374359    -1.243484174930    -0.644300155803    12.000000000000
         C           -3.832233374359    -0.447675174930     0.312909844197    12.000000000000
         C           -2.409990374359    -2.141799174930    -0.666206155803    12.000000000000
         C            5.132914625641    -0.857185174930     0.271347844197    12.000000000000
         C           -3.656733374359    -1.734535174930    -0.180703155803    12.000000000000
         H            0.567445625641    -1.150750174930     1.275973844197     1.007825032230
         H            1.802771625641     2.025408825070    -1.342370155803     1.007825032230
         H            2.919257625641    -1.885248174930     1.496842844197     1.007825032230
         H            4.162593625641     1.257776825070    -1.156645155803     1.007825032230
         H           -0.380529374359    -1.543441174930    -1.032233155803     1.007825032230
         H           -4.809728374359    -0.134693174930     0.677043844197     1.007825032230
         H           -2.274064374359    -3.140418174930    -1.072154155803     1.007825032230
         H            5.834957625641    -0.022641174930     0.187939844197     1.007825032230
         H            5.314081625641    -1.360925174930     1.224991844197     1.007825032230
         H            5.365834625641    -1.567635174930    -0.529569155803     1.007825032230
         H           -4.496014374359    -2.426647174930    -0.177327155803     1.007825032230
         H           -2.355543374359     2.458890825070     0.453525844197     1.007825032230
         H           -3.953484374359     2.049372825070     0.857714844197     1.007825032230

  Basis Set: AUG-CC-PVTZ
    Blend: AUG-CC-PVTZ
  Basis Set: (AUG-CC-PVTZ AUX)
    Blend: AUG-CC-PVTZ-JKFIT
	 Reference Energy          =    -667.2640172176488704 [Eh]
	 Singles Energy            =      -0.0000000000000000 [Eh]
	 Same-Spin Energy          =      -0.7363570331053010 [Eh]
	 Opposite-Spin Energy      =      -2.2668017177793840 [Eh]
	 Correlation Energy        =      -3.0031587508846851 [Eh]
	 Total Energy              =    -670.2671759685335928 [Eh]

	 ================> DF-SCS-MP2 Energies <==================
	-----------------------------------------------------------
	 SCS Same-Spin Scale       =       0.3333333333333333 [-]
	 SCS Opposite-Spin Scale   =       1.2000000000000000 [-]
	 SCS Same-Spin Energy      =      -0.2454523443684337 [Eh]
	 SCS Opposite-Spin Energy  =      -2.7201620613352606 [Eh]
	 SCS Correlation Energy    =      -2.9656144057036942 [Eh]
	 SCS Total Energy          =    -670.2296316233525886 [Eh]
	-----------------------------------------------------------

  Dipole Moment: [D]
     X:    -0.0315      Y:    -1.8815      Z:    -0.0459     Total:     1.8823

*** Psi4 exiting successfully. Buy a developer a beer!
