                               Psi4 1.4a3.dev225

  ==> Input File <==

--------------------------------------------------------------------------
#psi4
#
memory 32 gb

molecule  {
0 1
  O       -0.5498120     2.2556960    -0.2996080
  N       -3.0129360     1.7813540     0.8248620
  C        1.0008190     0.4908720    -0.0872200
  C       -1.5329590     0.0859130    -0.1428360
  C       -0.3878030     1.0286420    -0.1846270
  C        3.6793340    -0.3535020     0.1683990
  C       -2.8127890     0.5150010     0.2964470
  C        1.3669274    -0.7664438     0.8364727
  C        2.0273690     1.1786660    -0.7492360
  C        2.6489240    -1.0168440     0.8468500
  C        3.3454510     0.7479200    -0.6334830
  C       -1.3791480    -1.2185740    -0.6492330
  C       -3.8612840    -0.4227650     0.3079770
  C       -2.4390410    -2.1168890    -0.6711390
  C        5.1038640    -0.8322750     0.2664150
  C       -3.6857840    -1.7096250    -0.1856360
  H        0.5383950    -1.1258400     1.2710410
  H        1.7737210     2.0503190    -1.3473030
  H        2.8902070    -1.8603380     1.4919100
  H        4.1335430     1.2826870    -1.1615780
  H       -0.4095800    -1.5185310    -1.0371660
  H       -4.8387790    -0.1097830     0.6721110
  H       -2.3031150    -3.1155080    -1.0770870
  H        5.8059070     0.0022690     0.1830070
  H        5.2850310    -1.3360150     1.2200590
  H        5.3367840    -1.5427250    -0.5345020
  H       -4.5250650    -2.4017370    -0.1822600
  H       -2.3845940     2.4838010     0.4485930
  H       -3.9825350     2.0742830     0.8527820
units angstrom
no_reorient  #important for SAPT in psi4, default
symmetry c1  #important for SAPT in psi4, default
}

set PROPERTIES_ORIGIN ["COM"]
properties('MP2/aug-cc-pvtz', properties = ['dipole'])
--------------------------------------------------------------------------

    Molecular point group: c1
  Charge       = 0
  Multiplicity = 1
  Basis Set: AUG-CC-PVTZ
    Blend: AUG-CC-PVTZ
  Basis Set: (AUG-CC-PVTZ AUX)
    Blend: AUG-CC-PVTZ-JKFIT

    Orbital Energies [Eh]
    ---------------------

    Doubly Occupied:

       1A    -20.534974     2A    -15.559287     3A    -11.336415
       4A    -11.296223     5A    -11.260587     6A    -11.254795
       7A    -11.252458     8A    -11.252244     9A    -11.251698
      10A    -11.247434    11A    -11.240016    12A    -11.238521
      13A    -11.234950    14A    -11.234173    15A    -11.231672
      16A    -11.228100    17A     -1.368222    18A     -1.225869
      19A     -1.160112    20A     -1.136737    21A     -1.058818
      22A     -1.040205    23A     -1.030485    24A     -0.996133
      25A     -0.951626    26A     -0.876874    27A     -0.843462
      28A     -0.836648    29A     -0.810319    30A     -0.760299
      31A     -0.710707    32A     -0.696194    33A     -0.685454
      34A     -0.679160    35A     -0.643872    36A     -0.640818
      37A     -0.613416    38A     -0.601956    39A     -0.601506
      40A     -0.591187    41A     -0.585527    42A     -0.578070
      43A     -0.553668    44A     -0.543800    45A     -0.532058
      46A     -0.525807    47A     -0.512992    48A     -0.504692
      49A     -0.481360    50A     -0.465839    51A     -0.452211
      52A     -0.414330    53A     -0.362954    54A     -0.348231
      55A     -0.317761    56A     -0.299362

  @DF-RHF Final Energy:  -667.23436735823702

   => Energetics <=

    Nuclear Repulsion Energy =            990.1310730679131211
    One-Electron Energy =               -2871.3463071431415301
    Two-Electron Energy =                1213.9808667169913861
    Total Energy =                       -667.2343673582370229
  Basis Set: (AUG-CC-PVTZ AUX)
    Blend: AUG-CC-PVTZ-RI
    Molecular point group: c1

    Geometry (in Angstrom), charge = 0, multiplicity = 1:

       Center              X                  Y                   Z               Mass
    ------------   -----------------  -----------------  -----------------  -----------------
         O           -0.517974920561     2.240593698138    -0.302422175298    15.994914619570
         N           -2.981098920561     1.766251698138     0.822047824702    14.003074004430
         C            1.032656079439     0.475769698138    -0.090034175298    12.000000000000
         C           -1.501121920561     0.070810698138    -0.145650175298    12.000000000000
         C           -0.355965920561     1.013539698138    -0.187441175298    12.000000000000
         C            3.711171079439    -0.368604301862     0.165584824702    12.000000000000
         C           -2.780951920561     0.499898698138     0.293632824702    12.000000000000
         C            1.398764479439    -0.781546101862     0.833658524702    12.000000000000
         C            2.059206079439     1.163563698138    -0.752050175298    12.000000000000
         C            2.680761079439    -1.031946301862     0.844035824702    12.000000000000
         C            3.377288079439     0.732817698138    -0.636297175298    12.000000000000
         C           -1.347310920561    -1.233676301862    -0.652047175298    12.000000000000
         C           -3.829446920561    -0.437867301862     0.305162824702    12.000000000000
         C           -2.407203920561    -2.131991301862    -0.673953175298    12.000000000000
         C            5.135701079439    -0.847377301862     0.263600824702    12.000000000000
         C           -3.653946920561    -1.724727301862    -0.188450175298    12.000000000000
         H            0.570232079439    -1.140942301862     1.268226824702     1.007825032230
         H            1.805558079439     2.035216698138    -1.350117175298     1.007825032230
         H            2.922044079439    -1.875440301862     1.489095824702     1.007825032230
         H            4.165380079439     1.267584698138    -1.164392175298     1.007825032230
         H           -0.377742920561    -1.533633301862    -1.039980175298     1.007825032230
         H           -4.806941920561    -0.124885301862     0.669296824702     1.007825032230
         H           -2.271277920561    -3.130610301862    -1.079901175298     1.007825032230
         H            5.837744079439    -0.012833301862     0.180192824702     1.007825032230
         H            5.316868079439    -1.351117301862     1.217244824702     1.007825032230
         H            5.368621079439    -1.557827301862    -0.537316175298     1.007825032230
         H           -4.493227920561    -2.416839301862    -0.185074175298     1.007825032230
         H           -2.352756920561     2.468698698138     0.445778824702     1.007825032230
         H           -3.950697920561     2.059180698138     0.849967824702     1.007825032230

  Basis Set: AUG-CC-PVTZ
    Blend: AUG-CC-PVTZ
  Basis Set: (AUG-CC-PVTZ AUX)
    Blend: AUG-CC-PVTZ-JKFIT
	 Reference Energy          =    -667.2343673582370229 [Eh]
	 Singles Energy            =      -0.0000000000000000 [Eh]
	 Same-Spin Energy          =      -0.7356535025001811 [Eh]
	 Opposite-Spin Energy      =      -2.2686210379351253 [Eh]
	 Correlation Energy        =      -3.0042745404353064 [Eh]
	 Total Energy              =    -670.2386418986723129 [Eh]

	 ================> DF-SCS-MP2 Energies <==================
	-----------------------------------------------------------
	 SCS Same-Spin Scale       =       0.3333333333333333 [-]
	 SCS Opposite-Spin Scale   =       1.2000000000000000 [-]
	 SCS Same-Spin Energy      =      -0.2452178341667270 [Eh]
	 SCS Opposite-Spin Energy  =      -2.7223452455221504 [Eh]
	 SCS Correlation Energy    =      -2.9675630796888774 [Eh]
	 SCS Total Energy          =    -670.2019304379258529 [Eh]
	-----------------------------------------------------------

  Dipole Moment: [D]
     X:     0.4500      Y:    -1.8008      Z:    -0.1213     Total:     1.8601

*** Psi4 exiting successfully. Buy a developer a beer!
