                               Psi4 1.4a3.dev225

  ==> Input File <==

--------------------------------------------------------------------------
#psi4
#
memory 32 gb

molecule  {
0 1
  O       -0.5498120     2.2556960    -0.2996080
  N       -3.0584241     1.7687630     0.8355901
  C        1.0008190     0.4908720    -0.0872200
  C       -1.5329590     0.0859130    -0.1428360
  C       -0.3878030     1.0286420    -0.1846270
  C        3.6793340    -0.3535020     0.1683990
  C       -2.8127890     0.5150010     0.2964470
  C        1.3212360    -0.6095270     0.7211930
  C        2.0273690     1.1786660    -0.7492360
  C        2.6489240    -1.0168440     0.8468500
  C        3.3454510     0.7479200    -0.6334830
  C       -1.3791480    -1.2185740    -0.6492330
  C       -3.8612840    -0.4227650     0.3079770
  C       -2.4390410    -2.1168890    -0.6711390
  C        5.1038640    -0.8322750     0.2664150
  C       -3.6857840    -1.7096250    -0.1856360
  H        0.5383950    -1.1258400     1.2710410
  H        1.7737210     2.0503190    -1.3473030
  H        2.8902070    -1.8603380     1.4919100
  H        4.1335430     1.2826870    -1.1615780
  H       -0.4095800    -1.5185310    -1.0371660
  H       -4.8387790    -0.1097830     0.6721110
  H       -2.3031150    -3.1155080    -1.0770870
  H        5.8059070     0.0022690     0.1830070
  H        5.2850310    -1.3360150     1.2200590
  H        5.3367840    -1.5427250    -0.5345020
  H       -4.5250650    -2.4017370    -0.1822600
  H       -2.3845940     2.4838010     0.4485930
  H       -3.9825350     2.0742830     0.8527820
units angstrom
no_reorient  #important for SAPT in psi4, default
symmetry c1  #important for SAPT in psi4, default
}

set PROPERTIES_ORIGIN ["COM"]
properties('MP2/aug-cc-pvtz', properties = ['dipole'])
--------------------------------------------------------------------------

    Molecular point group: c1
  Charge       = 0
  Multiplicity = 1
  Basis Set: AUG-CC-PVTZ
    Blend: AUG-CC-PVTZ
  Basis Set: (AUG-CC-PVTZ AUX)
    Blend: AUG-CC-PVTZ-JKFIT

    Orbital Energies [Eh]
    ---------------------

    Doubly Occupied:

       1A    -20.538757     2A    -15.559093     3A    -11.339109
       4A    -11.297064     5A    -11.257595     6A    -11.252486
       7A    -11.252065     8A    -11.250870     9A    -11.246614
      10A    -11.243824    11A    -11.240070    12A    -11.239326
      13A    -11.238037    14A    -11.233405    15A    -11.230839
      16A    -11.228198    17A     -1.371597    18A     -1.226947
      19A     -1.165456    20A     -1.137227    21A     -1.069754
      22A     -1.034721    23A     -1.020845    24A     -0.996412
      25A     -0.954967    26A     -0.876789    27A     -0.839447
      28A     -0.837350    29A     -0.813143    30A     -0.765462
      31A     -0.715582    32A     -0.696505    33A     -0.680354
      34A     -0.661036    35A     -0.646069    36A     -0.635832
      37A     -0.618088    38A     -0.601316    39A     -0.598903
      40A     -0.592944    41A     -0.584336    42A     -0.582961
      43A     -0.555764    44A     -0.544617    45A     -0.531143
      46A     -0.518216    47A     -0.513604    48A     -0.505548
      49A     -0.493744    50A     -0.482486    51A     -0.452000
      52A     -0.418855    53A     -0.349735    54A     -0.343320
      55A     -0.334263    56A     -0.300003

  @DF-RHF Final Energy:  -667.27327911364750

   => Energetics <=

    Nuclear Repulsion Energy =            992.4299893920671138
    One-Electron Energy =               -2875.9771491833371329
    Two-Electron Energy =                1216.2738806776226284
    Total Energy =                       -667.2732791136475043
  Basis Set: (AUG-CC-PVTZ AUX)
    Blend: AUG-CC-PVTZ-RI
    Molecular point group: c1

    Geometry (in Angstrom), charge = 0, multiplicity = 1:

       Center              X                  Y                   Z               Mass
    ------------   -----------------  -----------------  -----------------  -----------------
         O           -0.512360180456     2.232508945854    -0.296580717732    15.994914619570
         N           -3.020972280456     1.745575945854     0.838617382268    14.003074004430
         C            1.038270819544     0.467684945854    -0.084192717732    12.000000000000
         C           -1.495507180456     0.062725945854    -0.139808717732    12.000000000000
         C           -0.350351180456     1.005454945854    -0.181599717732    12.000000000000
         C            3.716785819544    -0.376689054146     0.171426282268    12.000000000000
         C           -2.775337180456     0.491813945854     0.299474282268    12.000000000000
         C            1.358687819544    -0.632714054146     0.724220282268    12.000000000000
         C            2.064820819544     1.155478945854    -0.746208717732    12.000000000000
         C            2.686375819544    -1.040031054146     0.849877282268    12.000000000000
         C            3.382902819544     0.724732945854    -0.630455717732    12.000000000000
         C           -1.341696180456    -1.241761054146    -0.646205717732    12.000000000000
         C           -3.823832180456    -0.445952054146     0.311004282268    12.000000000000
         C           -2.401589180456    -2.140076054146    -0.668111717732    12.000000000000
         C            5.141315819544    -0.855462054146     0.269442282268    12.000000000000
         C           -3.648332180456    -1.732812054146    -0.182608717732    12.000000000000
         H            0.575846819544    -1.149027054146     1.274068282268     1.007825032230
         H            1.811172819544     2.027131945854    -1.344275717732     1.007825032230
         H            2.927658819544    -1.883525054146     1.494937282268     1.007825032230
         H            4.170994819544     1.259499945854    -1.158550717732     1.007825032230
         H           -0.372128180456    -1.541718054146    -1.034138717732     1.007825032230
         H           -4.801327180456    -0.132970054146     0.675138282268     1.007825032230
         H           -2.265663180456    -3.138695054146    -1.074059717732     1.007825032230
         H            5.843358819544    -0.020918054146     0.186034282268     1.007825032230
         H            5.322482819544    -1.359202054146     1.223086282268     1.007825032230
         H            5.374235819544    -1.565912054146    -0.531474717732     1.007825032230
         H           -4.487613180456    -2.424924054146    -0.179232717732     1.007825032230
         H           -2.347142180456     2.460613945854     0.451620282268     1.007825032230
         H           -3.945083180456     2.051095945854     0.855809282268     1.007825032230

  Basis Set: AUG-CC-PVTZ
    Blend: AUG-CC-PVTZ
  Basis Set: (AUG-CC-PVTZ AUX)
    Blend: AUG-CC-PVTZ-JKFIT
	 Reference Energy          =    -667.2732791136475043 [Eh]
	 Singles Energy            =      -0.0000000000000000 [Eh]
	 Same-Spin Energy          =      -0.7355693360740966 [Eh]
	 Opposite-Spin Energy      =      -2.2655991203472312 [Eh]
	 Correlation Energy        =      -3.0011684564213277 [Eh]
	 Total Energy              =    -670.2744475700687872 [Eh]

	 ================> DF-SCS-MP2 Energies <==================
	-----------------------------------------------------------
	 SCS Same-Spin Scale       =       0.3333333333333333 [-]
	 SCS Opposite-Spin Scale   =       1.2000000000000000 [-]
	 SCS Same-Spin Energy      =      -0.2451897786913655 [Eh]
	 SCS Opposite-Spin Energy  =      -2.7187189444166773 [Eh]
	 SCS Correlation Energy    =      -2.9639087231080428 [Eh]
	 SCS Total Energy          =    -670.2371878367555382 [Eh]
	-----------------------------------------------------------

  Dipole Moment: [D]
     X:     0.4182      Y:    -1.8073      Z:    -0.1210     Total:     1.8590

*** Psi4 exiting successfully. Buy a developer a beer!
