                               Psi4 1.4a3.dev225

  ==> Input File <==

--------------------------------------------------------------------------
#psi4
#
memory 32 gb

molecule  {
0 1
  O       -0.5498120     2.2556960    -0.2996080
  N       -3.0129360     1.7813540     0.8248620
  C        1.0008190     0.4908720    -0.0872200
  C       -1.5329590     0.0859130    -0.1428360
  C       -0.3878030     1.0286420    -0.1846270
  C        3.6793340    -0.3535020     0.1683990
  C       -2.8127890     0.5150010     0.2964470
  C        1.3212360    -0.6095270     0.7211930
  C        2.0273690     1.1786660    -0.7492360
  C        2.7161193    -1.0791420     0.8809487
  C        3.3454510     0.7479200    -0.6334830
  C       -1.3791480    -1.2185740    -0.6492330
  C       -3.8612840    -0.4227650     0.3079770
  C       -2.4390410    -2.1168890    -0.6711390
  C        5.1038640    -0.8322750     0.2664150
  C       -3.6857840    -1.7096250    -0.1856360
  H        0.5383950    -1.1258400     1.2710410
  H        1.7737210     2.0503190    -1.3473030
  H        2.8902070    -1.8603380     1.4919100
  H        4.1335430     1.2826870    -1.1615780
  H       -0.4095800    -1.5185310    -1.0371660
  H       -4.8387790    -0.1097830     0.6721110
  H       -2.3031150    -3.1155080    -1.0770870
  H        5.8059070     0.0022690     0.1830070
  H        5.2850310    -1.3360150     1.2200590
  H        5.3367840    -1.5427250    -0.5345020
  H       -4.5250650    -2.4017370    -0.1822600
  H       -2.3845940     2.4838010     0.4485930
  H       -3.9825350     2.0742830     0.8527820
units angstrom
no_reorient  #important for SAPT in psi4, default
symmetry c1  #important for SAPT in psi4, default
}

set PROPERTIES_ORIGIN ["COM"]
properties('MP2/aug-cc-pvtz', properties = ['dipole'])
--------------------------------------------------------------------------

    Molecular point group: c1
  Charge       = 0
  Multiplicity = 1
  Basis Set: AUG-CC-PVTZ
    Blend: AUG-CC-PVTZ
  Basis Set: (AUG-CC-PVTZ AUX)
    Blend: AUG-CC-PVTZ-JKFIT

    Orbital Energies [Eh]
    ---------------------

    Doubly Occupied:

       1A    -20.538670     2A    -15.560181     3A    -11.339433
       4A    -11.297033     5A    -11.260688     6A    -11.258241
       7A    -11.252819     8A    -11.252237     9A    -11.248065
      10A    -11.244671    11A    -11.241069    12A    -11.239281
      13A    -11.238430    14A    -11.232021    15A    -11.230180
      16A    -11.228294    17A     -1.371771    18A     -1.226709
      19A     -1.159364    20A     -1.136991    21A     -1.070690
      22A     -1.035535    23A     -1.013431    24A     -0.996516
      25A     -0.951424    26A     -0.876291    27A     -0.845817
      28A     -0.834898    29A     -0.812796    30A     -0.768853
      31A     -0.713826    32A     -0.691476    33A     -0.686780
      34A     -0.657257    35A     -0.650226    36A     -0.641066
      37A     -0.613921    38A     -0.605930    39A     -0.603079
      40A     -0.593253    41A     -0.584824    42A     -0.582417
      43A     -0.556314    44A     -0.543048    45A     -0.531686
      46A     -0.515970    47A     -0.508554    48A     -0.507069
      49A     -0.494612    50A     -0.478653    51A     -0.452245
      52A     -0.418880    53A     -0.349124    54A     -0.337452
      55A     -0.335772    56A     -0.300456

  @DF-RHF Final Energy:  -667.26350888850754

   => Energetics <=

    Nuclear Repulsion Energy =            991.1910034863744841
    One-Electron Energy =               -2873.4764420473343307
    Two-Electron Energy =                1215.0219296724524156
    Total Energy =                       -667.2635088885074310
  Basis Set: (AUG-CC-PVTZ AUX)
    Blend: AUG-CC-PVTZ-RI
    Molecular point group: c1

    Geometry (in Angstrom), charge = 0, multiplicity = 1:

       Center              X                  Y                   Z               Mass
    ------------   -----------------  -----------------  -----------------  -----------------
         O           -0.519197313501     2.235215075977    -0.297807427218    15.994914619570
         N           -2.982321313501     1.760873075977     0.826662572782    14.003074004430
         C            1.031433686499     0.470391075977    -0.085419427218    12.000000000000
         C           -1.502344313501     0.065432075977    -0.141035427218    12.000000000000
         C           -0.357188313501     1.008161075977    -0.182826427218    12.000000000000
         C            3.709948686499    -0.373982924023     0.170199572782    12.000000000000
         C           -2.782174313501     0.494520075977     0.298247572782    12.000000000000
         C            1.351850686499    -0.630007924023     0.722993572782    12.000000000000
         C            2.057983686499     1.158185075977    -0.747435427218    12.000000000000
         C            2.746733986499    -1.099622924023     0.882749272782    12.000000000000
         C            3.376065686499     0.727439075977    -0.631682427218    12.000000000000
         C           -1.348533313501    -1.239054924023    -0.647432427218    12.000000000000
         C           -3.830669313501    -0.443245924023     0.309777572782    12.000000000000
         C           -2.408426313501    -2.137369924023    -0.669338427218    12.000000000000
         C            5.134478686499    -0.852755924023     0.268215572782    12.000000000000
         C           -3.655169313501    -1.730105924023    -0.183835427218    12.000000000000
         H            0.569009686499    -1.146320924023     1.272841572782     1.007825032230
         H            1.804335686499     2.029838075977    -1.345502427218     1.007825032230
         H            2.920821686499    -1.880818924023     1.493710572782     1.007825032230
         H            4.164157686499     1.262206075977    -1.159777427218     1.007825032230
         H           -0.378965313501    -1.539011924023    -1.035365427218     1.007825032230
         H           -4.808164313501    -0.130263924023     0.673911572782     1.007825032230
         H           -2.272500313501    -3.135988924023    -1.075286427218     1.007825032230
         H            5.836521686499    -0.018211924023     0.184807572782     1.007825032230
         H            5.315645686499    -1.356495924023     1.221859572782     1.007825032230
         H            5.367398686499    -1.563205924023    -0.532701427218     1.007825032230
         H           -4.494450313501    -2.422217924023    -0.180459427218     1.007825032230
         H           -2.353979313501     2.463320075977     0.450393572782     1.007825032230
         H           -3.951920313501     2.053802075977     0.854582572782     1.007825032230

  Basis Set: AUG-CC-PVTZ
    Blend: AUG-CC-PVTZ
  Basis Set: (AUG-CC-PVTZ AUX)
    Blend: AUG-CC-PVTZ-JKFIT
	 Reference Energy          =    -667.2635088885075447 [Eh]
	 Singles Energy            =      -0.0000000000000000 [Eh]
	 Same-Spin Energy          =      -0.7353846365518228 [Eh]
	 Opposite-Spin Energy      =      -2.2664269501172702 [Eh]
	 Correlation Energy        =      -3.0018115866690929 [Eh]
	 Total Energy              =    -670.2653204751766225 [Eh]

	 ================> DF-SCS-MP2 Energies <==================
	-----------------------------------------------------------
	 SCS Same-Spin Scale       =       0.3333333333333333 [-]
	 SCS Opposite-Spin Scale   =       1.2000000000000000 [-]
	 SCS Same-Spin Energy      =      -0.2451282121839409 [Eh]
	 SCS Opposite-Spin Energy  =      -2.7197123401407244 [Eh]
	 SCS Correlation Energy    =      -2.9648405523246653 [Eh]
	 SCS Total Energy          =    -670.2283494408321758 [Eh]
	-----------------------------------------------------------

  Dipole Moment: [D]
     X:     0.2998      Y:    -1.8261      Z:    -0.0857     Total:     1.8525

*** Psi4 exiting successfully. Buy a developer a beer!
