                               Psi4 1.4a3.dev225

  ==> Input File <==

--------------------------------------------------------------------------
#psi4
#
memory 32 gb

molecule  {
0 1
  O       -0.5498120     2.2556960    -0.2996080
  N       -3.0129360     1.7813540     0.8248620
  C        1.0008190     0.4908720    -0.0872200
  C       -1.5329590     0.0859130    -0.1428360
  C       -0.3878030     1.0286420    -0.1846270
  C        3.6793340    -0.3535020     0.1683990
  C       -2.8127890     0.5150010     0.2964470
  C        1.3212360    -0.6095270     0.7211930
  C        2.0273690     1.1786660    -0.7492360
  C        2.6489240    -1.0168440     0.8468500
  C        3.2950490     0.6412767    -0.5480363
  C       -1.3791480    -1.2185740    -0.6492330
  C       -3.8612840    -0.4227650     0.3079770
  C       -2.4390410    -2.1168890    -0.6711390
  C        5.1038640    -0.8322750     0.2664150
  C       -3.6857840    -1.7096250    -0.1856360
  H        0.5383950    -1.1258400     1.2710410
  H        1.7737210     2.0503190    -1.3473030
  H        2.8902070    -1.8603380     1.4919100
  H        4.1335430     1.2826870    -1.1615780
  H       -0.4095800    -1.5185310    -1.0371660
  H       -4.8387790    -0.1097830     0.6721110
  H       -2.3031150    -3.1155080    -1.0770870
  H        5.8059070     0.0022690     0.1830070
  H        5.2850310    -1.3360150     1.2200590
  H        5.3367840    -1.5427250    -0.5345020
  H       -4.5250650    -2.4017370    -0.1822600
  H       -2.3845940     2.4838010     0.4485930
  H       -3.9825350     2.0742830     0.8527820
units angstrom
no_reorient  #important for SAPT in psi4, default
symmetry c1  #important for SAPT in psi4, default
}

set PROPERTIES_ORIGIN ["COM"]
properties('MP2/aug-cc-pvtz', properties = ['dipole'])
--------------------------------------------------------------------------

    Molecular point group: c1
  Charge       = 0
  Multiplicity = 1
  Basis Set: AUG-CC-PVTZ
    Blend: AUG-CC-PVTZ
  Basis Set: (AUG-CC-PVTZ AUX)
    Blend: AUG-CC-PVTZ-JKFIT

    Orbital Energies [Eh]
    ---------------------

    Doubly Occupied:

       1A    -20.539956     2A    -15.560698     3A    -11.339191
       4A    -11.297512     5A    -11.253281     6A    -11.252958
       7A    -11.248241     8A    -11.247219     9A    -11.244851
      10A    -11.241950    11A    -11.240592    12A    -11.239616
      13A    -11.236057    14A    -11.233754    15A    -11.232481
      16A    -11.228857    17A     -1.372686    18A     -1.227220
      19A     -1.180157    20A     -1.138270    21A     -1.077504
      22A     -1.036009    23A     -1.017965    24A     -0.997150
      25A     -0.957666    26A     -0.883392    27A     -0.845042
      28A     -0.833362    29A     -0.817397    30A     -0.761581
      31A     -0.712187    32A     -0.693866    33A     -0.686668
      34A     -0.663359    35A     -0.651080    36A     -0.631548
      37A     -0.615352    38A     -0.603999    39A     -0.599895
      40A     -0.588193    41A     -0.587330    42A     -0.579994
      43A     -0.556089    44A     -0.540563    45A     -0.534954
      46A     -0.521627    47A     -0.518914    48A     -0.508871
      49A     -0.489513    50A     -0.469193    51A     -0.452721
      52A     -0.417935    53A     -0.353169    54A     -0.348059
      55A     -0.336860    56A     -0.301053

  @DF-RHF Final Energy:  -667.24909391271535

   => Energetics <=

    Nuclear Repulsion Energy =            995.5563654781038849
    One-Electron Energy =               -2882.1196990409116552
    Two-Electron Energy =                1219.3142396500923041
    Total Energy =                       -667.2490939127153524
  Basis Set: (AUG-CC-PVTZ AUX)
    Blend: AUG-CC-PVTZ-RI
    Molecular point group: c1

    Geometry (in Angstrom), charge = 0, multiplicity = 1:

       Center              X                  Y                   Z               Mass
    ------------   -----------------  -----------------  -----------------  -----------------
         O           -0.512512474507     2.237735892277    -0.300726313219    15.994914619570
         N           -2.975636474507     1.763393892277     0.823743686781    14.003074004430
         C            1.038118525493     0.472911892277    -0.088338313219    12.000000000000
         C           -1.495659474507     0.067952892277    -0.143954313219    12.000000000000
         C           -0.350503474507     1.010681892277    -0.185745313219    12.000000000000
         C            3.716633525493    -0.371462107723     0.167280686781    12.000000000000
         C           -2.775489474507     0.497040892277     0.295328686781    12.000000000000
         C            1.358535525493    -0.627487107723     0.720074686781    12.000000000000
         C            2.064668525493     1.160705892277    -0.750354313219    12.000000000000
         C            2.686223525493    -1.034804107723     0.845731686781    12.000000000000
         C            3.332348525493     0.623316592277    -0.549154613219    12.000000000000
         C           -1.341848474507    -1.236534107723    -0.650351313219    12.000000000000
         C           -3.823984474507    -0.440725107723     0.306858686781    12.000000000000
         C           -2.401741474507    -2.134849107723    -0.672257313219    12.000000000000
         C            5.141163525493    -0.850235107723     0.265296686781    12.000000000000
         C           -3.648484474507    -1.727585107723    -0.186754313219    12.000000000000
         H            0.575694525493    -1.143800107723     1.269922686781     1.007825032230
         H            1.811020525493     2.032358892277    -1.348421313219     1.007825032230
         H            2.927506525493    -1.878298107723     1.490791686781     1.007825032230
         H            4.170842525493     1.264726892277    -1.162696313219     1.007825032230
         H           -0.372280474507    -1.536491107723    -1.038284313219     1.007825032230
         H           -4.801479474507    -0.127743107723     0.670992686781     1.007825032230
         H           -2.265815474507    -3.133468107723    -1.078205313219     1.007825032230
         H            5.843206525493    -0.015691107723     0.181888686781     1.007825032230
         H            5.322330525493    -1.353975107723     1.218940686781     1.007825032230
         H            5.374083525493    -1.560685107723    -0.535620313219     1.007825032230
         H           -4.487765474507    -2.419697107723    -0.183378313219     1.007825032230
         H           -2.347294474507     2.465840892277     0.447474686781     1.007825032230
         H           -3.945235474507     2.056322892277     0.851663686781     1.007825032230

  Basis Set: AUG-CC-PVTZ
    Blend: AUG-CC-PVTZ
  Basis Set: (AUG-CC-PVTZ AUX)
    Blend: AUG-CC-PVTZ-JKFIT
	 Reference Energy          =    -667.2490939127153524 [Eh]
	 Singles Energy            =      -0.0000000000000000 [Eh]
	 Same-Spin Energy          =      -0.7362105728462218 [Eh]
	 Opposite-Spin Energy      =      -2.2667905060045914 [Eh]
	 Correlation Energy        =      -3.0030010788508132 [Eh]
	 Total Energy              =    -670.2520949915661959 [Eh]

	 ================> DF-SCS-MP2 Energies <==================
	-----------------------------------------------------------
	 SCS Same-Spin Scale       =       0.3333333333333333 [-]
	 SCS Opposite-Spin Scale   =       1.2000000000000000 [-]
	 SCS Same-Spin Energy      =      -0.2454035242820739 [Eh]
	 SCS Opposite-Spin Energy  =      -2.7201486072055094 [Eh]
	 SCS Correlation Energy    =      -2.9655521314875832 [Eh]
	 SCS Total Energy          =    -670.2146460442029365 [Eh]
	-----------------------------------------------------------

  Dipole Moment: [D]
     X:     0.1804      Y:    -1.8590      Z:    -0.0430     Total:     1.8682

*** Psi4 exiting successfully. Buy a developer a beer!
