                               Psi4 1.4a3.dev225

  ==> Input File <==

--------------------------------------------------------------------------
#psi4
#
memory 32 gb

molecule  {
0 1
  O       -0.5498120     2.2556960    -0.2996080
  N       -3.0129360     1.7813540     0.8248620
  C        1.0008190     0.4908720    -0.0872200
  C       -1.5329590     0.0859130    -0.1428360
  C       -0.3878030     1.0286420    -0.1846270
  C        3.6793340    -0.3535020     0.1683990
  C       -2.8127890     0.5150010     0.2964470
  C        1.3212360    -0.6095270     0.7211930
  C        2.0273690     1.1786660    -0.7492360
  C        2.6489240    -1.0168440     0.8468500
  C        3.3454510     0.7479200    -0.6334830
  C       -1.3791480    -1.2185740    -0.6492330
  C       -3.8612840    -0.4227650     0.3079770
  C       -2.4390410    -2.1168890    -0.6711390
  C        5.0849463    -0.8259169     0.2651133
  C       -3.6857840    -1.7096250    -0.1856360
  H        0.5383950    -1.1258400     1.2710410
  H        1.7737210     2.0503190    -1.3473030
  H        2.8902070    -1.8603380     1.4919100
  H        4.1335430     1.2826870    -1.1615780
  H       -0.4095800    -1.5185310    -1.0371660
  H       -4.8387790    -0.1097830     0.6721110
  H       -2.3031150    -3.1155080    -1.0770870
  H        5.8059070     0.0022690     0.1830070
  H        5.2850310    -1.3360150     1.2200590
  H        5.3367840    -1.5427250    -0.5345020
  H       -4.5250650    -2.4017370    -0.1822600
  H       -2.3845940     2.4838010     0.4485930
  H       -3.9825350     2.0742830     0.8527820
units angstrom
no_reorient  #important for SAPT in psi4, default
symmetry c1  #important for SAPT in psi4, default
}

set PROPERTIES_ORIGIN ["COM"]
properties('MP2/aug-cc-pvtz', properties = ['dipole'])
--------------------------------------------------------------------------

    Molecular point group: c1
  Charge       = 0
  Multiplicity = 1
  Basis Set: AUG-CC-PVTZ
    Blend: AUG-CC-PVTZ
  Basis Set: (AUG-CC-PVTZ AUX)
    Blend: AUG-CC-PVTZ-JKFIT

    Orbital Energies [Eh]
    ---------------------

    Doubly Occupied:

       1A    -20.538036     2A    -15.560040     3A    -11.338510
       4A    -11.296918     5A    -11.256465     6A    -11.252743
       7A    -11.252278     8A    -11.250641     9A    -11.246379
      10A    -11.243610    11A    -11.239134    12A    -11.239130
      13A    -11.237837    14A    -11.233892    15A    -11.231980
      16A    -11.228318    17A     -1.371097    18A     -1.226577
      19A     -1.165882    20A     -1.137180    21A     -1.071204
      22A     -1.035091    23A     -1.020746    24A     -0.996584
      25A     -0.954421    26A     -0.876691    27A     -0.839149
      28A     -0.836296    29A     -0.813048    30A     -0.766264
      31A     -0.712805    32A     -0.692026    33A     -0.686250
      34A     -0.661885    35A     -0.646122    36A     -0.636940
      37A     -0.614257    38A     -0.603929    39A     -0.600617
      40A     -0.592681    41A     -0.584801    42A     -0.582136
      43A     -0.554908    44A     -0.542637    45A     -0.531360
      46A     -0.519362    47A     -0.514601    48A     -0.505506
      49A     -0.492985    50A     -0.481514    51A     -0.452314
      52A     -0.418970    53A     -0.349754    54A     -0.343166
      55A     -0.333533    56A     -0.300372

  @DF-RHF Final Energy:  -667.27590090971228

   => Energetics <=

    Nuclear Repulsion Energy =            993.2574908395674811
    One-Electron Energy =               -2877.6436441982777978
    Two-Electron Energy =                1217.1102524489979260
    Total Energy =                       -667.2759009097123908
  Basis Set: (AUG-CC-PVTZ AUX)
    Blend: AUG-CC-PVTZ-RI
    Molecular point group: c1

    Geometry (in Angstrom), charge = 0, multiplicity = 1:

       Center              X                  Y                   Z               Mass
    ------------   -----------------  -----------------  -----------------  -----------------
         O           -0.514302205022     2.231312308019    -0.295795085317    15.994914619570
         N           -2.977426205022     1.756970308019     0.828674914683    14.003074004430
         C            1.036328794978     0.466488308019    -0.083407085317    12.000000000000
         C           -1.497449205022     0.061529308019    -0.139023085317    12.000000000000
         C           -0.352293205022     1.004258308019    -0.180814085317    12.000000000000
         C            3.714843794978    -0.377885691981     0.172211914683    12.000000000000
         C           -2.777279205022     0.490617308019     0.300259914683    12.000000000000
         C            1.356745794978    -0.633910691981     0.725005914683    12.000000000000
         C            2.062878794978     1.154282308019    -0.745423085317    12.000000000000
         C            2.684433794978    -1.041227691981     0.850662914683    12.000000000000
         C            3.380960794978     0.723536308019    -0.629670085317    12.000000000000
         C           -1.343638205022    -1.242957691981    -0.645420085317    12.000000000000
         C           -3.825774205022    -0.447148691981     0.311789914683    12.000000000000
         C           -2.403531205022    -2.141272691981    -0.667326085317    12.000000000000
         C            5.120456094978    -0.850300591981     0.268926214683    12.000000000000
         C           -3.650274205022    -1.734008691981    -0.181823085317    12.000000000000
         H            0.573904794978    -1.150223691981     1.274853914683     1.007825032230
         H            1.809230794978     2.025935308019    -1.343490085317     1.007825032230
         H            2.925716794978    -1.884721691981     1.495722914683     1.007825032230
         H            4.169052794978     1.258303308019    -1.157765085317     1.007825032230
         H           -0.374070205022    -1.542914691981    -1.033353085317     1.007825032230
         H           -4.803269205022    -0.134166691981     0.675923914683     1.007825032230
         H           -2.267605205022    -3.139891691981    -1.073274085317     1.007825032230
         H            5.841416794978    -0.022114691981     0.186819914683     1.007825032230
         H            5.320540794978    -1.360398691981     1.223871914683     1.007825032230
         H            5.372293794978    -1.567108691981    -0.530689085317     1.007825032230
         H           -4.489555205022    -2.426120691981    -0.178447085317     1.007825032230
         H           -2.349084205022     2.459417308019     0.452405914683     1.007825032230
         H           -3.947025205022     2.049899308019     0.856594914683     1.007825032230

  Basis Set: AUG-CC-PVTZ
    Blend: AUG-CC-PVTZ
  Basis Set: (AUG-CC-PVTZ AUX)
    Blend: AUG-CC-PVTZ-JKFIT
	 Reference Energy          =    -667.2759009097122771 [Eh]
	 Singles Energy            =      -0.0000000000000000 [Eh]
	 Same-Spin Energy          =      -0.7357119994635135 [Eh]
	 Opposite-Spin Energy      =      -2.2656902228421298 [Eh]
	 Correlation Energy        =      -3.0014022223056434 [Eh]
	 Total Energy              =    -670.2773031320178916 [Eh]

	 ================> DF-SCS-MP2 Energies <==================
	-----------------------------------------------------------
	 SCS Same-Spin Scale       =       0.3333333333333333 [-]
	 SCS Opposite-Spin Scale   =       1.2000000000000000 [-]
	 SCS Same-Spin Energy      =      -0.2452373331545045 [Eh]
	 SCS Opposite-Spin Energy  =      -2.7188282674105557 [Eh]
	 SCS Correlation Energy    =      -2.9640656005650601 [Eh]
	 SCS Total Energy          =    -670.2399665102773270 [Eh]
	-----------------------------------------------------------

  Dipole Moment: [D]
     X:     0.3560      Y:    -1.8163      Z:    -0.1059     Total:     1.8539

*** Psi4 exiting successfully. Buy a developer a beer!
