                               Psi4 1.4a3.dev225

  ==> Input File <==

--------------------------------------------------------------------------
#psi4
#
memory 32 gb

molecule  {
0 1
  O       -0.5498120     2.2556960    -0.2996080
  N       -3.0129360     1.7813540     0.8248620
  C        1.0008190     0.4908720    -0.0872200
  C       -1.5329590     0.0859130    -0.1428360
  C       -0.3878030     1.0286420    -0.1846270
  C        3.6793340    -0.3535020     0.1683990
  C       -2.8127890     0.5150010     0.2964470
  C        1.3212360    -0.6095270     0.7211930
  C        2.0273690     1.1786660    -0.7492360
  C        2.6489240    -1.0168440     0.8468500
  C        3.3454510     0.7479200    -0.6334830
  C       -1.3791480    -1.2185740    -0.6492330
  C       -3.8612840    -0.4227650     0.3079770
  C       -2.4390410    -2.1168890    -0.6711390
  C        5.0565697    -0.8163798     0.2631609
  C       -3.6857840    -1.7096250    -0.1856360
  H        0.5383950    -1.1258400     1.2710410
  H        1.7737210     2.0503190    -1.3473030
  H        2.8902070    -1.8603380     1.4919100
  H        4.1335430     1.2826870    -1.1615780
  H       -0.4095800    -1.5185310    -1.0371660
  H       -4.8387790    -0.1097830     0.6721110
  H       -2.3031150    -3.1155080    -1.0770870
  H        5.8059070     0.0022690     0.1830070
  H        5.2850310    -1.3360150     1.2200590
  H        5.3367840    -1.5427250    -0.5345020
  H       -4.5250650    -2.4017370    -0.1822600
  H       -2.3845940     2.4838010     0.4485930
  H       -3.9825350     2.0742830     0.8527820
units angstrom
no_reorient  #important for SAPT in psi4, default
symmetry c1  #important for SAPT in psi4, default
}

set PROPERTIES_ORIGIN ["COM"]
properties('MP2/aug-cc-pvtz', properties = ['dipole'])
--------------------------------------------------------------------------

    Molecular point group: c1
  Charge       = 0
  Multiplicity = 1
  Basis Set: AUG-CC-PVTZ
    Blend: AUG-CC-PVTZ
  Basis Set: (AUG-CC-PVTZ AUX)
    Blend: AUG-CC-PVTZ-JKFIT

    Orbital Energies [Eh]
    ---------------------

    Doubly Occupied:

       1A    -20.538076     2A    -15.560068     3A    -11.338554
       4A    -11.296949     5A    -11.255029     6A    -11.252771
       7A    -11.252313     8A    -11.250720     9A    -11.246459
      10A    -11.243698    11A    -11.239185    12A    -11.239171
      13A    -11.237892    14A    -11.235087    15A    -11.232009
      16A    -11.228349    17A     -1.371140    18A     -1.226607
      19A     -1.167047    20A     -1.137301    21A     -1.073925
      22A     -1.035854    23A     -1.020965    24A     -0.996640
      25A     -0.954244    26A     -0.876212    27A     -0.839646
      28A     -0.836005    29A     -0.812937    30A     -0.766407
      31A     -0.712907    32A     -0.692467    33A     -0.686313
      34A     -0.663043    35A     -0.647674    36A     -0.637587
      37A     -0.614327    38A     -0.604513    39A     -0.601616
      40A     -0.592731    41A     -0.585211    42A     -0.579549
      43A     -0.554238    44A     -0.539722    45A     -0.530010
      46A     -0.522789    47A     -0.515119    48A     -0.505839
      49A     -0.491919    50A     -0.480558    51A     -0.452346
      52A     -0.419040    53A     -0.349799    54A     -0.343292
      55A     -0.332770    56A     -0.300394

  @DF-RHF Final Energy:  -667.27326556622859

   => Energetics <=

    Nuclear Repulsion Energy =            993.8306581916107234
    One-Electron Energy =               -2878.7737837105682956
    Two-Electron Energy =                1217.6698599527289844
    Total Energy =                       -667.2732655662284742
  Basis Set: (AUG-CC-PVTZ AUX)
    Blend: AUG-CC-PVTZ-RI
    Molecular point group: c1

    Geometry (in Angstrom), charge = 0, multiplicity = 1:

       Center              X                  Y                   Z               Mass
    ------------   -----------------  -----------------  -----------------  -----------------
         O           -0.512689132255     2.230770169909    -0.295684100799    15.994914619570
         N           -2.975813132255     1.756428169909     0.828785899201    14.003074004430
         C            1.037941867745     0.465946169909    -0.083296100799    12.000000000000
         C           -1.495836132255     0.060987169909    -0.138912100799    12.000000000000
         C           -0.350680132255     1.003716169909    -0.180703100799    12.000000000000
         C            3.716456867745    -0.378427830091     0.172322899201    12.000000000000
         C           -2.775666132255     0.490075169909     0.300370899201    12.000000000000
         C            1.358358867745    -0.634452830091     0.725116899201    12.000000000000
         C            2.064491867745     1.153740169909    -0.745312100799    12.000000000000
         C            2.686046867745    -1.041769830091     0.850773899201    12.000000000000
         C            3.382573867745     0.722994169909    -0.629559100799    12.000000000000
         C           -1.342025132255    -1.243499830091    -0.645309100799    12.000000000000
         C           -3.824161132255    -0.447690830091     0.311900899201    12.000000000000
         C           -2.401918132255    -2.141814830091    -0.667215100799    12.000000000000
         C            5.093692567745    -0.841305630091     0.267084799201    12.000000000000
         C           -3.648661132255    -1.734550830091    -0.181712100799    12.000000000000
         H            0.575517867745    -1.150765830091     1.274964899201     1.007825032230
         H            1.810843867745     2.025393169909    -1.343379100799     1.007825032230
         H            2.927329867745    -1.885263830091     1.495833899201     1.007825032230
         H            4.170665867745     1.257761169909    -1.157654100799     1.007825032230
         H           -0.372457132255    -1.543456830091    -1.033242100799     1.007825032230
         H           -4.801656132255    -0.134708830091     0.676034899201     1.007825032230
         H           -2.265992132255    -3.140433830091    -1.073163100799     1.007825032230
         H            5.843029867745    -0.022656830091     0.186930899201     1.007825032230
         H            5.322153867745    -1.360940830091     1.223982899201     1.007825032230
         H            5.373906867745    -1.567650830091    -0.530578100799     1.007825032230
         H           -4.487942132255    -2.426662830091    -0.178336100799     1.007825032230
         H           -2.347471132255     2.458875169909     0.452516899201     1.007825032230
         H           -3.945412132255     2.049357169909     0.856705899201     1.007825032230

  Basis Set: AUG-CC-PVTZ
    Blend: AUG-CC-PVTZ
  Basis Set: (AUG-CC-PVTZ AUX)
    Blend: AUG-CC-PVTZ-JKFIT
	 Reference Energy          =    -667.2732655662285879 [Eh]
	 Singles Energy            =      -0.0000000000000000 [Eh]
	 Same-Spin Energy          =      -0.7360630737558608 [Eh]
	 Opposite-Spin Energy      =      -2.2660726026751017 [Eh]
	 Correlation Energy        =      -3.0021356764309624 [Eh]
	 Total Energy              =    -670.2754012426595409 [Eh]

	 ================> DF-SCS-MP2 Energies <==================
	-----------------------------------------------------------
	 SCS Same-Spin Scale       =       0.3333333333333333 [-]
	 SCS Opposite-Spin Scale   =       1.2000000000000000 [-]
	 SCS Same-Spin Energy      =      -0.2453543579186203 [Eh]
	 SCS Opposite-Spin Energy  =      -2.7192871232101221 [Eh]
	 SCS Correlation Energy    =      -2.9646414811287425 [Eh]
	 SCS Total Energy          =    -670.2379070473573393 [Eh]
	-----------------------------------------------------------

  Dipole Moment: [D]
     X:     0.3604      Y:    -1.8186      Z:    -0.1068     Total:     1.8570

*** Psi4 exiting successfully. Buy a developer a beer!
