                               Psi4 1.4a3.dev225

  ==> Input File <==

--------------------------------------------------------------------------
#psi4
#
memory 32 gb

molecule  {
0 1
  O       -0.5498120     2.2556960    -0.2996080
  N       -3.0129360     1.7813540     0.8248620
  C        1.0008190     0.4908720    -0.0872200
  C       -1.5329590     0.0859130    -0.1428360
  C       -0.3878030     1.0286420    -0.1846270
  C        3.6793340    -0.3535020     0.1683990
  C       -2.8127890     0.5150010     0.2964470
  C        1.3212360    -0.6095270     0.7211930
  C        2.0273690     1.1786660    -0.7492360
  C        2.6489240    -1.0168440     0.8468500
  C        3.3454510     0.7479200    -0.6334830
  C       -1.3791480    -1.2185740    -0.6492330
  C       -3.8612840    -0.4227650     0.3079770
  C       -2.4390410    -2.1168890    -0.6711390
  C        5.1038640    -0.8322750     0.2664150
  C       -3.6857840    -1.7096250    -0.1856360
  H        0.5383950    -1.1258400     1.2710410
  H        1.7737210     2.0503190    -1.3473030
  H        2.8902070    -1.8603380     1.4919100
  H        4.1335430     1.2826870    -1.1615780
  H       -0.4095800    -1.5185310    -1.0371660
  H       -4.8387790    -0.1097830     0.6721110
  H       -2.3031150    -3.1155080    -1.0770870
  H        5.8059070     0.0022690     0.1830070
  H        5.2850310    -1.3360150     1.2200590
  H        5.3367840    -1.5427250    -0.5345020
  H       -4.5250650    -2.4017370    -0.1822600
  H       -2.3845940     2.4838010     0.4485930
  H       -4.0303802     2.0887377     0.8541597
units angstrom
no_reorient  #important for SAPT in psi4, default
symmetry c1  #important for SAPT in psi4, default
}

set PROPERTIES_ORIGIN ["COM"]
properties('MP2/aug-cc-pvtz', properties = ['dipole'])
--------------------------------------------------------------------------

    Molecular point group: c1
  Charge       = 0
  Multiplicity = 1
  Basis Set: AUG-CC-PVTZ
    Blend: AUG-CC-PVTZ
  Basis Set: (AUG-CC-PVTZ AUX)
    Blend: AUG-CC-PVTZ-JKFIT

    Orbital Energies [Eh]
    ---------------------

    Doubly Occupied:

       1A    -20.537994     2A    -15.564910     3A    -11.338454
       4A    -11.296924     5A    -11.257307     6A    -11.252596
       7A    -11.252202     8A    -11.250553     9A    -11.246292
      10A    -11.243520    11A    -11.239116    12A    -11.239069
      13A    -11.237777    14A    -11.233206    15A    -11.231791
      16A    -11.228165    17A     -1.371041    18A     -1.222466
      19A     -1.165126    20A     -1.135438    21A     -1.069523
      22A     -1.034433    23A     -1.020560    24A     -0.994953
      25A     -0.954396    26A     -0.876832    27A     -0.838570
      28A     -0.835371    29A     -0.812392    30A     -0.766074
      31A     -0.711279    32A     -0.690153    33A     -0.681190
      34A     -0.661100    35A     -0.644817    36A     -0.636376
      37A     -0.612177    38A     -0.603527    39A     -0.599041
      40A     -0.592555    41A     -0.584193    42A     -0.582279
      43A     -0.555727    44A     -0.544564    45A     -0.531806
      46A     -0.517911    47A     -0.512995    48A     -0.504725
      49A     -0.493457    50A     -0.481965    51A     -0.451774
      52A     -0.418795    53A     -0.349661    54A     -0.343048
      55A     -0.333939    56A     -0.299988

  @DF-RHF Final Energy:  -667.27292923386096

   => Energetics <=

    Nuclear Repulsion Energy =            992.5858764439248034
    One-Electron Energy =               -2876.3454317954951875
    Two-Electron Energy =                1216.4866261177091928
    Total Energy =                       -667.2729292338610776
  Basis Set: (AUG-CC-PVTZ AUX)
    Blend: AUG-CC-PVTZ-RI
    Molecular point group: c1

    Geometry (in Angstrom), charge = 0, multiplicity = 1:

       Center              X                  Y                   Z               Mass
    ------------   -----------------  -----------------  -----------------  -----------------
         O           -0.515149164056     2.231604726186    -0.295875658048    15.994914619570
         N           -2.978273164056     1.757262726186     0.828594341952    14.003074004430
         C            1.035481835944     0.466780726186    -0.083487658048    12.000000000000
         C           -1.498296164056     0.061821726186    -0.139103658048    12.000000000000
         C           -0.353140164056     1.004550726186    -0.180894658048    12.000000000000
         C            3.713996835944    -0.377593273814     0.172131341952    12.000000000000
         C           -2.778126164056     0.490909726186     0.300179341952    12.000000000000
         C            1.355898835944    -0.633618273814     0.724925341952    12.000000000000
         C            2.062031835944     1.154574726186    -0.745503658048    12.000000000000
         C            2.683586835944    -1.040935273814     0.850582341952    12.000000000000
         C            3.380113835944     0.723828726186    -0.629750658048    12.000000000000
         C           -1.344485164056    -1.242665273814    -0.645500658048    12.000000000000
         C           -3.826621164056    -0.446856273814     0.311709341952    12.000000000000
         C           -2.404378164056    -2.140980273814    -0.667406658048    12.000000000000
         C            5.138526835944    -0.856366273814     0.270147341952    12.000000000000
         C           -3.651121164056    -1.733716273814    -0.181903658048    12.000000000000
         H            0.573057835944    -1.149931273814     1.274773341952     1.007825032230
         H            1.808383835944     2.026227726186    -1.343570658048     1.007825032230
         H            2.924869835944    -1.884429273814     1.495642341952     1.007825032230
         H            4.168205835944     1.258595726186    -1.157845658048     1.007825032230
         H           -0.374917164056    -1.542622273814    -1.033433658048     1.007825032230
         H           -4.804116164056    -0.133874273814     0.675843341952     1.007825032230
         H           -2.268452164056    -3.139599273814    -1.073354658048     1.007825032230
         H            5.840569835944    -0.021822273814     0.186739341952     1.007825032230
         H            5.319693835944    -1.360106273814     1.223791341952     1.007825032230
         H            5.371446835944    -1.566816273814    -0.530769658048     1.007825032230
         H           -4.490402164056    -2.425828273814    -0.178527658048     1.007825032230
         H           -2.349931164056     2.459709726186     0.452325341952     1.007825032230
         H           -3.995717364056     2.064646426186     0.857892041952     1.007825032230

  Basis Set: AUG-CC-PVTZ
    Blend: AUG-CC-PVTZ
  Basis Set: (AUG-CC-PVTZ AUX)
    Blend: AUG-CC-PVTZ-JKFIT
	 Reference Energy          =    -667.2729292338609639 [Eh]
	 Singles Energy            =      -0.0000000000000000 [Eh]
	 Same-Spin Energy          =      -0.7358417637341683 [Eh]
	 Opposite-Spin Energy      =      -2.2664392971466949 [Eh]
	 Correlation Energy        =      -3.0022810608808630 [Eh]
	 Total Energy              =    -670.2752102947417825 [Eh]

	 ================> DF-SCS-MP2 Energies <==================
	-----------------------------------------------------------
	 SCS Same-Spin Scale       =       0.3333333333333333 [-]
	 SCS Opposite-Spin Scale   =       1.2000000000000000 [-]
	 SCS Same-Spin Energy      =      -0.2452805879113894 [Eh]
	 SCS Opposite-Spin Energy  =      -2.7197271565760337 [Eh]
	 SCS Correlation Energy    =      -2.9650077444874232 [Eh]
	 SCS Total Energy          =    -670.2379369783484435 [Eh]
	-----------------------------------------------------------

  Dipole Moment: [D]
     X:     0.3243      Y:    -1.8016      Z:    -0.1013     Total:     1.8334

*** Psi4 exiting successfully. Buy a developer a beer!
