                               Psi4 1.4a3.dev225

  ==> Input File <==

--------------------------------------------------------------------------
#psi4
#
memory 32 gb

molecule  {
0 1
  O       -0.5498120     2.2556960    -0.2996080
  N       -3.0129360     1.7813540     0.8248620
  C        1.0008190     0.4908720    -0.0872200
  C       -1.5329590     0.0859130    -0.1428360
  C       -0.3878030     1.0286420    -0.1846270
  C        3.6793340    -0.3535020     0.1683990
  C       -2.8127890     0.5150010     0.2964470
  C        1.3212360    -0.6095270     0.7211930
  C        2.0273690     1.1786660    -0.7492360
  C        2.6489240    -1.0168440     0.8468500
  C        3.3454510     0.7479200    -0.6334830
  C       -1.3791480    -1.2185740    -0.6492330
  C       -3.8612840    -0.4227650     0.3079770
  C       -2.4390410    -2.1168890    -0.6711390
  C        5.1511583    -0.8481702     0.2696691
  C       -3.6857840    -1.7096250    -0.1856360
  H        0.5383950    -1.1258400     1.2710410
  H        1.7737210     2.0503190    -1.3473030
  H        2.8902070    -1.8603380     1.4919100
  H        4.1335430     1.2826870    -1.1615780
  H       -0.4095800    -1.5185310    -1.0371660
  H       -4.8387790    -0.1097830     0.6721110
  H       -2.3031150    -3.1155080    -1.0770870
  H        5.8059070     0.0022690     0.1830070
  H        5.2850310    -1.3360150     1.2200590
  H        5.3367840    -1.5427250    -0.5345020
  H       -4.5250650    -2.4017370    -0.1822600
  H       -2.3845940     2.4838010     0.4485930
  H       -3.9825350     2.0742830     0.8527820
units angstrom
no_reorient  #important for SAPT in psi4, default
symmetry c1  #important for SAPT in psi4, default
}

set PROPERTIES_ORIGIN ["COM"]
properties('MP2/aug-cc-pvtz', properties = ['dipole'])
--------------------------------------------------------------------------

    Molecular point group: c1
  Charge       = 0
  Multiplicity = 1
  Basis Set: AUG-CC-PVTZ
    Blend: AUG-CC-PVTZ
  Basis Set: (AUG-CC-PVTZ AUX)
    Blend: AUG-CC-PVTZ-JKFIT

    Orbital Energies [Eh]
    ---------------------

    Doubly Occupied:

       1A    -20.537938     2A    -15.559972     3A    -11.338403
       4A    -11.296842     5A    -11.259230     6A    -11.252674
       7A    -11.252194     8A    -11.250449     9A    -11.246185
      10A    -11.243412    11A    -11.239048    12A    -11.239047
      13A    -11.237753    14A    -11.232099    15A    -11.231910
      16A    -11.228245    17A     -1.370995    18A     -1.226506
      19A     -1.163746    20A     -1.136930    21A     -1.066033
      22A     -1.033226    23A     -1.020263    24A     -0.996457
      25A     -0.955244    26A     -0.877688    27A     -0.838226
      28A     -0.836691    29A     -0.813144    30A     -0.765945
      31A     -0.712589    32A     -0.691250    33A     -0.686109
      34A     -0.659934    35A     -0.643433    36A     -0.635298
      37A     -0.614190    38A     -0.603415    39A     -0.597899
      40A     -0.592700    41A     -0.589499    42A     -0.583495
      43A     -0.560530    44A     -0.548073    45A     -0.532563
      46A     -0.517515    47A     -0.509572    48A     -0.499432
      49A     -0.494205    50A     -0.482985    51A     -0.452225
      52A     -0.418773    53A     -0.349647    54A     -0.342888
      55A     -0.334839    56A     -0.300312

  @DF-RHF Final Energy:  -667.27503774492129

   => Energetics <=

    Nuclear Repulsion Energy =            991.9649614832942461
    One-Electron Energy =               -2875.0802712875624820
    Two-Electron Energy =                1215.8402720593469439
    Total Energy =                       -667.2750377449212920
  Basis Set: (AUG-CC-PVTZ AUX)
    Blend: AUG-CC-PVTZ-RI
    Molecular point group: c1

    Geometry (in Angstrom), charge = 0, multiplicity = 1:

       Center              X                  Y                   Z               Mass
    ------------   -----------------  -----------------  -----------------  -----------------
         O           -0.518066037691     2.232577300732    -0.296054060561    15.994914619570
         N           -2.981190037691     1.758235300732     0.828415939439    14.003074004430
         C            1.032564962309     0.467753300732    -0.083666060561    12.000000000000
         C           -1.501213037691     0.062794300732    -0.139282060561    12.000000000000
         C           -0.356057037691     1.005523300732    -0.181073060561    12.000000000000
         C            3.711079962309    -0.376620699268     0.171952939439    12.000000000000
         C           -2.781043037691     0.491882300732     0.300000939439    12.000000000000
         C            1.352981962309    -0.632645699268     0.724746939439    12.000000000000
         C            2.059114962309     1.155547300732    -0.745682060561    12.000000000000
         C            2.680669962309    -1.039962699268     0.850403939439    12.000000000000
         C            3.377196962309     0.724801300732    -0.629929060561    12.000000000000
         C           -1.347402037691    -1.241692699268    -0.645679060561    12.000000000000
         C           -3.829538037691    -0.445883699268     0.311530939439    12.000000000000
         C           -2.407295037691    -2.140007699268    -0.667585060561    12.000000000000
         C            5.182904262309    -0.871288899268     0.273223039439    12.000000000000
         C           -3.654038037691    -1.732743699268    -0.182082060561    12.000000000000
         H            0.570140962309    -1.148958699268     1.274594939439     1.007825032230
         H            1.805466962309     2.027200300732    -1.343749060561     1.007825032230
         H            2.921952962309    -1.883456699268     1.495463939439     1.007825032230
         H            4.165288962309     1.259568300732    -1.158024060561     1.007825032230
         H           -0.377834037691    -1.541649699268    -1.033612060561     1.007825032230
         H           -4.807033037691    -0.132901699268     0.675664939439     1.007825032230
         H           -2.271369037691    -3.138626699268    -1.073533060561     1.007825032230
         H            5.837652962309    -0.020849699268     0.186560939439     1.007825032230
         H            5.316776962309    -1.359133699268     1.223612939439     1.007825032230
         H            5.368529962309    -1.565843699268    -0.530948060561     1.007825032230
         H           -4.493319037691    -2.424855699268    -0.178706060561     1.007825032230
         H           -2.352848037691     2.460682300732     0.452146939439     1.007825032230
         H           -3.950789037691     2.051164300732     0.856335939439     1.007825032230

  Basis Set: AUG-CC-PVTZ
    Blend: AUG-CC-PVTZ
  Basis Set: (AUG-CC-PVTZ AUX)
    Blend: AUG-CC-PVTZ-JKFIT
	 Reference Energy          =    -667.2750377449212920 [Eh]
	 Singles Energy            =      -0.0000000000000000 [Eh]
	 Same-Spin Energy          =      -0.7351915955112476 [Eh]
	 Opposite-Spin Energy      =      -2.2653055639073307 [Eh]
	 Correlation Energy        =      -3.0004971594185781 [Eh]
	 Total Energy              =    -670.2755349043399065 [Eh]

	 ================> DF-SCS-MP2 Energies <==================
	-----------------------------------------------------------
	 SCS Same-Spin Scale       =       0.3333333333333333 [-]
	 SCS Opposite-Spin Scale   =       1.2000000000000000 [-]
	 SCS Same-Spin Energy      =      -0.2450638651704158 [Eh]
	 SCS Opposite-Spin Energy  =      -2.7183666766887966 [Eh]
	 SCS Correlation Energy    =      -2.9634305418592124 [Eh]
	 SCS Total Energy          =    -670.2384682867805168 [Eh]
	-----------------------------------------------------------

  Dipole Moment: [D]
     X:     0.3405      Y:    -1.8099      Z:    -0.1049     Total:     1.8447

*** Psi4 exiting successfully. Buy a developer a beer!
