                               Psi4 1.4a3.dev225

  ==> Input File <==

--------------------------------------------------------------------------
#psi4
#
memory 32 gb

molecule  {
0 1
  O       -0.5498120     2.2556960    -0.2996080
  N       -3.0129360     1.7813540     0.8248620
  C        1.0008190     0.4908720    -0.0872200
  C       -1.5329590     0.0859130    -0.1428360
  C       -0.3878030     1.0286420    -0.1846270
  C        3.6793340    -0.3535020     0.1683990
  C       -2.8127890     0.5150010     0.2964470
  C        1.3212360    -0.6095270     0.7211930
  C        2.0273690     1.1786660    -0.7492360
  C        2.6489240    -1.0168440     0.8468500
  C        3.3454510     0.7479200    -0.6334830
  C       -1.3791480    -1.2185740    -0.6492330
  C       -3.8612840    -0.4227650     0.3079770
  C       -2.4390410    -2.1168890    -0.6711390
  C        5.1038640    -0.8322750     0.2664150
  C       -3.6857840    -1.7096250    -0.1856360
  H        0.5383950    -1.1258400     1.2710410
  H        1.7737210     2.0503190    -1.3473030
  H        2.8902070    -1.8603380     1.4919100
  H        4.1335430     1.2826870    -1.1615780
  H       -0.4095800    -1.5185310    -1.0371660
  H       -4.8387790    -0.1097830     0.6721110
  H       -2.3031150    -3.1155080    -1.0770870
  H        5.8059070     0.0022690     0.1830070
  H        5.2850310    -1.3360150     1.2200590
  H        5.3580425    -1.6075675    -0.6076014
  H       -4.5250650    -2.4017370    -0.1822600
  H       -2.3845940     2.4838010     0.4485930
  H       -3.9825350     2.0742830     0.8527820
units angstrom
no_reorient  #important for SAPT in psi4, default
symmetry c1  #important for SAPT in psi4, default
}

set PROPERTIES_ORIGIN ["COM"]
properties('MP2/aug-cc-pvtz', properties = ['dipole'])
--------------------------------------------------------------------------

    Molecular point group: c1
  Charge       = 0
  Multiplicity = 1
  Basis Set: AUG-CC-PVTZ
    Blend: AUG-CC-PVTZ
  Basis Set: (AUG-CC-PVTZ AUX)
    Blend: AUG-CC-PVTZ-JKFIT

    Orbital Energies [Eh]
    ---------------------

    Doubly Occupied:

       1A    -20.538277     2A    -15.560164     3A    -11.338734
       4A    -11.297046     5A    -11.258054     6A    -11.252853
       7A    -11.252402     8A    -11.250881     9A    -11.246611
      10A    -11.244788    11A    -11.244004    12A    -11.239641
      13A    -11.239274    14A    -11.238313    15A    -11.232088
      16A    -11.228424    17A     -1.371322    18A     -1.226703
      19A     -1.165470    20A     -1.137242    21A     -1.068887
      22A     -1.034191    23A     -1.020930    24A     -0.996641
      25A     -0.950078    26A     -0.876107    27A     -0.839189
      28A     -0.835810    29A     -0.812703    30A     -0.766356
      31A     -0.712858    32A     -0.691689    33A     -0.686326
      34A     -0.661294    35A     -0.645491    36A     -0.636769
      37A     -0.614362    38A     -0.603663    39A     -0.599952
      40A     -0.592923    41A     -0.584588    42A     -0.568192
      43A     -0.556117    44A     -0.545344    45A     -0.532081
      46A     -0.518436    47A     -0.512835    48A     -0.503718
      49A     -0.493837    50A     -0.480599    51A     -0.452429
      52A     -0.419177    53A     -0.349894    54A     -0.343368
      55A     -0.333511    56A     -0.300489

  @DF-RHF Final Energy:  -667.27016129964920

   => Energetics <=

    Nuclear Repulsion Energy =            992.4654112074251771
    One-Electron Energy =               -2876.0648952883802849
    Two-Electron Energy =                1216.3293227813057911
    Total Energy =                       -667.2701612996493168
  Basis Set: (AUG-CC-PVTZ AUX)
    Blend: AUG-CC-PVTZ-RI
    Molecular point group: c1

    Geometry (in Angstrom), charge = 0, multiplicity = 1:

       Center              X                  Y                   Z               Mass
    ------------   -----------------  -----------------  -----------------  -----------------
         O           -0.515479076576     2.231983304165    -0.295520092025    15.994914619570
         N           -2.978603076576     1.757641304165     0.828949907975    14.003074004430
         C            1.035151923424     0.467159304165    -0.083132092025    12.000000000000
         C           -1.498626076576     0.062200304165    -0.138748092025    12.000000000000
         C           -0.353470076576     1.004929304165    -0.180539092025    12.000000000000
         C            3.713666923424    -0.377214695835     0.172486907975    12.000000000000
         C           -2.778456076576     0.491288304165     0.300534907975    12.000000000000
         C            1.355568923424    -0.633239695835     0.725280907975    12.000000000000
         C            2.061701923424     1.154953304165    -0.745148092025    12.000000000000
         C            2.683256923424    -1.040556695835     0.850937907975    12.000000000000
         C            3.379783923424     0.724207304165    -0.629395092025    12.000000000000
         C           -1.344815076576    -1.242286695835    -0.645145092025    12.000000000000
         C           -3.826951076576    -0.446477695835     0.312064907975    12.000000000000
         C           -2.404708076576    -2.140601695835    -0.667051092025    12.000000000000
         C            5.138196923424    -0.855987695835     0.270502907975    12.000000000000
         C           -3.651451076576    -1.733337695835    -0.181548092025    12.000000000000
         H            0.572727923424    -1.149552695835     1.275128907975     1.007825032230
         H            1.808053923424     2.026606304165    -1.343215092025     1.007825032230
         H            2.924539923424    -1.884050695835     1.495997907975     1.007825032230
         H            4.167875923424     1.258974304165    -1.157490092025     1.007825032230
         H           -0.375247076576    -1.542243695835    -1.033078092025     1.007825032230
         H           -4.804446076576    -0.133495695835     0.676198907975     1.007825032230
         H           -2.268782076576    -3.139220695835    -1.072999092025     1.007825032230
         H            5.840239923424    -0.021443695835     0.187094907975     1.007825032230
         H            5.319363923424    -1.359727695835     1.224146907975     1.007825032230
         H            5.392375423424    -1.631280195835    -0.603513492025     1.007825032230
         H           -4.490732076576    -2.425449695835    -0.178172092025     1.007825032230
         H           -2.350261076576     2.460088304165     0.452680907975     1.007825032230
         H           -3.948202076576     2.050570304165     0.856869907975     1.007825032230

  Basis Set: AUG-CC-PVTZ
    Blend: AUG-CC-PVTZ
  Basis Set: (AUG-CC-PVTZ AUX)
    Blend: AUG-CC-PVTZ-JKFIT
	 Reference Energy          =    -667.2701612996492031 [Eh]
	 Singles Energy            =      -0.0000000000000000 [Eh]
	 Same-Spin Energy          =      -0.7355265473686332 [Eh]
	 Opposite-Spin Energy      =      -2.2662043988977683 [Eh]
	 Correlation Energy        =      -3.0017309462664015 [Eh]
	 Total Energy              =    -670.2718922459156374 [Eh]

	 ================> DF-SCS-MP2 Energies <==================
	-----------------------------------------------------------
	 SCS Same-Spin Scale       =       0.3333333333333333 [-]
	 SCS Opposite-Spin Scale   =       1.2000000000000000 [-]
	 SCS Same-Spin Energy      =      -0.2451755157895444 [Eh]
	 SCS Opposite-Spin Energy  =      -2.7194452786773220 [Eh]
	 SCS Correlation Energy    =      -2.9646207944668665 [Eh]
	 SCS Total Energy          =    -670.2347820941160990 [Eh]
	-----------------------------------------------------------

  Dipole Moment: [D]
     X:     0.3059      Y:    -1.7786      Z:    -0.0783     Total:     1.8064

*** Psi4 exiting successfully. Buy a developer a beer!
