                               Psi4 1.4a3.dev225

  ==> Input File <==

--------------------------------------------------------------------------
#psi4
#
memory 32 gb

molecule  {
0 1
  O       -0.5498120     2.2556960    -0.2996080
  N       -3.0129360     1.7813540     0.8248620
  C        1.0008190     0.4908720    -0.0872200
  C       -1.5329590     0.0859130    -0.1428360
  C       -0.3878030     1.0286420    -0.1846270
  C        3.6793340    -0.3535020     0.1683990
  C       -2.8127890     0.5150010     0.2964470
  C        1.3212360    -0.6095270     0.7211930
  C        2.0273690     1.1786660    -0.7492360
  C        2.8393505    -1.0752643     0.8648726
  C        3.3454510     0.7479200    -0.6334830
  C       -1.3791480    -1.2185740    -0.6492330
  C       -3.8612840    -0.4227650     0.3079770
  C       -2.4390410    -2.1168890    -0.6711390
  C        5.1038640    -0.8322750     0.2664150
  C       -3.6857840    -1.7096250    -0.1856360
  H        0.5383950    -1.1258400     1.2710410
  H        1.7737210     2.0503190    -1.3473030
  H        2.8902070    -1.8603380     1.4919100
  H        4.1335430     1.2826870    -1.1615780
  H       -0.4095800    -1.5185310    -1.0371660
  H       -4.8387790    -0.1097830     0.6721110
  H       -2.3031150    -3.1155080    -1.0770870
  H        5.8059070     0.0022690     0.1830070
  H        5.2850310    -1.3360150     1.2200590
  H        5.3367840    -1.5427250    -0.5345020
  H       -4.5250650    -2.4017370    -0.1822600
  H       -2.3845940     2.4838010     0.4485930
  H       -3.9825350     2.0742830     0.8527820
units angstrom
no_reorient  #important for SAPT in psi4, default
symmetry c1  #important for SAPT in psi4, default
}

set PROPERTIES_ORIGIN ["COM"]
properties('MP2/aug-cc-pvtz', properties = ['dipole'])
--------------------------------------------------------------------------

    Molecular point group: c1
  Charge       = 0
  Multiplicity = 1
  Basis Set: AUG-CC-PVTZ
    Blend: AUG-CC-PVTZ
  Basis Set: (AUG-CC-PVTZ AUX)
    Blend: AUG-CC-PVTZ-JKFIT

    Orbital Energies [Eh]
    ---------------------

    Doubly Occupied:

       1A    -20.539828     2A    -15.560670     3A    -11.340191
       4A    -11.297550     5A    -11.268615     6A    -11.253280
       7A    -11.252606     8A    -11.247501     9A    -11.245923
      10A    -11.245863    11A    -11.240419    12A    -11.239901
      13A    -11.239058    14A    -11.232463    15A    -11.228680
      16A    -11.226430    17A     -1.372856    18A     -1.227214
      19A     -1.162139    20A     -1.137886    21A     -1.078333
      22A     -1.037829    23A     -1.004838    24A     -0.996567
      25A     -0.947474    26A     -0.876756    27A     -0.853248
      28A     -0.835574    29A     -0.812042    30A     -0.769317
      31A     -0.714745    32A     -0.691267    33A     -0.687515
      34A     -0.665074    35A     -0.650780    36A     -0.642659
      37A     -0.614513    38A     -0.605795    39A     -0.602981
      40A     -0.587024    41A     -0.585475    42A     -0.582718
      43A     -0.556368    44A     -0.540793    45A     -0.531437
      46A     -0.517630    47A     -0.513447    48A     -0.506682
      49A     -0.478684    50A     -0.476413    51A     -0.452418
      52A     -0.417012    53A     -0.352845    54A     -0.349204
      55A     -0.326538    56A     -0.300855

  @DF-RHF Final Energy:  -667.23479681892979

   => Energetics <=

    Nuclear Repulsion Energy =            990.8104391360038790
    One-Electron Energy =               -2872.6466289649588361
    Two-Electron Energy =                1214.6013930100252765
    Total Energy =                       -667.2347968189296807
  Basis Set: (AUG-CC-PVTZ AUX)
    Blend: AUG-CC-PVTZ-RI
    Molecular point group: c1

    Geometry (in Angstrom), charge = 0, multiplicity = 1:

       Center              X                  Y                   Z               Mass
    ------------   -----------------  -----------------  -----------------  -----------------
         O           -0.526202412521     2.234994647446    -0.296893578515    15.994914619570
         N           -2.989326412521     1.760652647446     0.827576421485    14.003074004430
         C            1.024428587479     0.470170647446    -0.084505578515    12.000000000000
         C           -1.509349412521     0.065211647446    -0.140121578515    12.000000000000
         C           -0.364193412521     1.007940647446    -0.181912578515    12.000000000000
         C            3.702943587479    -0.374203352554     0.171113421485    12.000000000000
         C           -2.789179412521     0.494299647446     0.299161421485    12.000000000000
         C            1.344845587479    -0.630228352554     0.723907421485    12.000000000000
         C            2.050978587479     1.157964647446    -0.746521578515    12.000000000000
         C            2.862960087479    -1.095965652554     0.867587021485    12.000000000000
         C            3.369060587479     0.727218647446    -0.630768578515    12.000000000000
         C           -1.355538412521    -1.239275352554    -0.646518578515    12.000000000000
         C           -3.837674412521    -0.443466352554     0.310691421485    12.000000000000
         C           -2.415431412521    -2.137590352554    -0.668424578515    12.000000000000
         C            5.127473587479    -0.852976352554     0.269129421485    12.000000000000
         C           -3.662174412521    -1.730326352554    -0.182921578515    12.000000000000
         H            0.562004587479    -1.146541352554     1.273755421485     1.007825032230
         H            1.797330587479     2.029617647446    -1.344588578515     1.007825032230
         H            2.913816587479    -1.881039352554     1.494624421485     1.007825032230
         H            4.157152587479     1.261985647446    -1.158863578515     1.007825032230
         H           -0.385970412521    -1.539232352554    -1.034451578515     1.007825032230
         H           -4.815169412521    -0.130484352554     0.674825421485     1.007825032230
         H           -2.279505412521    -3.136209352554    -1.074372578515     1.007825032230
         H            5.829516587479    -0.018432352554     0.185721421485     1.007825032230
         H            5.308640587479    -1.356716352554     1.222773421485     1.007825032230
         H            5.360393587479    -1.563426352554    -0.531787578515     1.007825032230
         H           -4.501455412521    -2.422438352554    -0.179545578515     1.007825032230
         H           -2.360984412521     2.463099647446     0.451307421485     1.007825032230
         H           -3.958925412521     2.053581647446     0.855496421485     1.007825032230

  Basis Set: AUG-CC-PVTZ
    Blend: AUG-CC-PVTZ
  Basis Set: (AUG-CC-PVTZ AUX)
    Blend: AUG-CC-PVTZ-JKFIT
	 Reference Energy          =    -667.2347968189297944 [Eh]
	 Singles Energy            =      -0.0000000000000000 [Eh]
	 Same-Spin Energy          =      -0.7348669627737893 [Eh]
	 Opposite-Spin Energy      =      -2.2678847535385858 [Eh]
	 Correlation Energy        =      -3.0027517163123751 [Eh]
	 Total Energy              =    -670.2375485352421265 [Eh]

	 ================> DF-SCS-MP2 Energies <==================
	-----------------------------------------------------------
	 SCS Same-Spin Scale       =       0.3333333333333333 [-]
	 SCS Opposite-Spin Scale   =       1.2000000000000000 [-]
	 SCS Same-Spin Energy      =      -0.2449556542579298 [Eh]
	 SCS Opposite-Spin Energy  =      -2.7214617042463027 [Eh]
	 SCS Correlation Energy    =      -2.9664173585042324 [Eh]
	 SCS Total Energy          =    -670.2012141774340535 [Eh]
	-----------------------------------------------------------

  Dipole Moment: [D]
     X:     0.1739      Y:    -1.8136      Z:    -0.0812     Total:     1.8237

*** Psi4 exiting successfully. Buy a developer a beer!
