                               Psi4 1.4a3.dev225

  ==> Input File <==

--------------------------------------------------------------------------
#psi4
#
memory 32 gb

molecule  {
0 1
  O       -0.5498120     2.2556960    -0.2996080
  N       -3.0129360     1.7813540     0.8248620
  C        1.0008190     0.4908720    -0.0872200
  C       -1.5329590     0.0859130    -0.1428360
  C       -0.3878030     1.0286420    -0.1846270
  C        3.6793340    -0.3535020     0.1683990
  C       -2.8127890     0.5150010     0.2964470
  C        1.3212360    -0.6095270     0.7211930
  C        2.0273690     1.1786660    -0.7492360
  C        2.6489240    -1.0168440     0.8468500
  C        3.3454510     0.7479200    -0.6334830
  C       -1.4707630    -1.1237523    -0.5878324
  C       -3.8612840    -0.4227650     0.3079770
  C       -2.4390410    -2.1168890    -0.6711390
  C        5.1038640    -0.8322750     0.2664150
  C       -3.6857840    -1.7096250    -0.1856360
  H        0.5383950    -1.1258400     1.2710410
  H        1.7737210     2.0503190    -1.3473030
  H        2.8902070    -1.8603380     1.4919100
  H        4.1335430     1.2826870    -1.1615780
  H       -0.4095800    -1.5185310    -1.0371660
  H       -4.8387790    -0.1097830     0.6721110
  H       -2.3031150    -3.1155080    -1.0770870
  H        5.8059070     0.0022690     0.1830070
  H        5.2850310    -1.3360150     1.2200590
  H        5.3367840    -1.5427250    -0.5345020
  H       -4.5250650    -2.4017370    -0.1822600
  H       -2.3845940     2.4838010     0.4485930
  H       -3.9825350     2.0742830     0.8527820
units angstrom
no_reorient  #important for SAPT in psi4, default
symmetry c1  #important for SAPT in psi4, default
}

set PROPERTIES_ORIGIN ["COM"]
properties('MP2/aug-cc-pvtz', properties = ['dipole'])
--------------------------------------------------------------------------

    Molecular point group: c1
  Charge       = 0
  Multiplicity = 1
  Basis Set: AUG-CC-PVTZ
    Blend: AUG-CC-PVTZ
  Basis Set: (AUG-CC-PVTZ AUX)
    Blend: AUG-CC-PVTZ-JKFIT

    Orbital Energies [Eh]
    ---------------------

    Doubly Occupied:

       1A    -20.543608     2A    -15.560434     3A    -11.343707
       4A    -11.296512     5A    -11.257904     6A    -11.251447
       7A    -11.249811     8A    -11.249449     9A    -11.247211
      10A    -11.244616    11A    -11.239363    12A    -11.238153
      13A    -11.233523    14A    -11.230706    15A    -11.225870
      16A    -11.225243    17A     -1.375921    18A     -1.229671
      19A     -1.166523    20A     -1.149468    21A     -1.071890
      22A     -1.044050    23A     -1.021809    24A     -0.991317
      25A     -0.956664    26A     -0.876482    27A     -0.838826
      28A     -0.831153    29A     -0.819736    30A     -0.771839
      31A     -0.713343    32A     -0.692793    33A     -0.685418
      34A     -0.661804    35A     -0.646201    36A     -0.639806
      37A     -0.615120    38A     -0.605237    39A     -0.593706
      40A     -0.590323    41A     -0.585787    42A     -0.579867
      43A     -0.558419    44A     -0.547038    45A     -0.539204
      46A     -0.520966    47A     -0.510515    48A     -0.494317
      49A     -0.489379    50A     -0.476820    51A     -0.456254
      52A     -0.421081    53A     -0.361597    54A     -0.344042
      55A     -0.334096    56A     -0.296602

  @DF-RHF Final Energy:  -667.25072555993404

   => Energetics <=

    Nuclear Repulsion Energy =            995.1641313266007955
    One-Electron Energy =               -2881.3444251274813723
    Two-Electron Energy =                1218.9295682409463097
    Total Energy =                       -667.2507255599341534
  Basis Set: (AUG-CC-PVTZ AUX)
    Blend: AUG-CC-PVTZ-RI
    Molecular point group: c1

    Geometry (in Angstrom), charge = 0, multiplicity = 1:

       Center              X                  Y                   Z               Mass
    ------------   -----------------  -----------------  -----------------  -----------------
         O           -0.510169714346     2.226283579274    -0.299359408477    15.994914619570
         N           -2.973293714346     1.751941579274     0.825110591523    14.003074004430
         C            1.040461285654     0.461459579274    -0.086971408477    12.000000000000
         C           -1.493316714346     0.056500579274    -0.142587408477    12.000000000000
         C           -0.348160714346     0.999229579274    -0.184378408477    12.000000000000
         C            3.718976285654    -0.382914420726     0.168647591523    12.000000000000
         C           -2.773146714346     0.485588579274     0.296695591523    12.000000000000
         C            1.360878285654    -0.638939420726     0.721441591523    12.000000000000
         C            2.067011285654     1.149253579274    -0.748987408477    12.000000000000
         C            2.688566285654    -1.046256420726     0.847098591523    12.000000000000
         C            3.385093285654     0.718507579274    -0.633234408477    12.000000000000
         C           -1.431120714346    -1.153164720726    -0.587583808477    12.000000000000
         C           -3.821641714346    -0.452177420726     0.308225591523    12.000000000000
         C           -2.399398714346    -2.146301420726    -0.670890408477    12.000000000000
         C            5.143506285654    -0.861687420726     0.266663591523    12.000000000000
         C           -3.646141714346    -1.739037420726    -0.185387408477    12.000000000000
         H            0.578037285654    -1.155252420726     1.271289591523     1.007825032230
         H            1.813363285654     2.020906579274    -1.347054408477     1.007825032230
         H            2.929849285654    -1.889750420726     1.492158591523     1.007825032230
         H            4.173185285654     1.253274579274    -1.161329408477     1.007825032230
         H           -0.369937714346    -1.547943420726    -1.036917408477     1.007825032230
         H           -4.799136714346    -0.139195420726     0.672359591523     1.007825032230
         H           -2.263472714346    -3.144920420726    -1.076838408477     1.007825032230
         H            5.845549285654    -0.027143420726     0.183255591523     1.007825032230
         H            5.324673285654    -1.365427420726     1.220307591523     1.007825032230
         H            5.376426285654    -1.572137420726    -0.534253408477     1.007825032230
         H           -4.485422714346    -2.431149420726    -0.182011408477     1.007825032230
         H           -2.344951714346     2.454388579274     0.448841591523     1.007825032230
         H           -3.942892714346     2.044870579274     0.853030591523     1.007825032230

  Basis Set: AUG-CC-PVTZ
    Blend: AUG-CC-PVTZ
  Basis Set: (AUG-CC-PVTZ AUX)
    Blend: AUG-CC-PVTZ-JKFIT
	 Reference Energy          =    -667.2507255599340397 [Eh]
	 Singles Energy            =      -0.0000000000000000 [Eh]
	 Same-Spin Energy          =      -0.7358016321554359 [Eh]
	 Opposite-Spin Energy      =      -2.2663024600874171 [Eh]
	 Correlation Energy        =      -3.0021040922428530 [Eh]
	 Total Energy              =    -670.2528296521768425 [Eh]

	 ================> DF-SCS-MP2 Energies <==================
	-----------------------------------------------------------
	 SCS Same-Spin Scale       =       0.3333333333333333 [-]
	 SCS Opposite-Spin Scale   =       1.2000000000000000 [-]
	 SCS Same-Spin Energy      =      -0.2452672107184786 [Eh]
	 SCS Opposite-Spin Energy  =      -2.7195629521049005 [Eh]
	 SCS Correlation Energy    =      -2.9648301628233793 [Eh]
	 SCS Total Energy          =    -670.2155557227574718 [Eh]
	-----------------------------------------------------------

  Dipole Moment: [D]
     X:     0.4896      Y:    -1.6974      Z:    -0.0921     Total:     1.7690

*** Psi4 exiting successfully. Buy a developer a beer!
