                               Psi4 1.4a3.dev225

  ==> Input File <==

--------------------------------------------------------------------------
#psi4
#
memory 32 gb

molecule  {
0 1
  O       -0.5498120     2.2556960    -0.2996080
  N       -3.0129360     1.7813540     0.8248620
  C        1.0008190     0.4908720    -0.0872200
  C       -1.5329590     0.0859130    -0.1428360
  C       -0.3878030     1.0286420    -0.1846270
  C        3.6793340    -0.3535020     0.1683990
  C       -2.8127890     0.5150010     0.2964470
  C        1.3212360    -0.6095270     0.7211930
  C        2.0273690     1.1786660    -0.7492360
  C        2.6489240    -1.0168440     0.8468500
  C        3.3454510     0.7479200    -0.6334830
  C       -1.3791480    -1.2185740    -0.6492330
  C       -3.8612840    -0.4227650     0.3079770
  C       -2.4390410    -2.1168890    -0.6711390
  C        5.1038640    -0.8322750     0.2664150
  C       -3.6857840    -1.7096250    -0.1856360
  H        0.5383950    -1.1258400     1.2710410
  H        1.7737210     2.0503190    -1.3473030
  H        2.8902070    -1.8603380     1.4919100
  H        4.1335430     1.2826870    -1.1615780
  H       -0.4095800    -1.5185310    -1.0371660
  H       -4.8387790    -0.1097830     0.6721110
  H       -2.3031150    -3.1155080    -1.0770870
  H        5.8131461    -0.0023348     0.2000599
  H        5.2850310    -1.3360150     1.2200590
  H        5.3367840    -1.5427250    -0.5345020
  H       -4.5250650    -2.4017370    -0.1822600
  H       -2.3845940     2.4838010     0.4485930
  H       -3.9825350     2.0742830     0.8527820
units angstrom
no_reorient  #important for SAPT in psi4, default
symmetry c1  #important for SAPT in psi4, default
}

set PROPERTIES_ORIGIN ["COM"]
properties('MP2/aug-cc-pvtz', properties = ['dipole'])
--------------------------------------------------------------------------

    Molecular point group: c1
  Charge       = 0
  Multiplicity = 1
  Basis Set: AUG-CC-PVTZ
    Blend: AUG-CC-PVTZ
  Basis Set: (AUG-CC-PVTZ AUX)
    Blend: AUG-CC-PVTZ-JKFIT

    Orbital Energies [Eh]
    ---------------------

    Doubly Occupied:

       1A    -20.538033     2A    -15.560031     3A    -11.338500
       4A    -11.296908     5A    -11.257403     6A    -11.252733
       7A    -11.252265     8A    -11.250590     9A    -11.246307
      10A    -11.243592    11A    -11.239163    12A    -11.239122
      13A    -11.237810    14A    -11.233157    15A    -11.231969
      16A    -11.228306    17A     -1.371089    18A     -1.226568
      19A     -1.165195    20A     -1.137113    21A     -1.069515
      22A     -1.034561    23A     -1.020599    24A     -0.996557
      25A     -0.954601    26A     -0.877043    27A     -0.838816
      28A     -0.836477    29A     -0.813145    30A     -0.766186
      31A     -0.712751    32A     -0.691818    33A     -0.686222
      34A     -0.661201    35A     -0.645135    36A     -0.636456
      37A     -0.614188    38A     -0.603709    39A     -0.599893
      40A     -0.592644    41A     -0.585199    42A     -0.584348
      43A     -0.555267    44A     -0.543924    45A     -0.531734
      46A     -0.518254    47A     -0.513292    48A     -0.504852
      49A     -0.493346    50A     -0.482182    51A     -0.452302
      52A     -0.418941    53A     -0.349732    54A     -0.343079
      55A     -0.334082    56A     -0.300366

  @DF-RHF Final Energy:  -667.27656311695910

   => Energetics <=

    Nuclear Repulsion Energy =            992.8624065492839463
    One-Electron Energy =               -2876.8613921611990918
    Two-Electron Energy =                1216.7224224949559357
    Total Energy =                       -667.2765631169590961
  Basis Set: (AUG-CC-PVTZ AUX)
    Blend: AUG-CC-PVTZ-RI
    Molecular point group: c1

    Geometry (in Angstrom), charge = 0, multiplicity = 1:

       Center              X                  Y                   Z               Mass
    ------------   -----------------  -----------------  -----------------  -----------------
         O           -0.515412145636     2.231695714625    -0.295950494051    15.994914619570
         N           -2.978536145636     1.757353714625     0.828519505949    14.003074004430
         C            1.035218854364     0.466871714625    -0.083562494051    12.000000000000
         C           -1.498559145636     0.061912714625    -0.139178494051    12.000000000000
         C           -0.353403145636     1.004641714625    -0.180969494051    12.000000000000
         C            3.713733854364    -0.377502285375     0.172056505949    12.000000000000
         C           -2.778389145636     0.491000714625     0.300104505949    12.000000000000
         C            1.355635854364    -0.633527285375     0.724850505949    12.000000000000
         C            2.061768854364     1.154665714625    -0.745578494051    12.000000000000
         C            2.683323854364    -1.040844285375     0.850507505949    12.000000000000
         C            3.379850854364     0.723919714625    -0.629825494051    12.000000000000
         C           -1.344748145636    -1.242574285375    -0.645575494051    12.000000000000
         C           -3.826884145636    -0.446765285375     0.311634505949    12.000000000000
         C           -2.404641145636    -2.140889285375    -0.667481494051    12.000000000000
         C            5.138263854364    -0.856275285375     0.270072505949    12.000000000000
         C           -3.651384145636    -1.733625285375    -0.181978494051    12.000000000000
         H            0.572794854364    -1.149840285375     1.274698505949     1.007825032230
         H            1.808120854364     2.026318714625    -1.343645494051     1.007825032230
         H            2.924606854364    -1.884338285375     1.495567505949     1.007825032230
         H            4.167942854364     1.258686714625    -1.157920494051     1.007825032230
         H           -0.375180145636    -1.542531285375    -1.033508494051     1.007825032230
         H           -4.804379145636    -0.133783285375     0.675768505949     1.007825032230
         H           -2.268715145636    -3.139508285375    -1.073429494051     1.007825032230
         H            5.847545954364    -0.026335085375     0.203717405949     1.007825032230
         H            5.319430854364    -1.360015285375     1.223716505949     1.007825032230
         H            5.371183854364    -1.566725285375    -0.530844494051     1.007825032230
         H           -4.490665145636    -2.425737285375    -0.178602494051     1.007825032230
         H           -2.350194145636     2.459800714625     0.452250505949     1.007825032230
         H           -3.948135145636     2.050282714625     0.856439505949     1.007825032230

  Basis Set: AUG-CC-PVTZ
    Blend: AUG-CC-PVTZ
  Basis Set: (AUG-CC-PVTZ AUX)
    Blend: AUG-CC-PVTZ-JKFIT
	 Reference Energy          =    -667.2765631169590961 [Eh]
	 Singles Energy            =      -0.0000000000000000 [Eh]
	 Same-Spin Energy          =      -0.7355159193181809 [Eh]
	 Opposite-Spin Energy      =      -2.2655065054038861 [Eh]
	 Correlation Energy        =      -3.0010224247220672 [Eh]
	 Total Energy              =    -670.2775855416812192 [Eh]

	 ================> DF-SCS-MP2 Energies <==================
	-----------------------------------------------------------
	 SCS Same-Spin Scale       =       0.3333333333333333 [-]
	 SCS Opposite-Spin Scale   =       1.2000000000000000 [-]
	 SCS Same-Spin Energy      =      -0.2451719731060603 [Eh]
	 SCS Opposite-Spin Energy  =      -2.7186078064846630 [Eh]
	 SCS Correlation Energy    =      -2.9637797795907233 [Eh]
	 SCS Total Energy          =    -670.2403428965498051 [Eh]
	-----------------------------------------------------------

  Dipole Moment: [D]
     X:     0.3519      Y:    -1.8124      Z:    -0.1005     Total:     1.8490

*** Psi4 exiting successfully. Buy a developer a beer!
