                               Psi4 1.4a3.dev225

  ==> Input File <==

--------------------------------------------------------------------------
#psi4
#
memory 32 gb

molecule  {
0 1
  O       -0.5498120     2.2556960    -0.2996080
  N       -3.0129360     1.7813540     0.8248620
  C        1.0008190     0.4908720    -0.0872200
  C       -1.5329590     0.0859130    -0.1428360
  C       -0.3878030     1.0286420    -0.1846270
  C        3.6793340    -0.3535020     0.1683990
  C       -2.8127890     0.5150010     0.2964470
  C        1.3212360    -0.6095270     0.7211930
  C        2.0273690     1.1786660    -0.7492360
  C        2.6489240    -1.0168440     0.8468500
  C        3.3454510     0.7479200    -0.6334830
  C       -1.3791480    -1.2185740    -0.6492330
  C       -3.7122152    -0.2894390     0.3063377
  C       -2.4390410    -2.1168890    -0.6711390
  C        5.1038640    -0.8322750     0.2664150
  C       -3.6857840    -1.7096250    -0.1856360
  H        0.5383950    -1.1258400     1.2710410
  H        1.7737210     2.0503190    -1.3473030
  H        2.8902070    -1.8603380     1.4919100
  H        4.1335430     1.2826870    -1.1615780
  H       -0.4095800    -1.5185310    -1.0371660
  H       -4.8387790    -0.1097830     0.6721110
  H       -2.3031150    -3.1155080    -1.0770870
  H        5.8059070     0.0022690     0.1830070
  H        5.2850310    -1.3360150     1.2200590
  H        5.3367840    -1.5427250    -0.5345020
  H       -4.5250650    -2.4017370    -0.1822600
  H       -2.3845940     2.4838010     0.4485930
  H       -3.9825350     2.0742830     0.8527820
units angstrom
no_reorient  #important for SAPT in psi4, default
symmetry c1  #important for SAPT in psi4, default
}

set PROPERTIES_ORIGIN ["COM"]
properties('MP2/aug-cc-pvtz', properties = ['dipole'])
--------------------------------------------------------------------------

    Molecular point group: c1
  Charge       = 0
  Multiplicity = 1
  Basis Set: AUG-CC-PVTZ
    Blend: AUG-CC-PVTZ
  Basis Set: (AUG-CC-PVTZ AUX)
    Blend: AUG-CC-PVTZ-JKFIT

    Orbital Energies [Eh]
    ---------------------

    Doubly Occupied:

       1A    -20.539383     2A    -15.543318     3A    -11.339580
       4A    -11.267023     5A    -11.259264     6A    -11.258034
       7A    -11.256868     8A    -11.251310     9A    -11.247008
      10A    -11.246537    11A    -11.244417    12A    -11.239797
      13A    -11.238508    14A    -11.236101    15A    -11.233796
      16A    -11.223695    17A     -1.371987    18A     -1.233266
      19A     -1.165925    20A     -1.137360    21A     -1.069313
      22A     -1.030140    23A     -1.021617    24A     -1.018441
      25A     -0.954458    26A     -0.888258    27A     -0.838822
      28A     -0.834946    29A     -0.805695    30A     -0.769033
      31A     -0.711249    32A     -0.690327    33A     -0.680258
      34A     -0.662001    35A     -0.643672    36A     -0.636058
      37A     -0.619801    38A     -0.609299    39A     -0.597604
      40A     -0.593152    41A     -0.585005    42A     -0.569445
      43A     -0.561747    44A     -0.550626    45A     -0.542857
      46A     -0.523524    47A     -0.511890    48A     -0.494365
      49A     -0.487086    50A     -0.468740    51A     -0.446765
      52A     -0.421091    53A     -0.345888    54A     -0.337580
      55A     -0.334694    56A     -0.319917

  @DF-RHF Final Energy:  -667.21415343687738

   => Energetics <=

    Nuclear Repulsion Energy =            996.4589172553256731
    One-Electron Energy =               -2883.9290623958645483
    Two-Electron Energy =                1220.2559917036614934
    Total Energy =                       -667.2141534368774956
  Basis Set: (AUG-CC-PVTZ AUX)
    Blend: AUG-CC-PVTZ-RI
    Molecular point group: c1

    Geometry (in Angstrom), charge = 0, multiplicity = 1:

       Center              X                  Y                   Z               Mass
    ------------   -----------------  -----------------  -----------------  -----------------
         O           -0.523851426864     2.224094795637    -0.295775894386    15.994914619570
         N           -2.986975426864     1.749752795637     0.828694105614    14.003074004430
         C            1.026779573136     0.459270795637    -0.083387894386    12.000000000000
         C           -1.506998426864     0.054311795637    -0.139003894386    12.000000000000
         C           -0.361842426864     0.997040795637    -0.180794894386    12.000000000000
         C            3.705294573136    -0.385103204363     0.172231105614    12.000000000000
         C           -2.786828426864     0.483399795637     0.300279105614    12.000000000000
         C            1.347196573136    -0.641128204363     0.725025105614    12.000000000000
         C            2.053329573136     1.147064795637    -0.745403894386    12.000000000000
         C            2.674884573136    -1.048445204363     0.850682105614    12.000000000000
         C            3.371411573136     0.716318795637    -0.629650894386    12.000000000000
         C           -1.353187426864    -1.250175204363    -0.645400894386    12.000000000000
         C           -3.686254626864    -0.321040204363     0.310169805614    12.000000000000
         C           -2.413080426864    -2.148490204363    -0.667306894386    12.000000000000
         C            5.129824573136    -0.863876204363     0.270247105614    12.000000000000
         C           -3.659823426864    -1.741226204363    -0.181803894386    12.000000000000
         H            0.564355573136    -1.157441204363     1.274873105614     1.007825032230
         H            1.799681573136     2.018717795637    -1.343470894386     1.007825032230
         H            2.916167573136    -1.891939204363     1.495742105614     1.007825032230
         H            4.159503573136     1.251085795637    -1.157745894386     1.007825032230
         H           -0.383619426864    -1.550132204363    -1.033333894386     1.007825032230
         H           -4.812818426864    -0.141384204363     0.675943105614     1.007825032230
         H           -2.277154426864    -3.147109204363    -1.073254894386     1.007825032230
         H            5.831867573136    -0.029332204363     0.186839105614     1.007825032230
         H            5.310991573136    -1.367616204363     1.223891105614     1.007825032230
         H            5.362744573136    -1.574326204363    -0.530669894386     1.007825032230
         H           -4.499104426864    -2.433338204363    -0.178427894386     1.007825032230
         H           -2.358633426864     2.452199795637     0.452425105614     1.007825032230
         H           -3.956574426864     2.042681795637     0.856614105614     1.007825032230

  Basis Set: AUG-CC-PVTZ
    Blend: AUG-CC-PVTZ
  Basis Set: (AUG-CC-PVTZ AUX)
    Blend: AUG-CC-PVTZ-JKFIT
	 Reference Energy          =    -667.2141534368773819 [Eh]
	 Singles Energy            =      -0.0000000000000000 [Eh]
	 Same-Spin Energy          =      -0.7359417416026047 [Eh]
	 Opposite-Spin Energy      =      -2.2682226039337512 [Eh]
	 Correlation Energy        =      -3.0041643455363558 [Eh]
	 Total Energy              =    -670.2183177824136919 [Eh]

	 ================> DF-SCS-MP2 Energies <==================
	-----------------------------------------------------------
	 SCS Same-Spin Scale       =       0.3333333333333333 [-]
	 SCS Opposite-Spin Scale   =       1.2000000000000000 [-]
	 SCS Same-Spin Energy      =      -0.2453139138675349 [Eh]
	 SCS Opposite-Spin Energy  =      -2.7218671247205015 [Eh]
	 SCS Correlation Energy    =      -2.9671810385880364 [Eh]
	 SCS Total Energy          =    -670.1813344754654054 [Eh]
	-----------------------------------------------------------

  Dipole Moment: [D]
     X:     0.6376      Y:    -2.3033      Z:    -0.3568     Total:     2.4164

*** Psi4 exiting successfully. Buy a developer a beer!
