                               Psi4 1.4a3.dev225

  ==> Input File <==

--------------------------------------------------------------------------
#psi4
#
memory 32 gb

molecule  {
0 1
  O       -0.5498120     2.2556960    -0.2996080
  N       -3.0129360     1.7813540     0.8248620
  C        1.0008190     0.4908720    -0.0872200
  C       -1.4856690     0.0945228    -0.1530353
  C       -0.3878030     1.0286420    -0.1846270
  C        3.6793340    -0.3535020     0.1683990
  C       -2.8127890     0.5150010     0.2964470
  C        1.3212360    -0.6095270     0.7211930
  C        2.0273690     1.1786660    -0.7492360
  C        2.6489240    -1.0168440     0.8468500
  C        3.3454510     0.7479200    -0.6334830
  C       -1.3791480    -1.2185740    -0.6492330
  C       -3.8612840    -0.4227650     0.3079770
  C       -2.4390410    -2.1168890    -0.6711390
  C        5.1038640    -0.8322750     0.2664150
  C       -3.6857840    -1.7096250    -0.1856360
  H        0.5383950    -1.1258400     1.2710410
  H        1.7737210     2.0503190    -1.3473030
  H        2.8902070    -1.8603380     1.4919100
  H        4.1335430     1.2826870    -1.1615780
  H       -0.4095800    -1.5185310    -1.0371660
  H       -4.8387790    -0.1097830     0.6721110
  H       -2.3031150    -3.1155080    -1.0770870
  H        5.8059070     0.0022690     0.1830070
  H        5.2850310    -1.3360150     1.2200590
  H        5.3367840    -1.5427250    -0.5345020
  H       -4.5250650    -2.4017370    -0.1822600
  H       -2.3845940     2.4838010     0.4485930
  H       -3.9825350     2.0742830     0.8527820
units angstrom
no_reorient  #important for SAPT in psi4, default
symmetry c1  #important for SAPT in psi4, default
}

set PROPERTIES_ORIGIN ["COM"]
properties('MP2/aug-cc-pvtz', properties = ['dipole'])
--------------------------------------------------------------------------

    Molecular point group: c1
  Charge       = 0
  Multiplicity = 1
  Basis Set: AUG-CC-PVTZ
    Blend: AUG-CC-PVTZ
  Basis Set: (AUG-CC-PVTZ AUX)
    Blend: AUG-CC-PVTZ-JKFIT

    Orbital Energies [Eh]
    ---------------------

    Doubly Occupied:

       1A    -20.535367     2A    -15.562477     3A    -11.334559
       4A    -11.303973     5A    -11.256361     6A    -11.256008
       7A    -11.254834     8A    -11.249515     9A    -11.245050
      10A    -11.241879    11A    -11.239888    12A    -11.238260
      13A    -11.236926    14A    -11.232581    15A    -11.232078
      16A    -11.228574    17A     -1.369964    18A     -1.226412
      19A     -1.164447    20A     -1.136921    21A     -1.070849
      22A     -1.036774    23A     -1.019837    24A     -0.995552
      25A     -0.953360    26A     -0.882628    27A     -0.837498
      28A     -0.833389    29A     -0.813413    30A     -0.766783
      31A     -0.712749    32A     -0.695017    33A     -0.687614
      34A     -0.661193    35A     -0.644571    36A     -0.636059
      37A     -0.612818    38A     -0.604369    39A     -0.600072
      40A     -0.591618    41A     -0.583774    42A     -0.583397
      43A     -0.555344    44A     -0.543950    45A     -0.534577
      46A     -0.516857    47A     -0.512254    48A     -0.500779
      49A     -0.492604    50A     -0.481083    51A     -0.453492
      52A     -0.420405    53A     -0.351192    54A     -0.342467
      55A     -0.333043    56A     -0.298627

  @DF-RHF Final Energy:  -667.27307894991873

   => Energetics <=

    Nuclear Repulsion Energy =            992.9816754609028067
    One-Electron Energy =               -2877.0973432848309130
    Two-Electron Energy =                1216.8425888740093797
    Total Energy =                       -667.2730789499187267
  Basis Set: (AUG-CC-PVTZ AUX)
    Blend: AUG-CC-PVTZ-RI
    Molecular point group: c1

    Geometry (in Angstrom), charge = 0, multiplicity = 1:

       Center              X                  Y                   Z               Mass
    ------------   -----------------  -----------------  -----------------  -----------------
         O           -0.518065793256     2.231184309740    -0.295289299695    15.994914619570
         N           -2.981189793256     1.756842309740     0.829180700305    14.003074004430
         C            1.032565206744     0.466360309740    -0.082901299695    12.000000000000
         C           -1.453922793256     0.070011109740    -0.148716599695    12.000000000000
         C           -0.356056793256     1.004130309740    -0.180308299695    12.000000000000
         C            3.711080206744    -0.378013690260     0.172717700305    12.000000000000
         C           -2.781042793256     0.490489309740     0.300765700305    12.000000000000
         C            1.352982206744    -0.634038690260     0.725511700305    12.000000000000
         C            2.059115206744     1.154154309740    -0.744917299695    12.000000000000
         C            2.680670206744    -1.041355690260     0.851168700305    12.000000000000
         C            3.377197206744     0.723408309740    -0.629164299695    12.000000000000
         C           -1.347401793256    -1.243085690260    -0.644914299695    12.000000000000
         C           -3.829537793256    -0.447276690260     0.312295700305    12.000000000000
         C           -2.407294793256    -2.141400690260    -0.666820299695    12.000000000000
         C            5.135610206744    -0.856786690260     0.270733700305    12.000000000000
         C           -3.654037793256    -1.734136690260    -0.181317299695    12.000000000000
         H            0.570141206744    -1.150351690260     1.275359700305     1.007825032230
         H            1.805467206744     2.025807309740    -1.342984299695     1.007825032230
         H            2.921953206744    -1.884849690260     1.496228700305     1.007825032230
         H            4.165289206744     1.258175309740    -1.157259299695     1.007825032230
         H           -0.377833793256    -1.543042690260    -1.032847299695     1.007825032230
         H           -4.807032793256    -0.134294690260     0.676429700305     1.007825032230
         H           -2.271368793256    -3.140019690260    -1.072768299695     1.007825032230
         H            5.837653206744    -0.022242690260     0.187325700305     1.007825032230
         H            5.316777206744    -1.360526690260     1.224377700305     1.007825032230
         H            5.368530206744    -1.567236690260    -0.530183299695     1.007825032230
         H           -4.493318793256    -2.426248690260    -0.177941299695     1.007825032230
         H           -2.352847793256     2.459289309740     0.452911700305     1.007825032230
         H           -3.950788793256     2.049771309740     0.857100700305     1.007825032230

  Basis Set: AUG-CC-PVTZ
    Blend: AUG-CC-PVTZ
  Basis Set: (AUG-CC-PVTZ AUX)
    Blend: AUG-CC-PVTZ-JKFIT
	 Reference Energy          =    -667.2730789499187267 [Eh]
	 Singles Energy            =      -0.0000000000000000 [Eh]
	 Same-Spin Energy          =      -0.7358746850223258 [Eh]
	 Opposite-Spin Energy      =      -2.2659988639573587 [Eh]
	 Correlation Energy        =      -3.0018735489796846 [Eh]
	 Total Energy              =    -670.2749524988984149 [Eh]

	 ================> DF-SCS-MP2 Energies <==================
	-----------------------------------------------------------
	 SCS Same-Spin Scale       =       0.3333333333333333 [-]
	 SCS Opposite-Spin Scale   =       1.2000000000000000 [-]
	 SCS Same-Spin Energy      =      -0.2452915616741086 [Eh]
	 SCS Opposite-Spin Energy  =      -2.7191986367488306 [Eh]
	 SCS Correlation Energy    =      -2.9644901984229390 [Eh]
	 SCS Total Energy          =    -670.2375691483416631 [Eh]
	-----------------------------------------------------------

  Dipole Moment: [D]
     X:     0.1657      Y:    -1.8459      Z:    -0.0761     Total:     1.8549

*** Psi4 exiting successfully. Buy a developer a beer!
