                               Psi4 1.4a3.dev225

  ==> Input File <==

--------------------------------------------------------------------------
#psi4
#
memory 32 gb

molecule  {
0 1
  O       -0.5498120     2.2556960    -0.2996080
  N       -3.0129360     1.7813540     0.8248620
  C        1.0008190     0.4908720    -0.0872200
  C       -1.5329590     0.0859130    -0.1428360
  C       -0.3878030     1.0286420    -0.1846270
  C        3.6793340    -0.3535020     0.1683990
  C       -2.8127890     0.5150010     0.2964470
  C        1.3212360    -0.6095270     0.7211930
  C        2.0273690     1.1786660    -0.7492360
  C        2.6857050    -0.9931657     0.8226323
  C        3.3454510     0.7479200    -0.6334830
  C       -1.3791480    -1.2185740    -0.6492330
  C       -3.8612840    -0.4227650     0.3079770
  C       -2.4390410    -2.1168890    -0.6711390
  C        5.1038640    -0.8322750     0.2664150
  C       -3.6857840    -1.7096250    -0.1856360
  H        0.5383950    -1.1258400     1.2710410
  H        1.7737210     2.0503190    -1.3473030
  H        2.8902070    -1.8603380     1.4919100
  H        4.1335430     1.2826870    -1.1615780
  H       -0.4095800    -1.5185310    -1.0371660
  H       -4.8387790    -0.1097830     0.6721110
  H       -2.3031150    -3.1155080    -1.0770870
  H        5.8059070     0.0022690     0.1830070
  H        5.2850310    -1.3360150     1.2200590
  H        5.3367840    -1.5427250    -0.5345020
  H       -4.5250650    -2.4017370    -0.1822600
  H       -2.3845940     2.4838010     0.4485930
  H       -3.9825350     2.0742830     0.8527820
units angstrom
no_reorient  #important for SAPT in psi4, default
symmetry c1  #important for SAPT in psi4, default
}

set PROPERTIES_ORIGIN ["COM"]
properties('MP2/aug-cc-pvtz', properties = ['dipole'])
--------------------------------------------------------------------------

    Molecular point group: c1
  Charge       = 0
  Multiplicity = 1
  Basis Set: AUG-CC-PVTZ
    Blend: AUG-CC-PVTZ
  Basis Set: (AUG-CC-PVTZ AUX)
    Blend: AUG-CC-PVTZ-JKFIT

    Orbital Energies [Eh]
    ---------------------

    Doubly Occupied:

       1A    -20.538759     2A    -15.560392     3A    -11.338891
       4A    -11.297309     5A    -11.253841     6A    -11.253090
       7A    -11.252605     8A    -11.250479     9A    -11.245324
      10A    -11.244106    11A    -11.239577    12A    -11.238385
      13A    -11.238187    14A    -11.232314    15A    -11.232197
      16A    -11.228631    17A     -1.371723    18A     -1.226943
      19A     -1.168089    20A     -1.137677    21A     -1.072602
      22A     -1.035534    23A     -1.016625    24A     -0.996888
      25A     -0.954422    26A     -0.877953    27A     -0.842758
      28A     -0.837410    29A     -0.812260    30A     -0.764619
      31A     -0.712780    32A     -0.691947    33A     -0.686457
      34A     -0.662395    35A     -0.644454    36A     -0.637112
      37A     -0.614373    38A     -0.604161    39A     -0.600452
      40A     -0.589092    41A     -0.584717    42A     -0.584280
      43A     -0.555731    44A     -0.543230    45A     -0.532019
      46A     -0.518931    47A     -0.513357    48A     -0.504772
      49A     -0.492877    50A     -0.483159    51A     -0.452703
      52A     -0.418967    53A     -0.349667    54A     -0.341692
      55A     -0.338058    56A     -0.300735

  @DF-RHF Final Energy:  -667.27346590075501

   => Energetics <=

    Nuclear Repulsion Energy =            993.2588379447335001
    One-Electron Energy =               -2877.6291958134947890
    Two-Electron Energy =                1217.0968919680062754
    Total Energy =                       -667.2734659007551272
  Basis Set: (AUG-CC-PVTZ AUX)
    Blend: AUG-CC-PVTZ-RI
    Molecular point group: c1

    Geometry (in Angstrom), charge = 0, multiplicity = 1:

       Center              X                  Y                   Z               Mass
    ------------   -----------------  -----------------  -----------------  -----------------
         O           -0.517468407322     2.230327738234    -0.294492421307    15.994914619570
         N           -2.980592407322     1.755985738234     0.829977578693    14.003074004430
         C            1.033162592678     0.465503738234    -0.082104421307    12.000000000000
         C           -1.500615407322     0.060544738234    -0.137720421307    12.000000000000
         C           -0.355459407322     1.003273738234    -0.179511421307    12.000000000000
         C            3.711677592678    -0.378870261766     0.173514578693    12.000000000000
         C           -2.780445407322     0.489632738234     0.301562578693    12.000000000000
         C            1.353579592678    -0.634895261766     0.726308578693    12.000000000000
         C            2.059712592678     1.153297738234    -0.744120421307    12.000000000000
         C            2.718048592678    -1.018533961766     0.827747878693    12.000000000000
         C            3.377794592678     0.722551738234    -0.628367421307    12.000000000000
         C           -1.346804407322    -1.243942261766    -0.644117421307    12.000000000000
         C           -3.828940407322    -0.448133261766     0.313092578693    12.000000000000
         C           -2.406697407322    -2.142257261766    -0.666023421307    12.000000000000
         C            5.136207592678    -0.857643261766     0.271530578693    12.000000000000
         C           -3.653440407322    -1.734993261766    -0.180520421307    12.000000000000
         H            0.570738592678    -1.151208261766     1.276156578693     1.007825032230
         H            1.806064592678     2.024950738234    -1.342187421307     1.007825032230
         H            2.922550592678    -1.885706261766     1.497025578693     1.007825032230
         H            4.165886592678     1.257318738234    -1.156462421307     1.007825032230
         H           -0.377236407322    -1.543899261766    -1.032050421307     1.007825032230
         H           -4.806435407322    -0.135151261766     0.677226578693     1.007825032230
         H           -2.270771407322    -3.140876261766    -1.071971421307     1.007825032230
         H            5.838250592678    -0.023099261766     0.188122578693     1.007825032230
         H            5.317374592678    -1.361383261766     1.225174578693     1.007825032230
         H            5.369127592678    -1.568093261766    -0.529386421307     1.007825032230
         H           -4.492721407322    -2.427105261766    -0.177144421307     1.007825032230
         H           -2.352250407322     2.458432738234     0.453708578693     1.007825032230
         H           -3.950191407322     2.048914738234     0.857897578693     1.007825032230

  Basis Set: AUG-CC-PVTZ
    Blend: AUG-CC-PVTZ
  Basis Set: (AUG-CC-PVTZ AUX)
    Blend: AUG-CC-PVTZ-JKFIT
	 Reference Energy          =    -667.2734659007550135 [Eh]
	 Singles Energy            =      -0.0000000000000000 [Eh]
	 Same-Spin Energy          =      -0.7355206231612248 [Eh]
	 Opposite-Spin Energy      =      -2.2656791625957968 [Eh]
	 Correlation Energy        =      -3.0011997857570218 [Eh]
	 Total Energy              =    -670.2746656865119803 [Eh]

	 ================> DF-SCS-MP2 Energies <==================
	-----------------------------------------------------------
	 SCS Same-Spin Scale       =       0.3333333333333333 [-]
	 SCS Opposite-Spin Scale   =       1.2000000000000000 [-]
	 SCS Same-Spin Energy      =      -0.2451735410537416 [Eh]
	 SCS Opposite-Spin Energy  =      -2.7188149951149563 [Eh]
	 SCS Correlation Energy    =      -2.9639885361686980 [Eh]
	 SCS Total Energy          =    -670.2374544369237128 [Eh]
	-----------------------------------------------------------

  Dipole Moment: [D]
     X:     0.2964      Y:    -1.7965      Z:    -0.1141     Total:     1.8243

*** Psi4 exiting successfully. Buy a developer a beer!
