                               Psi4 1.4a3.dev225

  ==> Input File <==

--------------------------------------------------------------------------
#psi4
#
memory 32 gb

molecule  {
0 1
  O       -0.5498120     2.2556960    -0.2996080
  N       -3.0129360     1.7813540     0.8248620
  C        1.0008190     0.4908720    -0.0872200
  C       -1.5329590     0.0859130    -0.1428360
  C       -0.3878030     1.0286420    -0.1846270
  C        3.6793340    -0.3535020     0.1683990
  C       -2.6710929     0.5358960     0.3199769
  C        1.3212360    -0.6095270     0.7211930
  C        2.0273690     1.1786660    -0.7492360
  C        2.6489240    -1.0168440     0.8468500
  C        3.3454510     0.7479200    -0.6334830
  C       -1.3791480    -1.2185740    -0.6492330
  C       -3.8612840    -0.4227650     0.3079770
  C       -2.4390410    -2.1168890    -0.6711390
  C        5.1038640    -0.8322750     0.2664150
  C       -3.6857840    -1.7096250    -0.1856360
  H        0.5383950    -1.1258400     1.2710410
  H        1.7737210     2.0503190    -1.3473030
  H        2.8902070    -1.8603380     1.4919100
  H        4.1335430     1.2826870    -1.1615780
  H       -0.4095800    -1.5185310    -1.0371660
  H       -4.8387790    -0.1097830     0.6721110
  H       -2.3031150    -3.1155080    -1.0770870
  H        5.8059070     0.0022690     0.1830070
  H        5.2850310    -1.3360150     1.2200590
  H        5.3367840    -1.5427250    -0.5345020
  H       -4.5250650    -2.4017370    -0.1822600
  H       -2.3845940     2.4838010     0.4485930
  H       -3.9825350     2.0742830     0.8527820
units angstrom
no_reorient  #important for SAPT in psi4, default
symmetry c1  #important for SAPT in psi4, default
}

set PROPERTIES_ORIGIN ["COM"]
properties('MP2/aug-cc-pvtz', properties = ['dipole'])
--------------------------------------------------------------------------

    Molecular point group: c1
  Charge       = 0
  Multiplicity = 1
  Basis Set: AUG-CC-PVTZ
    Blend: AUG-CC-PVTZ
  Basis Set: (AUG-CC-PVTZ AUX)
    Blend: AUG-CC-PVTZ-JKFIT

    Orbital Energies [Eh]
    ---------------------

    Doubly Occupied:

       1A    -20.539980     2A    -15.560391     3A    -11.338201
       4A    -11.296633     5A    -11.257717     6A    -11.251221
       7A    -11.249970     8A    -11.247252     9A    -11.246661
      10A    -11.243478    11A    -11.243421    12A    -11.239574
      13A    -11.238116    14A    -11.233483    15A    -11.229392
      16A    -11.227713    17A     -1.373345    18A     -1.226381
      19A     -1.165683    20A     -1.138208    21A     -1.069824
      22A     -1.041193    23A     -1.021725    24A     -0.989156
      25A     -0.956554    26A     -0.870865    27A     -0.848537
      28A     -0.838322    29A     -0.808961    30A     -0.764191
      31A     -0.716417    32A     -0.692996    33A     -0.682394
      34A     -0.661132    35A     -0.650771    36A     -0.637806
      37A     -0.627715    38A     -0.600801    39A     -0.593218
      40A     -0.590219    41A     -0.584734    42A     -0.582731
      43A     -0.556444    44A     -0.545158    45A     -0.525611
      46A     -0.518825    47A     -0.509974    48A     -0.508021
      49A     -0.493767    50A     -0.481662    51A     -0.449926
      52A     -0.415419    53A     -0.353831    54A     -0.344336
      55A     -0.334325    56A     -0.298422

  @DF-RHF Final Energy:  -667.25424027064662

   => Energetics <=

    Nuclear Repulsion Energy =            994.3031791807796935
    One-Electron Energy =               -2879.6892278924742641
    Two-Electron Energy =                1218.1318084410477240
    Total Energy =                       -667.2542402706467328
  Basis Set: (AUG-CC-PVTZ AUX)
    Blend: AUG-CC-PVTZ-RI
    Molecular point group: c1

    Geometry (in Angstrom), charge = 0, multiplicity = 1:

       Center              X                  Y                   Z               Mass
    ------------   -----------------  -----------------  -----------------  -----------------
         O           -0.523432324448     2.230485955407    -0.297206641942    15.994914619570
         N           -2.986556324448     1.756143955407     0.827263358058    14.003074004430
         C            1.027198675552     0.465661955407    -0.084818641942    12.000000000000
         C           -1.506579324448     0.060702955407    -0.140434641942    12.000000000000
         C           -0.361423324448     1.003431955407    -0.182225641942    12.000000000000
         C            3.705713675552    -0.378712044593     0.170800358058    12.000000000000
         C           -2.644713224448     0.510685955407     0.322378258058    12.000000000000
         C            1.347615675552    -0.634737044593     0.723594358058    12.000000000000
         C            2.053748675552     1.153455955407    -0.746834641942    12.000000000000
         C            2.675303675552    -1.042054044593     0.849251358058    12.000000000000
         C            3.371830675552     0.722709955407    -0.631081641942    12.000000000000
         C           -1.352768324448    -1.243784044593    -0.646831641942    12.000000000000
         C           -3.834904324448    -0.447975044593     0.310378358058    12.000000000000
         C           -2.412661324448    -2.142099044593    -0.668737641942    12.000000000000
         C            5.130243675552    -0.857485044593     0.268816358058    12.000000000000
         C           -3.659404324448    -1.734835044593    -0.183234641942    12.000000000000
         H            0.564774675552    -1.151050044593     1.273442358058     1.007825032230
         H            1.800100675552     2.025108955407    -1.344901641942     1.007825032230
         H            2.916586675552    -1.885548044593     1.494311358058     1.007825032230
         H            4.159922675552     1.257476955407    -1.159176641942     1.007825032230
         H           -0.383200324448    -1.543741044593    -1.034764641942     1.007825032230
         H           -4.812399324448    -0.134993044593     0.674512358058     1.007825032230
         H           -2.276735324448    -3.140718044593    -1.074685641942     1.007825032230
         H            5.832286675552    -0.022941044593     0.185408358058     1.007825032230
         H            5.311410675552    -1.361225044593     1.222460358058     1.007825032230
         H            5.363163675552    -1.567935044593    -0.532100641942     1.007825032230
         H           -4.498685324448    -2.426947044593    -0.179858641942     1.007825032230
         H           -2.358214324448     2.458590955407     0.450994358058     1.007825032230
         H           -3.956155324448     2.049072955407     0.855183358058     1.007825032230

  Basis Set: AUG-CC-PVTZ
    Blend: AUG-CC-PVTZ
  Basis Set: (AUG-CC-PVTZ AUX)
    Blend: AUG-CC-PVTZ-JKFIT
	 Reference Energy          =    -667.2542402706466191 [Eh]
	 Singles Energy            =      -0.0000000000000000 [Eh]
	 Same-Spin Energy          =      -0.7349157486913322 [Eh]
	 Opposite-Spin Energy      =      -2.2667254525920897 [Eh]
	 Correlation Energy        =      -3.0016412012834222 [Eh]
	 Total Energy              =    -670.2558814719300244 [Eh]

	 ================> DF-SCS-MP2 Energies <==================
	-----------------------------------------------------------
	 SCS Same-Spin Scale       =       0.3333333333333333 [-]
	 SCS Opposite-Spin Scale   =       1.2000000000000000 [-]
	 SCS Same-Spin Energy      =      -0.2449719162304441 [Eh]
	 SCS Opposite-Spin Energy  =      -2.7200705431105074 [Eh]
	 SCS Correlation Energy    =      -2.9650424593409515 [Eh]
	 SCS Total Energy          =    -670.2192827299875262 [Eh]
	-----------------------------------------------------------

  Dipole Moment: [D]
     X:     0.3724      Y:    -1.7477      Z:    -0.0854     Total:     1.7889

*** Psi4 exiting successfully. Buy a developer a beer!
