                               Psi4 1.4a3.dev225

  ==> Input File <==

--------------------------------------------------------------------------
#psi4
#
memory 32 gb

molecule  {
0 1
  O       -0.5498120     2.2556960    -0.2996080
  N       -3.0129360     1.7813540     0.8248620
  C        1.0008190     0.4908720    -0.0872200
  C       -1.5329590     0.0859130    -0.1428360
  C       -0.3878030     1.0286420    -0.1846270
  C        3.6793340    -0.3535020     0.1683990
  C       -2.8127890     0.5150010     0.2964470
  C        1.3212360    -0.6095270     0.7211930
  C        2.0273690     1.1786660    -0.7492360
  C        2.6489240    -1.0168440     0.8468500
  C        3.3454510     0.7479200    -0.6334830
  C       -1.3791480    -1.2185740    -0.6492330
  C       -3.8612840    -0.4227650     0.3079770
  C       -2.4390410    -2.1168890    -0.6711390
  C        5.1038640    -0.8322750     0.2664150
  C       -3.8265559    -1.7317509    -0.1565794
  H        0.5383950    -1.1258400     1.2710410
  H        1.7737210     2.0503190    -1.3473030
  H        2.8902070    -1.8603380     1.4919100
  H        4.1335430     1.2826870    -1.1615780
  H       -0.4095800    -1.5185310    -1.0371660
  H       -4.8387790    -0.1097830     0.6721110
  H       -2.3031150    -3.1155080    -1.0770870
  H        5.8059070     0.0022690     0.1830070
  H        5.2850310    -1.3360150     1.2200590
  H        5.3367840    -1.5427250    -0.5345020
  H       -4.5250650    -2.4017370    -0.1822600
  H       -2.3845940     2.4838010     0.4485930
  H       -3.9825350     2.0742830     0.8527820
units angstrom
no_reorient  #important for SAPT in psi4, default
symmetry c1  #important for SAPT in psi4, default
}

set PROPERTIES_ORIGIN ["COM"]
properties('MP2/aug-cc-pvtz', properties = ['dipole'])
--------------------------------------------------------------------------

    Molecular point group: c1
  Charge       = 0
  Multiplicity = 1
  Basis Set: AUG-CC-PVTZ
    Blend: AUG-CC-PVTZ
  Basis Set: (AUG-CC-PVTZ AUX)
    Blend: AUG-CC-PVTZ-JKFIT

    Orbital Energies [Eh]
    ---------------------

    Doubly Occupied:

       1A    -20.537542     2A    -15.562707     3A    -11.337714
       4A    -11.301009     5A    -11.258703     6A    -11.256876
       7A    -11.250084     8A    -11.249044     9A    -11.245859
      10A    -11.243027    11A    -11.239428    12A    -11.239075
      13A    -11.238625    14A    -11.238195    15A    -11.237338
      16A    -11.232855    17A     -1.370581    18A     -1.227824
      19A     -1.164614    20A     -1.127060    21A     -1.068306
      22A     -1.036181    23A     -1.020435    24A     -0.988564
      25A     -0.954794    26A     -0.885203    27A     -0.837780
      28A     -0.834405    29A     -0.812766    30A     -0.766113
      31A     -0.716414    32A     -0.706559    33A     -0.687166
      34A     -0.660570    35A     -0.643743    36A     -0.634770
      37A     -0.616755    38A     -0.605952    39A     -0.598778
      40A     -0.591864    41A     -0.583811    42A     -0.579473
      43A     -0.557763    44A     -0.553695    45A     -0.540834
      46A     -0.517691    47A     -0.510118    48A     -0.493077
      49A     -0.488133    50A     -0.476743    51A     -0.444961
      52A     -0.418984    53A     -0.352397    54A     -0.342992
      55A     -0.333515    56A     -0.294163

  @DF-RHF Final Energy:  -667.24737294936017

   => Energetics <=

    Nuclear Repulsion Energy =            990.2780944070977966
    One-Electron Energy =               -2871.6236850657232935
    Two-Electron Energy =                1214.0982177092653274
    Total Energy =                       -667.2473729493601695
  Basis Set: (AUG-CC-PVTZ AUX)
    Blend: AUG-CC-PVTZ-RI
    Molecular point group: c1

    Geometry (in Angstrom), charge = 0, multiplicity = 1:

       Center              X                  Y                   Z               Mass
    ------------   -----------------  -----------------  -----------------  -----------------
         O           -0.507375381807     2.232931485958    -0.297520808166    15.994914619570
         N           -2.970499381807     1.758589485958     0.826949191834    14.003074004430
         C            1.043255618193     0.468107485958    -0.085132808166    12.000000000000
         C           -1.490522381807     0.063148485958    -0.140748808166    12.000000000000
         C           -0.345366381807     1.005877485958    -0.182539808166    12.000000000000
         C            3.721770618193    -0.376266514042     0.170486191834    12.000000000000
         C           -2.770352381807     0.492236485958     0.298534191834    12.000000000000
         C            1.363672618193    -0.632291514042     0.723280191834    12.000000000000
         C            2.069805618193     1.155901485958    -0.747148808166    12.000000000000
         C            2.691360618193    -1.039608514042     0.848937191834    12.000000000000
         C            3.387887618193     0.725155485958    -0.631395808166    12.000000000000
         C           -1.336711381807    -1.241338514042    -0.647145808166    12.000000000000
         C           -3.818847381807    -0.445529514042     0.310064191834    12.000000000000
         C           -2.396604381807    -2.139653514042    -0.669051808166    12.000000000000
         C            5.146300618193    -0.855039514042     0.268502191834    12.000000000000
         C           -3.784119281807    -1.754515414042    -0.154492208166    12.000000000000
         H            0.580831618193    -1.148604514042     1.273128191834     1.007825032230
         H            1.816157618193     2.027554485958    -1.345215808166     1.007825032230
         H            2.932643618193    -1.883102514042     1.493997191834     1.007825032230
         H            4.175979618193     1.259922485958    -1.159490808166     1.007825032230
         H           -0.367143381807    -1.541295514042    -1.035078808166     1.007825032230
         H           -4.796342381807    -0.132547514042     0.674198191834     1.007825032230
         H           -2.260678381807    -3.138272514042    -1.074999808166     1.007825032230
         H            5.848343618193    -0.020495514042     0.185094191834     1.007825032230
         H            5.327467618193    -1.358779514042     1.222146191834     1.007825032230
         H            5.379220618193    -1.565489514042    -0.532414808166     1.007825032230
         H           -4.482628381807    -2.424501514042    -0.180172808166     1.007825032230
         H           -2.342157381807     2.461036485958     0.450680191834     1.007825032230
         H           -3.940098381807     2.051518485958     0.854869191834     1.007825032230

  Basis Set: AUG-CC-PVTZ
    Blend: AUG-CC-PVTZ
  Basis Set: (AUG-CC-PVTZ AUX)
    Blend: AUG-CC-PVTZ-JKFIT
	 Reference Energy          =    -667.2473729493601695 [Eh]
	 Singles Energy            =      -0.0000000000000000 [Eh]
	 Same-Spin Energy          =      -0.7358194039750823 [Eh]
	 Opposite-Spin Energy      =      -2.2680851032010136 [Eh]
	 Correlation Energy        =      -3.0039045071760961 [Eh]
	 Total Energy              =    -670.2512774565362861 [Eh]

	 ================> DF-SCS-MP2 Energies <==================
	-----------------------------------------------------------
	 SCS Same-Spin Scale       =       0.3333333333333333 [-]
	 SCS Opposite-Spin Scale   =       1.2000000000000000 [-]
	 SCS Same-Spin Energy      =      -0.2452731346583608 [Eh]
	 SCS Opposite-Spin Energy  =      -2.7217021238412165 [Eh]
	 SCS Correlation Energy    =      -2.9669752584995770 [Eh]
	 SCS Total Energy          =    -670.2143482078597572 [Eh]
	-----------------------------------------------------------

  Dipole Moment: [D]
     X:     0.2903      Y:    -1.7985      Z:    -0.0756     Total:     1.8234

*** Psi4 exiting successfully. Buy a developer a beer!
