                               Psi4 1.4a3.dev225

  ==> Input File <==

--------------------------------------------------------------------------
#psi4
#
memory 32 gb

molecule  {
0 1
  O       -0.5498120     2.2556960    -0.2996080
  N       -3.0129360     1.7813540     0.8248620
  C        1.0008190     0.4908720    -0.0872200
  C       -1.5329590     0.0859130    -0.1428360
  C       -0.3878030     1.0286420    -0.1846270
  C        3.6793340    -0.3535020     0.1683990
  C       -2.8127890     0.5150010     0.2964470
  C        1.3212360    -0.6095270     0.7211930
  C        2.0273690     1.1786660    -0.7492360
  C        2.6819140    -1.0484163     0.8643233
  C        3.3454510     0.7479200    -0.6334830
  C       -1.3791480    -1.2185740    -0.6492330
  C       -3.8612840    -0.4227650     0.3079770
  C       -2.4390410    -2.1168890    -0.6711390
  C        5.1038640    -0.8322750     0.2664150
  C       -3.6857840    -1.7096250    -0.1856360
  H        0.5383950    -1.1258400     1.2710410
  H        1.7737210     2.0503190    -1.3473030
  H        2.8902070    -1.8603380     1.4919100
  H        4.1335430     1.2826870    -1.1615780
  H       -0.4095800    -1.5185310    -1.0371660
  H       -4.8387790    -0.1097830     0.6721110
  H       -2.3031150    -3.1155080    -1.0770870
  H        5.8059070     0.0022690     0.1830070
  H        5.2850310    -1.3360150     1.2200590
  H        5.3367840    -1.5427250    -0.5345020
  H       -4.5250650    -2.4017370    -0.1822600
  H       -2.3845940     2.4838010     0.4485930
  H       -3.9825350     2.0742830     0.8527820
units angstrom
no_reorient  #important for SAPT in psi4, default
symmetry c1  #important for SAPT in psi4, default
}

set PROPERTIES_ORIGIN ["COM"]
properties('MP2/aug-cc-pvtz', properties = ['dipole'])
--------------------------------------------------------------------------

    Molecular point group: c1
  Charge       = 0
  Multiplicity = 1
  Basis Set: AUG-CC-PVTZ
    Blend: AUG-CC-PVTZ
  Basis Set: (AUG-CC-PVTZ AUX)
    Blend: AUG-CC-PVTZ-JKFIT

    Orbital Energies [Eh]
    ---------------------

    Doubly Occupied:

       1A    -20.538324     2A    -15.560090     3A    -11.338949
       4A    -11.296953     5A    -11.257614     6A    -11.255780
       7A    -11.252760     8A    -11.252229     9A    -11.247137
      10A    -11.244085    11A    -11.240009    12A    -11.239181
      13A    -11.238061    14A    -11.231979    15A    -11.231678
      16A    -11.228283    17A     -1.371405    18A     -1.226622
      19A     -1.161993    20A     -1.137038    21A     -1.070013
      22A     -1.035015    23A     -1.016728    24A     -0.996528
      25A     -0.953045    26A     -0.876577    27A     -0.842059
      28A     -0.835600    29A     -0.812985    30A     -0.767316
      31A     -0.713177    32A     -0.691530    33A     -0.686440
      34A     -0.658862    35A     -0.646231    36A     -0.639373
      37A     -0.614103    38A     -0.604259    39A     -0.602429
      40A     -0.593634    41A     -0.584715    42A     -0.583141
      43A     -0.556108    44A     -0.543714    45A     -0.531764
      46A     -0.516504    47A     -0.510527    48A     -0.503783
      49A     -0.498107    50A     -0.480289    51A     -0.452270
      52A     -0.418966    53A     -0.349290    54A     -0.339478
      55A     -0.335555    56A     -0.300396

  @DF-RHF Final Energy:  -667.27323658874172

   => Energetics <=

    Nuclear Repulsion Energy =            992.0180836956443500
    One-Electron Energy =               -2875.1612761772312297
    Two-Electron Energy =                1215.8699558928451552
    Total Energy =                       -667.2732365887418382
  Basis Set: (AUG-CC-PVTZ AUX)
    Blend: AUG-CC-PVTZ-RI
    Molecular point group: c1

    Geometry (in Angstrom), charge = 0, multiplicity = 1:

       Center              X                  Y                   Z               Mass
    ------------   -----------------  -----------------  -----------------  -----------------
         O           -0.517252907267     2.233468468211    -0.296862353460    15.994914619570
         N           -2.980376907267     1.759126468211     0.827607646540    14.003074004430
         C            1.033378092733     0.468644468211    -0.084474353460    12.000000000000
         C           -1.500399907267     0.063685468211    -0.140090353460    12.000000000000
         C           -0.355243907267     1.006414468211    -0.181881353460    12.000000000000
         C            3.711893092733    -0.375729531789     0.171144646540    12.000000000000
         C           -2.780229907267     0.492773468211     0.299192646540    12.000000000000
         C            1.353795092733    -0.631754531789     0.723938646540    12.000000000000
         C            2.059928092733     1.156438468211    -0.746490353460    12.000000000000
         C            2.714473092733    -1.070643831789     0.867068946540    12.000000000000
         C            3.378010092733     0.725692468211    -0.630737353460    12.000000000000
         C           -1.346588907267    -1.240801531789    -0.646487353460    12.000000000000
         C           -3.828724907267    -0.444992531789     0.310722646540    12.000000000000
         C           -2.406481907267    -2.139116531789    -0.668393353460    12.000000000000
         C            5.136423092733    -0.854502531789     0.269160646540    12.000000000000
         C           -3.653224907267    -1.731852531789    -0.182890353460    12.000000000000
         H            0.570954092733    -1.148067531789     1.273786646540     1.007825032230
         H            1.806280092733     2.028091468211    -1.344557353460     1.007825032230
         H            2.922766092733    -1.882565531789     1.494655646540     1.007825032230
         H            4.166102092733     1.260459468211    -1.158832353460     1.007825032230
         H           -0.377020907267    -1.540758531789    -1.034420353460     1.007825032230
         H           -4.806219907267    -0.132010531789     0.674856646540     1.007825032230
         H           -2.270555907267    -3.137735531789    -1.074341353460     1.007825032230
         H            5.838466092733    -0.019958531789     0.185752646540     1.007825032230
         H            5.317590092733    -1.358242531789     1.222804646540     1.007825032230
         H            5.369343092733    -1.564952531789    -0.531756353460     1.007825032230
         H           -4.492505907267    -2.423964531789    -0.179514353460     1.007825032230
         H           -2.352034907267     2.461573468211     0.451338646540     1.007825032230
         H           -3.949975907267     2.052055468211     0.855527646540     1.007825032230

  Basis Set: AUG-CC-PVTZ
    Blend: AUG-CC-PVTZ
  Basis Set: (AUG-CC-PVTZ AUX)
    Blend: AUG-CC-PVTZ-JKFIT
	 Reference Energy          =    -667.2732365887417245 [Eh]
	 Singles Energy            =      -0.0000000000000000 [Eh]
	 Same-Spin Energy          =      -0.7354163311077547 [Eh]
	 Opposite-Spin Energy      =      -2.2657874098526483 [Eh]
	 Correlation Energy        =      -3.0012037409604031 [Eh]
	 Total Energy              =    -670.2744403297020881 [Eh]

	 ================> DF-SCS-MP2 Energies <==================
	-----------------------------------------------------------
	 SCS Same-Spin Scale       =       0.3333333333333333 [-]
	 SCS Opposite-Spin Scale   =       1.2000000000000000 [-]
	 SCS Same-Spin Energy      =      -0.2451387770359182 [Eh]
	 SCS Opposite-Spin Energy  =      -2.7189448918231780 [Eh]
	 SCS Correlation Energy    =      -2.9640836688590961 [Eh]
	 SCS Total Energy          =    -670.2373202576007998 [Eh]
	-----------------------------------------------------------

  Dipole Moment: [D]
     X:     0.3279      Y:    -1.8245      Z:    -0.0923     Total:     1.8561

*** Psi4 exiting successfully. Buy a developer a beer!
