                               Psi4 1.4a3.dev225

  ==> Input File <==

--------------------------------------------------------------------------
#psi4
#
memory 32 gb

molecule  {
0 1
  O       -0.5498120     2.2556960    -0.2996080
  N       -2.9900970     1.7870718     0.8192557
  C        1.0008190     0.4908720    -0.0872200
  C       -1.5329590     0.0859130    -0.1428360
  C       -0.3878030     1.0286420    -0.1846270
  C        3.6793340    -0.3535020     0.1683990
  C       -2.8127890     0.5150010     0.2964470
  C        1.3212360    -0.6095270     0.7211930
  C        2.0273690     1.1786660    -0.7492360
  C        2.6489240    -1.0168440     0.8468500
  C        3.3454510     0.7479200    -0.6334830
  C       -1.3791480    -1.2185740    -0.6492330
  C       -3.8612840    -0.4227650     0.3079770
  C       -2.4390410    -2.1168890    -0.6711390
  C        5.1038640    -0.8322750     0.2664150
  C       -3.6857840    -1.7096250    -0.1856360
  H        0.5383950    -1.1258400     1.2710410
  H        1.7737210     2.0503190    -1.3473030
  H        2.8902070    -1.8603380     1.4919100
  H        4.1335430     1.2826870    -1.1615780
  H       -0.4095800    -1.5185310    -1.0371660
  H       -4.8387790    -0.1097830     0.6721110
  H       -2.3031150    -3.1155080    -1.0770870
  H        5.8059070     0.0022690     0.1830070
  H        5.2850310    -1.3360150     1.2200590
  H        5.3367840    -1.5427250    -0.5345020
  H       -4.5250650    -2.4017370    -0.1822600
  H       -2.3845940     2.4838010     0.4485930
  H       -3.9825350     2.0742830     0.8527820
units angstrom
no_reorient  #important for SAPT in psi4, default
symmetry c1  #important for SAPT in psi4, default
}

set PROPERTIES_ORIGIN ["COM"]
properties('MP2/aug-cc-pvtz', properties = ['dipole'])
--------------------------------------------------------------------------

    Molecular point group: c1
  Charge       = 0
  Multiplicity = 1
  Basis Set: AUG-CC-PVTZ
    Blend: AUG-CC-PVTZ
  Basis Set: (AUG-CC-PVTZ AUX)
    Blend: AUG-CC-PVTZ-JKFIT

    Orbital Energies [Eh]
    ---------------------

    Doubly Occupied:

       1A    -20.537670     2A    -15.560429     3A    -11.338190
       4A    -11.296961     5A    -11.257221     6A    -11.253066
       7A    -11.252158     8A    -11.250461     9A    -11.246194
      10A    -11.243433    11A    -11.239001    12A    -11.238683
      13A    -11.237706    14A    -11.233153    15A    -11.232567
      16A    -11.228388    17A     -1.370846    18A     -1.226620
      19A     -1.165087    20A     -1.137179    21A     -1.069488
      22A     -1.034517    23A     -1.020500    24A     -0.996848
      25A     -0.954446    26A     -0.877195    27A     -0.838665
      28A     -0.835976    29A     -0.813406    30A     -0.766619
      31A     -0.711998    32A     -0.692086    33A     -0.686343
      34A     -0.661318    35A     -0.644882    36A     -0.636825
      37A     -0.612258    38A     -0.605524    39A     -0.599538
      40A     -0.592512    41A     -0.584653    42A     -0.583668
      43A     -0.555870    44A     -0.544721    45A     -0.532243
      46A     -0.517951    47A     -0.512975    48A     -0.504460
      49A     -0.493382    50A     -0.481828    51A     -0.452485
      52A     -0.418914    53A     -0.349743    54A     -0.342982
      55A     -0.333837    56A     -0.300579

  @DF-RHF Final Energy:  -667.27566762378751

   => Energetics <=

    Nuclear Repulsion Energy =            993.1261431846811547
    One-Electron Energy =               -2877.3911191611305185
    Two-Electron Energy =                1216.9893083526619648
    Total Energy =                       -667.2756676237875126
  Basis Set: (AUG-CC-PVTZ AUX)
    Blend: AUG-CC-PVTZ-RI
    Molecular point group: c1

    Geometry (in Angstrom), charge = 0, multiplicity = 1:

       Center              X                  Y                   Z               Mass
    ------------   -----------------  -----------------  -----------------  -----------------
         O           -0.516892585638     2.231294451166    -0.295497192759    15.994914619570
         N           -2.957177585638     1.762670251166     0.823366507241    14.003074004430
         C            1.033738414362     0.466470451166    -0.083109192759    12.000000000000
         C           -1.500039585638     0.061511451166    -0.138725192759    12.000000000000
         C           -0.354883585638     1.004240451166    -0.180516192759    12.000000000000
         C            3.712253414362    -0.377903548834     0.172509807241    12.000000000000
         C           -2.779869585638     0.490599451166     0.300557807241    12.000000000000
         C            1.354155414362    -0.633928548834     0.725303807241    12.000000000000
         C            2.060288414362     1.154264451166    -0.745125192759    12.000000000000
         C            2.681843414362    -1.041245548834     0.850960807241    12.000000000000
         C            3.378370414362     0.723518451166    -0.629372192759    12.000000000000
         C           -1.346228585638    -1.242975548834    -0.645122192759    12.000000000000
         C           -3.828364585638    -0.447166548834     0.312087807241    12.000000000000
         C           -2.406121585638    -2.141290548834    -0.667028192759    12.000000000000
         C            5.136783414362    -0.856676548834     0.270525807241    12.000000000000
         C           -3.652864585638    -1.734026548834    -0.181525192759    12.000000000000
         H            0.571314414362    -1.150241548834     1.275151807241     1.007825032230
         H            1.806640414362     2.025917451166    -1.343192192759     1.007825032230
         H            2.923126414362    -1.884739548834     1.496020807241     1.007825032230
         H            4.166462414362     1.258285451166    -1.157467192759     1.007825032230
         H           -0.376660585638    -1.542932548834    -1.033055192759     1.007825032230
         H           -4.805859585638    -0.134184548834     0.676221807241     1.007825032230
         H           -2.270195585638    -3.139909548834    -1.072976192759     1.007825032230
         H            5.838826414362    -0.022132548834     0.187117807241     1.007825032230
         H            5.317950414362    -1.360416548834     1.224169807241     1.007825032230
         H            5.369703414362    -1.567126548834    -0.530391192759     1.007825032230
         H           -4.492145585638    -2.426138548834    -0.178149192759     1.007825032230
         H           -2.351674585638     2.459399451166     0.452703807241     1.007825032230
         H           -3.949615585638     2.049881451166     0.856892807241     1.007825032230

  Basis Set: AUG-CC-PVTZ
    Blend: AUG-CC-PVTZ
  Basis Set: (AUG-CC-PVTZ AUX)
    Blend: AUG-CC-PVTZ-JKFIT
	 Reference Energy          =    -667.2756676237875126 [Eh]
	 Singles Energy            =      -0.0000000000000000 [Eh]
	 Same-Spin Energy          =      -0.7355397715611818 [Eh]
	 Opposite-Spin Energy      =      -2.2655922428276773 [Eh]
	 Correlation Energy        =      -3.0011320143888591 [Eh]
	 Total Energy              =    -670.2767996381763851 [Eh]

	 ================> DF-SCS-MP2 Energies <==================
	-----------------------------------------------------------
	 SCS Same-Spin Scale       =       0.3333333333333333 [-]
	 SCS Opposite-Spin Scale   =       1.2000000000000000 [-]
	 SCS Same-Spin Energy      =      -0.2451799238537272 [Eh]
	 SCS Opposite-Spin Energy  =      -2.7187106913932126 [Eh]
	 SCS Correlation Energy    =      -2.9638906152469398 [Eh]
	 SCS Total Energy          =    -670.2395582390344089 [Eh]
	-----------------------------------------------------------

  Dipole Moment: [D]
     X:     0.3225      Y:    -1.8218      Z:    -0.0999     Total:     1.8529

*** Psi4 exiting successfully. Buy a developer a beer!
