                               Psi4 1.4a3.dev225

  ==> Input File <==

--------------------------------------------------------------------------
#psi4
#
memory 32 gb

molecule  {
0 1
  O       -0.5498120     2.2556960    -0.2996080
  N       -3.0129360     1.7813540     0.8248620
  C        1.0008190     0.4908720    -0.0872200
  C       -1.5329590     0.0859130    -0.1428360
  C       -0.3878030     1.0286420    -0.1846270
  C        3.6793340    -0.3535020     0.1683990
  C       -2.8127890     0.5150010     0.2964470
  C        1.3212360    -0.6095270     0.7211930
  C        2.0273690     1.1786660    -0.7492360
  C        2.6489240    -1.0168440     0.8468500
  C        3.3454510     0.7479200    -0.6334830
  C       -1.4084431    -1.1858196    -0.6287061
  C       -3.8612840    -0.4227650     0.3079770
  C       -2.4390410    -2.1168890    -0.6711390
  C        5.1038640    -0.8322750     0.2664150
  C       -3.6857840    -1.7096250    -0.1856360
  H        0.5383950    -1.1258400     1.2710410
  H        1.7737210     2.0503190    -1.3473030
  H        2.8902070    -1.8603380     1.4919100
  H        4.1335430     1.2826870    -1.1615780
  H       -0.4095800    -1.5185310    -1.0371660
  H       -4.8387790    -0.1097830     0.6721110
  H       -2.3031150    -3.1155080    -1.0770870
  H        5.8059070     0.0022690     0.1830070
  H        5.2850310    -1.3360150     1.2200590
  H        5.3367840    -1.5427250    -0.5345020
  H       -4.5250650    -2.4017370    -0.1822600
  H       -2.3845940     2.4838010     0.4485930
  H       -3.9825350     2.0742830     0.8527820
units angstrom
no_reorient  #important for SAPT in psi4, default
symmetry c1  #important for SAPT in psi4, default
}

set PROPERTIES_ORIGIN ["COM"]
properties('MP2/aug-cc-pvtz', properties = ['dipole'])
--------------------------------------------------------------------------

    Molecular point group: c1
  Charge       = 0
  Multiplicity = 1
  Basis Set: AUG-CC-PVTZ
    Blend: AUG-CC-PVTZ
  Basis Set: (AUG-CC-PVTZ AUX)
    Blend: AUG-CC-PVTZ-JKFIT

    Orbital Energies [Eh]
    ---------------------

    Doubly Occupied:

       1A    -20.539774     2A    -15.560064     3A    -11.340128
       4A    -11.296629     5A    -11.257559     6A    -11.251619
       7A    -11.251170     8A    -11.250903     9A    -11.246646
      10A    -11.243926    11A    -11.239232    12A    -11.237960
      13A    -11.236344    14A    -11.233356    15A    -11.229793
      16A    -11.226894    17A     -1.372606    18A     -1.227276
      19A     -1.165581    20A     -1.140750    21A     -1.070258
      22A     -1.037531    23A     -1.021110    24A     -0.994734
      25A     -0.955264    26A     -0.876499    27A     -0.838624
      28A     -0.834593    29A     -0.815004    30A     -0.768109
      31A     -0.712614    32A     -0.689469    33A     -0.687994
      34A     -0.661511    35A     -0.645485    36A     -0.637590
      37A     -0.614071    38A     -0.602318    39A     -0.595638
      40A     -0.592461    41A     -0.586666    42A     -0.583927
      43A     -0.556653    44A     -0.545267    45A     -0.534722
      46A     -0.518944    47A     -0.510582    48A     -0.501702
      49A     -0.493697    50A     -0.482123    51A     -0.453357
      52A     -0.420144    53A     -0.353295    54A     -0.343697
      55A     -0.334076    56A     -0.298961

  @DF-RHF Final Energy:  -667.27410887969154

   => Energetics <=

    Nuclear Repulsion Energy =            993.6387496779256026
    One-Electron Energy =               -2878.3919068299228456
    Two-Electron Energy =                1217.4790482723055902
    Total Energy =                       -667.2741088796915392
  Basis Set: (AUG-CC-PVTZ AUX)
    Blend: AUG-CC-PVTZ-RI
    Molecular point group: c1

    Geometry (in Angstrom), charge = 0, multiplicity = 1:

       Center              X                  Y                   Z               Mass
    ------------   -----------------  -----------------  -----------------  -----------------
         O           -0.513712299913     2.229811805749    -0.297035935884    15.994914619570
         N           -2.976836299913     1.755469805749     0.827434064116    14.003074004430
         C            1.036918700087     0.464987805749    -0.084647935884    12.000000000000
         C           -1.496859299913     0.060028805749    -0.140263935884    12.000000000000
         C           -0.351703299913     1.002757805749    -0.182054935884    12.000000000000
         C            3.715433700087    -0.379386194251     0.170971064116    12.000000000000
         C           -2.776689299913     0.489116805749     0.299019064116    12.000000000000
         C            1.357335700087    -0.635411194251     0.723765064116    12.000000000000
         C            2.063468700087     1.152781805749    -0.746663935884    12.000000000000
         C            2.685023700087    -1.042728194251     0.849422064116    12.000000000000
         C            3.381550700087     0.722035805749    -0.630910935884    12.000000000000
         C           -1.372343399913    -1.211703794251    -0.626134035884    12.000000000000
         C           -3.825184299913    -0.448649194251     0.310549064116    12.000000000000
         C           -2.402941299913    -2.142773194251    -0.668566935884    12.000000000000
         C            5.139963700087    -0.858159194251     0.268987064116    12.000000000000
         C           -3.649684299913    -1.735509194251    -0.183063935884    12.000000000000
         H            0.574494700087    -1.151724194251     1.273613064116     1.007825032230
         H            1.809820700087     2.024434805749    -1.344730935884     1.007825032230
         H            2.926306700087    -1.886222194251     1.494482064116     1.007825032230
         H            4.169642700087     1.256802805749    -1.159005935884     1.007825032230
         H           -0.373480299913    -1.544415194251    -1.034593935884     1.007825032230
         H           -4.802679299913    -0.135667194251     0.674683064116     1.007825032230
         H           -2.267015299913    -3.141392194251    -1.074514935884     1.007825032230
         H            5.842006700087    -0.023615194251     0.185579064116     1.007825032230
         H            5.321130700087    -1.361899194251     1.222631064116     1.007825032230
         H            5.372883700087    -1.568609194251    -0.531929935884     1.007825032230
         H           -4.488965299913    -2.427621194251    -0.179687935884     1.007825032230
         H           -2.348494299913     2.457916805749     0.451165064116     1.007825032230
         H           -3.946435299913     2.048398805749     0.855354064116     1.007825032230

  Basis Set: AUG-CC-PVTZ
    Blend: AUG-CC-PVTZ
  Basis Set: (AUG-CC-PVTZ AUX)
    Blend: AUG-CC-PVTZ-JKFIT
	 Reference Energy          =    -667.2741088796915392 [Eh]
	 Singles Energy            =      -0.0000000000000000 [Eh]
	 Same-Spin Energy          =      -0.7355253774893334 [Eh]
	 Opposite-Spin Energy      =      -2.2654316625765687 [Eh]
	 Correlation Energy        =      -3.0009570400659022 [Eh]
	 Total Energy              =    -670.2750659197574805 [Eh]

	 ================> DF-SCS-MP2 Energies <==================
	-----------------------------------------------------------
	 SCS Same-Spin Scale       =       0.3333333333333333 [-]
	 SCS Opposite-Spin Scale   =       1.2000000000000000 [-]
	 SCS Same-Spin Energy      =      -0.2451751258297778 [Eh]
	 SCS Opposite-Spin Energy  =      -2.7185179950918825 [Eh]
	 SCS Correlation Energy    =      -2.9636931209216604 [Eh]
	 SCS Total Energy          =    -670.2378020006132147 [Eh]
	-----------------------------------------------------------

  Dipole Moment: [D]
     X:     0.4063      Y:    -1.7809      Z:    -0.1057     Total:     1.8298

*** Psi4 exiting successfully. Buy a developer a beer!
