                               Psi4 1.4a3.dev225

  ==> Input File <==

--------------------------------------------------------------------------
#psi4
#
memory 32 gb

molecule  {
0 1
  O       -0.5498120     2.2556960    -0.2996080
  N       -3.0129360     1.7813540     0.8248620
  C        1.0008190     0.4908720    -0.0872200
  C       -1.5329590     0.0859130    -0.1428360
  C       -0.3878030     1.0286420    -0.1846270
  C        3.6793340    -0.3535020     0.1683990
  C       -2.8127890     0.5150010     0.2964470
  C        1.3212360    -0.6095270     0.7211930
  C        2.0273690     1.1786660    -0.7492360
  C        2.6489240    -1.0168440     0.8468500
  C        3.3454510     0.7479200    -0.6334830
  C       -1.3791480    -1.2185740    -0.6492330
  C       -3.8612840    -0.4227650     0.3079770
  C       -2.4390410    -2.1168890    -0.6711390
  C        5.1038640    -0.8322750     0.2664150
  C       -3.6857840    -1.7096250    -0.1856360
  H        0.5383950    -1.1258400     1.2710410
  H        1.7737210     2.0503190    -1.3473030
  H        2.8902070    -1.8603380     1.4919100
  H        4.1335430     1.2826870    -1.1615780
  H       -0.4095800    -1.5185310    -1.0371660
  H       -4.8387790    -0.1097830     0.6721110
  H       -2.3031150    -3.1155080    -1.0770870
  H        5.7907894     0.0107126     0.1489827
  H        5.2850310    -1.3360150     1.2200590
  H        5.3367840    -1.5427250    -0.5345020
  H       -4.5250650    -2.4017370    -0.1822600
  H       -2.3845940     2.4838010     0.4485930
  H       -3.9825350     2.0742830     0.8527820
units angstrom
no_reorient  #important for SAPT in psi4, default
symmetry c1  #important for SAPT in psi4, default
}

set PROPERTIES_ORIGIN ["COM"]
properties('MP2/aug-cc-pvtz', properties = ['dipole'])
--------------------------------------------------------------------------

    Molecular point group: c1
  Charge       = 0
  Multiplicity = 1
  Basis Set: AUG-CC-PVTZ
    Blend: AUG-CC-PVTZ
  Basis Set: (AUG-CC-PVTZ AUX)
    Blend: AUG-CC-PVTZ-JKFIT

    Orbital Energies [Eh]
    ---------------------

    Doubly Occupied:

       1A    -20.537962     2A    -15.560001     3A    -11.338442
       4A    -11.296875     5A    -11.257209     6A    -11.252705
       7A    -11.252233     8A    -11.250580     9A    -11.246362
      10A    -11.243476    11A    -11.239087    12A    -11.238976
      13A    -11.237808    14A    -11.233378    15A    -11.231943
      16A    -11.228281    17A     -1.371029    18A     -1.226537
      19A     -1.165208    20A     -1.137088    21A     -1.069677
      22A     -1.034587    23A     -1.020618    24A     -0.996531
      25A     -0.954617    26A     -0.876904    27A     -0.838919
      28A     -0.836408    29A     -0.813001    30A     -0.766144
      31A     -0.712723    32A     -0.691689    33A     -0.686185
      34A     -0.661313    35A     -0.645409    36A     -0.636545
      37A     -0.614298    38A     -0.603695    39A     -0.599757
      40A     -0.592687    41A     -0.584646    42A     -0.581927
      43A     -0.557180    44A     -0.545855    45A     -0.532134
      46A     -0.517607    47A     -0.513102    48A     -0.504858
      49A     -0.493760    50A     -0.481755    51A     -0.452270
      52A     -0.418878    53A     -0.349707    54A     -0.343098
      55A     -0.333745    56A     -0.300335

  @DF-RHF Final Energy:  -667.27644959781537

   => Energetics <=

    Nuclear Repulsion Energy =            992.9230750973528075
    One-Electron Energy =               -2876.9835676112534202
    Two-Electron Energy =                1216.7840429160851272
    Total Energy =                       -667.2764495978153718
  Basis Set: (AUG-CC-PVTZ AUX)
    Blend: AUG-CC-PVTZ-RI
    Molecular point group: c1

    Geometry (in Angstrom), charge = 0, multiplicity = 1:

       Center              X                  Y                   Z               Mass
    ------------   -----------------  -----------------  -----------------  -----------------
         O           -0.515305411044     2.231633424174    -0.295706643031    15.994914619570
         N           -2.978429411044     1.757291424174     0.828763356969    14.003074004430
         C            1.035325588956     0.466809424174    -0.083318643031    12.000000000000
         C           -1.498452411044     0.061850424174    -0.138934643031    12.000000000000
         C           -0.353296411044     1.004579424174    -0.180725643031    12.000000000000
         C            3.713840588956    -0.377564575826     0.172300356969    12.000000000000
         C           -2.778282411044     0.490938424174     0.300348356969    12.000000000000
         C            1.355742588956    -0.633589575826     0.725094356969    12.000000000000
         C            2.061875588956     1.154603424174    -0.745334643031    12.000000000000
         C            2.683430588956    -1.040906575826     0.850751356969    12.000000000000
         C            3.379957588956     0.723857424174    -0.629581643031    12.000000000000
         C           -1.344641411044    -1.242636575826    -0.645331643031    12.000000000000
         C           -3.826777411044    -0.446827575826     0.311878356969    12.000000000000
         C           -2.404534411044    -2.140951575826    -0.667237643031    12.000000000000
         C            5.138370588956    -0.856337575826     0.270316356969    12.000000000000
         C           -3.651277411044    -1.733687575826    -0.181734643031    12.000000000000
         H            0.572901588956    -1.149902575826     1.274942356969     1.007825032230
         H            1.808227588956     2.026256424174    -1.343401643031     1.007825032230
         H            2.924713588956    -1.884400575826     1.495811356969     1.007825032230
         H            4.168049588956     1.258624424174    -1.157676643031     1.007825032230
         H           -0.375073411044    -1.542593575826    -1.033264643031     1.007825032230
         H           -4.804272411044    -0.133845575826     0.676012356969     1.007825032230
         H           -2.268608411044    -3.139570575826    -1.073185643031     1.007825032230
         H            5.825295988956    -0.013349975826     0.152884056969     1.007825032230
         H            5.319537588956    -1.360077575826     1.223960356969     1.007825032230
         H            5.371290588956    -1.566787575826    -0.530600643031     1.007825032230
         H           -4.490558411044    -2.425799575826    -0.178358643031     1.007825032230
         H           -2.350087411044     2.459738424174     0.452494356969     1.007825032230
         H           -3.948028411044     2.050220424174     0.856683356969     1.007825032230

  Basis Set: AUG-CC-PVTZ
    Blend: AUG-CC-PVTZ
  Basis Set: (AUG-CC-PVTZ AUX)
    Blend: AUG-CC-PVTZ-JKFIT
	 Reference Energy          =    -667.2764495978153718 [Eh]
	 Singles Energy            =      -0.0000000000000000 [Eh]
	 Same-Spin Energy          =      -0.7355445990297057 [Eh]
	 Opposite-Spin Energy      =      -2.2655321603307916 [Eh]
	 Correlation Energy        =      -3.0010767593604974 [Eh]
	 Total Energy              =    -670.2775263571758160 [Eh]

	 ================> DF-SCS-MP2 Energies <==================
	-----------------------------------------------------------
	 SCS Same-Spin Scale       =       0.3333333333333333 [-]
	 SCS Opposite-Spin Scale   =       1.2000000000000000 [-]
	 SCS Same-Spin Energy      =      -0.2451815330099019 [Eh]
	 SCS Opposite-Spin Energy  =      -2.7186385923969500 [Eh]
	 SCS Correlation Energy    =      -2.9638201254068521 [Eh]
	 SCS Total Energy          =    -670.2402697232222408 [Eh]
	-----------------------------------------------------------

  Dipole Moment: [D]
     X:     0.3527      Y:    -1.8197      Z:    -0.1152     Total:     1.8571

*** Psi4 exiting successfully. Buy a developer a beer!
