                               Psi4 1.4a3.dev225

  ==> Input File <==

--------------------------------------------------------------------------
#psi4
#
memory 32 gb

molecule  {
0 1
  O       -0.5498120     2.2556960    -0.2996080
  N       -3.0129360     1.7813540     0.8248620
  C        1.0008190     0.4908720    -0.0872200
  C       -1.5329590     0.0859130    -0.1428360
  C       -0.3878030     1.0286420    -0.1846270
  C        3.6793340    -0.3535020     0.1683990
  C       -2.8127890     0.5150010     0.2964470
  C        1.3212360    -0.6095270     0.7211930
  C        2.0273690     1.1786660    -0.7492360
  C        2.6489240    -1.0168440     0.8468500
  C        3.3454510     0.7479200    -0.6334830
  C       -1.3791480    -1.2185740    -0.6492330
  C       -3.8612840    -0.4227650     0.3079770
  C       -2.4390410    -2.1168890    -0.6711390
  C        5.1038640    -0.8322750     0.2664150
  C       -3.6857840    -1.7096250    -0.1856360
  H        0.5383950    -1.1258400     1.2710410
  H        1.7737210     2.0503190    -1.3473030
  H        2.8902070    -1.8603380     1.4919100
  H        4.1335430     1.2826870    -1.1615780
  H       -0.4095800    -1.5185310    -1.0371660
  H       -4.8208278    -0.1155308     0.6654239
  H       -2.3031150    -3.1155080    -1.0770870
  H        5.8059070     0.0022690     0.1830070
  H        5.2850310    -1.3360150     1.2200590
  H        5.3367840    -1.5427250    -0.5345020
  H       -4.5250650    -2.4017370    -0.1822600
  H       -2.3845940     2.4838010     0.4485930
  H       -3.9825350     2.0742830     0.8527820
units angstrom
no_reorient  #important for SAPT in psi4, default
symmetry c1  #important for SAPT in psi4, default
}

set PROPERTIES_ORIGIN ["COM"]
properties('MP2/aug-cc-pvtz', properties = ['dipole'])
--------------------------------------------------------------------------

    Molecular point group: c1
  Charge       = 0
  Multiplicity = 1
  Basis Set: AUG-CC-PVTZ
    Blend: AUG-CC-PVTZ
  Basis Set: (AUG-CC-PVTZ AUX)
    Blend: AUG-CC-PVTZ-JKFIT

    Orbital Energies [Eh]
    ---------------------

    Doubly Occupied:

       1A    -20.537949     2A    -15.560053     3A    -11.338403
       4A    -11.296694     5A    -11.257302     6A    -11.252534
       7A    -11.252175     8A    -11.250547     9A    -11.246285
      10A    -11.243505    11A    -11.239068    12A    -11.238962
      13A    -11.237775    14A    -11.233205    15A    -11.229582
      16A    -11.228154    17A     -1.371011    18A     -1.226600
      19A     -1.165159    20A     -1.137044    21A     -1.069569
      22A     -1.034784    23A     -1.020598    24A     -0.996858
      25A     -0.954564    26A     -0.876942    27A     -0.839212
      28A     -0.836979    29A     -0.813118    30A     -0.766331
      31A     -0.713581    32A     -0.691828    33A     -0.686290
      34A     -0.661303    35A     -0.645500    36A     -0.636726
      37A     -0.614174    38A     -0.604726    39A     -0.600263
      40A     -0.592696    41A     -0.584979    42A     -0.583998
      43A     -0.555754    44A     -0.544612    45A     -0.531775
      46A     -0.517988    47A     -0.513677    48A     -0.505288
      49A     -0.493464    50A     -0.482032    51A     -0.452238
      52A     -0.418868    53A     -0.349629    54A     -0.343038
      55A     -0.333931    56A     -0.300270

  @DF-RHF Final Energy:  -667.27674274697358

   => Energetics <=

    Nuclear Repulsion Energy =            992.9937476621647647
    One-Electron Energy =               -2877.1218108998509706
    Two-Electron Energy =                1216.8513204907123963
    Total Energy =                       -667.2767427469736958
  Basis Set: (AUG-CC-PVTZ AUX)
    Blend: AUG-CC-PVTZ-RI
    Molecular point group: c1

    Geometry (in Angstrom), charge = 0, multiplicity = 1:

       Center              X                  Y                   Z               Mass
    ------------   -----------------  -----------------  -----------------  -----------------
         O           -0.515463286978     2.231701176271    -0.295837155356    15.994914619570
         N           -2.978587286978     1.757359176271     0.828632844644    14.003074004430
         C            1.035167713022     0.466877176271    -0.083449155356    12.000000000000
         C           -1.498610286978     0.061918176271    -0.139065155356    12.000000000000
         C           -0.353454286978     1.004647176271    -0.180856155356    12.000000000000
         C            3.713682713022    -0.377496823729     0.172169844644    12.000000000000
         C           -2.778440286978     0.491006176271     0.300217844644    12.000000000000
         C            1.355584713022    -0.633521823729     0.724963844644    12.000000000000
         C            2.061717713022     1.154671176271    -0.745465155356    12.000000000000
         C            2.683272713022    -1.040838823729     0.850620844644    12.000000000000
         C            3.379799713022     0.723925176271    -0.629712155356    12.000000000000
         C           -1.344799286978    -1.242568823729    -0.645462155356    12.000000000000
         C           -3.826935286978    -0.446759823729     0.311747844644    12.000000000000
         C           -2.404692286978    -2.140883823729    -0.667368155356    12.000000000000
         C            5.138212713022    -0.856269823729     0.270185844644    12.000000000000
         C           -3.651435286978    -1.733619823729    -0.181865155356    12.000000000000
         H            0.572743713022    -1.149834823729     1.274811844644     1.007825032230
         H            1.808069713022     2.026324176271    -1.343532155356     1.007825032230
         H            2.924555713022    -1.884332823729     1.495680844644     1.007825032230
         H            4.167891713022     1.258692176271    -1.157807155356     1.007825032230
         H           -0.375231286978    -1.542525823729    -1.033395155356     1.007825032230
         H           -4.786479086978    -0.139525623729     0.669194744644     1.007825032230
         H           -2.268766286978    -3.139502823729    -1.073316155356     1.007825032230
         H            5.840255713022    -0.021725823729     0.186777844644     1.007825032230
         H            5.319379713022    -1.360009823729     1.223829844644     1.007825032230
         H            5.371132713022    -1.566719823729    -0.530731155356     1.007825032230
         H           -4.490716286978    -2.425731823729    -0.178489155356     1.007825032230
         H           -2.350245286978     2.459806176271     0.452363844644     1.007825032230
         H           -3.948186286978     2.050288176271     0.856552844644     1.007825032230

  Basis Set: AUG-CC-PVTZ
    Blend: AUG-CC-PVTZ
  Basis Set: (AUG-CC-PVTZ AUX)
    Blend: AUG-CC-PVTZ-JKFIT
	 Reference Energy          =    -667.2767427469735821 [Eh]
	 Singles Energy            =      -0.0000000000000000 [Eh]
	 Same-Spin Energy          =      -0.7354770330285720 [Eh]
	 Opposite-Spin Energy      =      -2.2653654046417340 [Eh]
	 Correlation Energy        =      -3.0008424376703058 [Eh]
	 Total Energy              =    -670.2775851846438400 [Eh]

	 ================> DF-SCS-MP2 Energies <==================
	-----------------------------------------------------------
	 SCS Same-Spin Scale       =       0.3333333333333333 [-]
	 SCS Opposite-Spin Scale   =       1.2000000000000000 [-]
	 SCS Same-Spin Energy      =      -0.2451590110095240 [Eh]
	 SCS Opposite-Spin Energy  =      -2.7184384855700805 [Eh]
	 SCS Correlation Energy    =      -2.9635974965796046 [Eh]
	 SCS Total Energy          =    -670.2403402435531916 [Eh]
	-----------------------------------------------------------

  Dipole Moment: [D]
     X:     0.3438      Y:    -1.8121      Z:    -0.1030     Total:     1.8473

*** Psi4 exiting successfully. Buy a developer a beer!
