                               Psi4 1.4a3.dev225

  ==> Input File <==

--------------------------------------------------------------------------
#psi4
#
memory 32 gb

molecule  {
0 1
  O       -0.5498120     2.2556960    -0.2996080
  N       -3.0129360     1.7813540     0.8248620
  C        1.0008190     0.4908720    -0.0872200
  C       -1.5329590     0.0859130    -0.1428360
  C       -0.3878030     1.0286420    -0.1846270
  C        3.6793340    -0.3535020     0.1683990
  C       -2.8127890     0.5150010     0.2964470
  C        1.3212360    -0.6095270     0.7211930
  C        2.0273690     1.1786660    -0.7492360
  C        2.6489240    -1.0168440     0.8468500
  C        3.3454510     0.7479200    -0.6334830
  C       -1.3791480    -1.2185740    -0.6492330
  C       -3.8612840    -0.4227650     0.3079770
  C       -2.4390410    -2.1168890    -0.6711390
  C        5.1038640    -0.8322750     0.2664150
  C       -3.6857840    -1.7096250    -0.1856360
  H        0.5383950    -1.1258400     1.2710410
  H        1.7690545     2.0663552    -1.3583059
  H        2.8902070    -1.8603380     1.4919100
  H        4.1335430     1.2826870    -1.1615780
  H       -0.4095800    -1.5185310    -1.0371660
  H       -4.8387790    -0.1097830     0.6721110
  H       -2.3031150    -3.1155080    -1.0770870
  H        5.8059070     0.0022690     0.1830070
  H        5.2850310    -1.3360150     1.2200590
  H        5.3367840    -1.5427250    -0.5345020
  H       -4.5250650    -2.4017370    -0.1822600
  H       -2.3845940     2.4838010     0.4485930
  H       -3.9825350     2.0742830     0.8527820
units angstrom
no_reorient  #important for SAPT in psi4, default
symmetry c1  #important for SAPT in psi4, default
}

set PROPERTIES_ORIGIN ["COM"]
properties('MP2/aug-cc-pvtz', properties = ['dipole'])
--------------------------------------------------------------------------

    Molecular point group: c1
  Charge       = 0
  Multiplicity = 1
  Basis Set: AUG-CC-PVTZ
    Blend: AUG-CC-PVTZ
  Basis Set: (AUG-CC-PVTZ AUX)
    Blend: AUG-CC-PVTZ-JKFIT

    Orbital Energies [Eh]
    ---------------------

    Doubly Occupied:

       1A    -20.537974     2A    -15.560017     3A    -11.338474
       4A    -11.296895     5A    -11.257418     6A    -11.252723
       7A    -11.252254     8A    -11.250686     9A    -11.248399
      10A    -11.243745    11A    -11.239125    12A    -11.239112
      13A    -11.237917    14A    -11.233274    15A    -11.231960
      16A    -11.228298    17A     -1.371034    18A     -1.226554
      19A     -1.165163    20A     -1.137104    21A     -1.069556
      22A     -1.034399    23A     -1.020221    24A     -0.996547
      25A     -0.954645    26A     -0.876854    27A     -0.838233
      28A     -0.836469    29A     -0.812554    30A     -0.765903
      31A     -0.712691    32A     -0.691556    33A     -0.686192
      34A     -0.660928    35A     -0.644328    36A     -0.635908
      37A     -0.614125    38A     -0.603696    39A     -0.599853
      40A     -0.591307    41A     -0.584744    42A     -0.583811
      43A     -0.555746    44A     -0.544679    45A     -0.531840
      46A     -0.518056    47A     -0.513143    48A     -0.504674
      49A     -0.492657    50A     -0.482071    51A     -0.452290
      52A     -0.418913    53A     -0.349730    54A     -0.343118
      55A     -0.334026    56A     -0.300355

  @DF-RHF Final Energy:  -667.27590149636569

   => Energetics <=

    Nuclear Repulsion Energy =            992.7788778134781751
    One-Electron Energy =               -2876.7016710295279154
    Two-Electron Energy =                1216.6468917196841630
    Total Energy =                       -667.2759014963655773
  Basis Set: (AUG-CC-PVTZ AUX)
    Blend: AUG-CC-PVTZ-RI
    Molecular point group: c1

    Geometry (in Angstrom), charge = 0, multiplicity = 1:

       Center              X                  Y                   Z               Mass
    ------------   -----------------  -----------------  -----------------  -----------------
         O           -0.515355306328     2.231597175843    -0.295816551011    15.994914619570
         N           -2.978479306328     1.757255175843     0.828653448989    14.003074004430
         C            1.035275693672     0.466773175843    -0.083428551011    12.000000000000
         C           -1.498502306328     0.061814175843    -0.139044551011    12.000000000000
         C           -0.353346306328     1.004543175843    -0.180835551011    12.000000000000
         C            3.713790693672    -0.377600824157     0.172190448989    12.000000000000
         C           -2.778332306328     0.490902175843     0.300238448989    12.000000000000
         C            1.355692693672    -0.633625824157     0.724984448989    12.000000000000
         C            2.061825693672     1.154567175843    -0.745444551011    12.000000000000
         C            2.683380693672    -1.040942824157     0.850641448989    12.000000000000
         C            3.379907693672     0.723821175843    -0.629691551011    12.000000000000
         C           -1.344691306328    -1.242672824157    -0.645441551011    12.000000000000
         C           -3.826827306328    -0.446863824157     0.311768448989    12.000000000000
         C           -2.404584306328    -2.140987824157    -0.667347551011    12.000000000000
         C            5.138320693672    -0.856373824157     0.270206448989    12.000000000000
         C           -3.651327306328    -1.733723824157    -0.181844551011    12.000000000000
         H            0.572851693672    -1.149938824157     1.274832448989     1.007825032230
         H            1.803511193672     2.042256375843    -1.354514451011     1.007825032230
         H            2.924663693672    -1.884436824157     1.495701448989     1.007825032230
         H            4.167999693672     1.258588175843    -1.157786551011     1.007825032230
         H           -0.375123306328    -1.542629824157    -1.033374551011     1.007825032230
         H           -4.804322306328    -0.133881824157     0.675902448989     1.007825032230
         H           -2.268658306328    -3.139606824157    -1.073295551011     1.007825032230
         H            5.840363693672    -0.021829824157     0.186798448989     1.007825032230
         H            5.319487693672    -1.360113824157     1.223850448989     1.007825032230
         H            5.371240693672    -1.566823824157    -0.530710551011     1.007825032230
         H           -4.490608306328    -2.425835824157    -0.178468551011     1.007825032230
         H           -2.350137306328     2.459702175843     0.452384448989     1.007825032230
         H           -3.948078306328     2.050184175843     0.856573448989     1.007825032230

  Basis Set: AUG-CC-PVTZ
    Blend: AUG-CC-PVTZ
  Basis Set: (AUG-CC-PVTZ AUX)
    Blend: AUG-CC-PVTZ-JKFIT
	 Reference Energy          =    -667.2759014963656909 [Eh]
	 Singles Energy            =      -0.0000000000000000 [Eh]
	 Same-Spin Energy          =      -0.7355898018943222 [Eh]
	 Opposite-Spin Energy      =      -2.2657030864397707 [Eh]
	 Correlation Energy        =      -3.0012928883340928 [Eh]
	 Total Energy              =    -670.2771943846997829 [Eh]

	 ================> DF-SCS-MP2 Energies <==================
	-----------------------------------------------------------
	 SCS Same-Spin Scale       =       0.3333333333333333 [-]
	 SCS Opposite-Spin Scale   =       1.2000000000000000 [-]
	 SCS Same-Spin Energy      =      -0.2451966006314407 [Eh]
	 SCS Opposite-Spin Energy  =      -2.7188437037277247 [Eh]
	 SCS Correlation Energy    =      -2.9640403043591652 [Eh]
	 SCS Total Energy          =    -670.2399418007248642 [Eh]
	-----------------------------------------------------------

  Dipole Moment: [D]
     X:     0.3518      Y:    -1.8152      Z:    -0.1036     Total:     1.8519

*** Psi4 exiting successfully. Buy a developer a beer!
