                               Psi4 1.4a3.dev225

  ==> Input File <==

--------------------------------------------------------------------------
#psi4
#
memory 32 gb

molecule  {
0 1
  O       -0.5498120     2.2556960    -0.2996080
  N       -3.0129360     1.7813540     0.8248620
  C        1.0008190     0.4908720    -0.0872200
  C       -1.5329590     0.0859130    -0.1428360
  C       -0.3878030     1.0286420    -0.1846270
  C        3.6793340    -0.3535020     0.1683990
  C       -2.8127890     0.5150010     0.2964470
  C        1.3212360    -0.6095270     0.7211930
  C        2.0273690     1.1786660    -0.7492360
  C        2.6489240    -1.0168440     0.8468500
  C        3.3454510     0.7479200    -0.6334830
  C       -1.3791480    -1.2185740    -0.6492330
  C       -3.8612840    -0.4227650     0.3079770
  C       -2.4390410    -2.1168890    -0.6711390
  C        5.1038640    -0.8322750     0.2664150
  C       -3.6857840    -1.7096250    -0.1856360
  H        0.5383950    -1.1258400     1.2710410
  H        1.7737210     2.0503190    -1.3473030
  H        2.8902070    -1.8603380     1.4919100
  H        4.1335430     1.2826870    -1.1615780
  H       -0.4095800    -1.5185310    -1.0371660
  H       -4.8387790    -0.1097830     0.6721110
  H       -2.3031150    -3.1155080    -1.0770870
  H        5.8059070     0.0022690     0.1830070
  H        5.2883442    -1.3452273     1.2374991
  H        5.3367840    -1.5427250    -0.5345020
  H       -4.5250650    -2.4017370    -0.1822600
  H       -2.3845940     2.4838010     0.4485930
  H       -3.9825350     2.0742830     0.8527820
units angstrom
no_reorient  #important for SAPT in psi4, default
symmetry c1  #important for SAPT in psi4, default
}

set PROPERTIES_ORIGIN ["COM"]
properties('MP2/aug-cc-pvtz', properties = ['dipole'])
--------------------------------------------------------------------------

    Molecular point group: c1
  Charge       = 0
  Multiplicity = 1
  Basis Set: AUG-CC-PVTZ
    Blend: AUG-CC-PVTZ
  Basis Set: (AUG-CC-PVTZ AUX)
    Blend: AUG-CC-PVTZ-JKFIT

    Orbital Energies [Eh]
    ---------------------

    Doubly Occupied:

       1A    -20.538051     2A    -15.560044     3A    -11.338521
       4A    -11.296922     5A    -11.257506     6A    -11.252745
       7A    -11.252280     8A    -11.250615     9A    -11.246405
      10A    -11.243620    11A    -11.239138    12A    -11.239133
      13A    -11.237959    14A    -11.235625    15A    -11.231982
      16A    -11.228320    17A     -1.371109    18A     -1.226581
      19A     -1.165239    20A     -1.137127    21A     -1.069382
      22A     -1.034450    23A     -1.020668    24A     -0.996560
      25A     -0.953551    26A     -0.876773    27A     -0.838873
      28A     -0.836360    29A     -0.812945    30A     -0.766189
      31A     -0.712739    32A     -0.691736    33A     -0.686227
      34A     -0.661288    35A     -0.644759    36A     -0.636539
      37A     -0.614191    38A     -0.603728    39A     -0.599738
      40A     -0.592691    41A     -0.584670    42A     -0.583565
      43A     -0.554672    44A     -0.543442    45A     -0.531635
      46A     -0.518090    47A     -0.513294    48A     -0.504920
      49A     -0.493322    50A     -0.482023    51A     -0.452314
      52A     -0.418962    53A     -0.349756    54A     -0.343141
      55A     -0.334010    56A     -0.300379

  @DF-RHF Final Energy:  -667.27605792821623

   => Energetics <=

    Nuclear Repulsion Energy =            992.7958005124330612
    One-Electron Energy =               -2876.7307069880012023
    Two-Electron Energy =                1216.6588485473519086
    Total Energy =                       -667.2760579282162325
  Basis Set: (AUG-CC-PVTZ AUX)
    Blend: AUG-CC-PVTZ-RI
    Molecular point group: c1

    Geometry (in Angstrom), charge = 0, multiplicity = 1:

       Center              X                  Y                   Z               Mass
    ------------   -----------------  -----------------  -----------------  -----------------
         O           -0.515393402739     2.231717716368    -0.295952342608    15.994914619570
         N           -2.978517402739     1.757375716368     0.828517657392    14.003074004430
         C            1.035237597261     0.466893716368    -0.083564342608    12.000000000000
         C           -1.498540402739     0.061934716368    -0.139180342608    12.000000000000
         C           -0.353384402739     1.004663716368    -0.180971342608    12.000000000000
         C            3.713752597261    -0.377480283632     0.172054657392    12.000000000000
         C           -2.778370402739     0.491022716368     0.300102657392    12.000000000000
         C            1.355654597261    -0.633505283632     0.724848657392    12.000000000000
         C            2.061787597261     1.154687716368    -0.745580342608    12.000000000000
         C            2.683342597261    -1.040822283632     0.850505657392    12.000000000000
         C            3.379869597261     0.723941716368    -0.629827342608    12.000000000000
         C           -1.344729402739    -1.242552283632    -0.645577342608    12.000000000000
         C           -3.826865402739    -0.446743283632     0.311632657392    12.000000000000
         C           -2.404622402739    -2.140867283632    -0.667483342608    12.000000000000
         C            5.138282597261    -0.856253283632     0.270070657392    12.000000000000
         C           -3.651365402739    -1.733603283632    -0.181980342608    12.000000000000
         H            0.572813597261    -1.149818283632     1.274696657392     1.007825032230
         H            1.808139597261     2.026340716368    -1.343647342608     1.007825032230
         H            2.924625597261    -1.884316283632     1.495565657392     1.007825032230
         H            4.167961597261     1.258708716368    -1.157922342608     1.007825032230
         H           -0.375161402739    -1.542509283632    -1.033510342608     1.007825032230
         H           -4.804360402739    -0.133761283632     0.675766657392     1.007825032230
         H           -2.268696402739    -3.139486283632    -1.073431342608     1.007825032230
         H            5.840325597261    -0.021709283632     0.186662657392     1.007825032230
         H            5.322762797261    -1.369205583632     1.241154757392     1.007825032230
         H            5.371202597261    -1.566703283632    -0.530846342608     1.007825032230
         H           -4.490646402739    -2.425715283632    -0.178604342608     1.007825032230
         H           -2.350175402739     2.459822716368     0.452248657392     1.007825032230
         H           -3.948116402739     2.050304716368     0.856437657392     1.007825032230

  Basis Set: AUG-CC-PVTZ
    Blend: AUG-CC-PVTZ
  Basis Set: (AUG-CC-PVTZ AUX)
    Blend: AUG-CC-PVTZ-JKFIT
	 Reference Energy          =    -667.2760579282162325 [Eh]
	 Singles Energy            =      -0.0000000000000000 [Eh]
	 Same-Spin Energy          =      -0.7355271775560219 [Eh]
	 Opposite-Spin Energy      =      -2.2656478606583410 [Eh]
	 Correlation Energy        =      -3.0011750382143632 [Eh]
	 Total Energy              =    -670.2772329664305744 [Eh]

	 ================> DF-SCS-MP2 Energies <==================
	-----------------------------------------------------------
	 SCS Same-Spin Scale       =       0.3333333333333333 [-]
	 SCS Opposite-Spin Scale   =       1.2000000000000000 [-]
	 SCS Same-Spin Energy      =      -0.2451757258520073 [Eh]
	 SCS Opposite-Spin Energy  =      -2.7187774327900089 [Eh]
	 SCS Correlation Energy    =      -2.9639531586420160 [Eh]
	 SCS Total Energy          =    -670.2400110868582033 [Eh]
	-----------------------------------------------------------

  Dipole Moment: [D]
     X:     0.3444      Y:    -1.8091      Z:    -0.1129     Total:     1.8451

*** Psi4 exiting successfully. Buy a developer a beer!
