                               Psi4 1.4a3.dev225

  ==> Input File <==

--------------------------------------------------------------------------
#psi4
#
memory 32 gb

molecule  {
0 1
  O       -0.5498120     2.2556960    -0.2996080
  N       -3.0129360     1.7813540     0.8248620
  C        1.0008190     0.4908720    -0.0872200
  C       -1.5329590     0.0859130    -0.1428360
  C       -0.3878030     1.0286420    -0.1846270
  C        3.6793340    -0.3535020     0.1683990
  C       -2.8127890     0.5150010     0.2964470
  C        1.3212360    -0.6095270     0.7211930
  C        2.0273690     1.1786660    -0.7492360
  C        2.6489240    -1.0168440     0.8468500
  C        3.3454510     0.7479200    -0.6334830
  C       -1.3791480    -1.2185740    -0.6492330
  C       -3.8612840    -0.4227650     0.3079770
  C       -2.4390410    -2.1168890    -0.6711390
  C        5.1038640    -0.8322750     0.2664150
  C       -3.5929098    -1.6870202    -0.2020198
  H        0.5383950    -1.1258400     1.2710410
  H        1.7737210     2.0503190    -1.3473030
  H        2.8902070    -1.8603380     1.4919100
  H        4.1335430     1.2826870    -1.1615780
  H       -0.4095800    -1.5185310    -1.0371660
  H       -4.8387790    -0.1097830     0.6721110
  H       -2.3031150    -3.1155080    -1.0770870
  H        5.8059070     0.0022690     0.1830070
  H        5.2850310    -1.3360150     1.2200590
  H        5.3367840    -1.5427250    -0.5345020
  H       -4.5250650    -2.4017370    -0.1822600
  H       -2.3845940     2.4838010     0.4485930
  H       -3.9825350     2.0742830     0.8527820
units angstrom
no_reorient  #important for SAPT in psi4, default
symmetry c1  #important for SAPT in psi4, default
}

set PROPERTIES_ORIGIN ["COM"]
properties('MP2/aug-cc-pvtz', properties = ['dipole'])
--------------------------------------------------------------------------

    Molecular point group: c1
  Charge       = 0
  Multiplicity = 1
  Basis Set: AUG-CC-PVTZ
    Blend: AUG-CC-PVTZ
  Basis Set: (AUG-CC-PVTZ AUX)
    Blend: AUG-CC-PVTZ-JKFIT

    Orbital Energies [Eh]
    ---------------------

    Doubly Occupied:

       1A    -20.538577     2A    -15.558620     3A    -11.339285
       4A    -11.294755     5A    -11.257802     6A    -11.254972
       7A    -11.251114     8A    -11.249256     9A    -11.246807
      10A    -11.244098    11A    -11.240159    12A    -11.239581
      13A    -11.238277    14A    -11.233598    15A    -11.229056
      16A    -11.220129    17A     -1.371655    18A     -1.226541
      19A     -1.165889    20A     -1.146926    21A     -1.070861
      22A     -1.034892    23A     -1.021002    24A     -1.002975
      25A     -0.954797    26A     -0.874652    27A     -0.841854
      28A     -0.838071    29A     -0.811029    30A     -0.766758
      31A     -0.715135    32A     -0.690301    33A     -0.680549
      34A     -0.660660    35A     -0.646679    36A     -0.637802
      37A     -0.615369    38A     -0.603029    39A     -0.600737
      40A     -0.593742    41A     -0.587674    42A     -0.584444
      43A     -0.556956    44A     -0.544284    45A     -0.527871
      46A     -0.520152    47A     -0.508528    48A     -0.499460
      49A     -0.493897    50A     -0.483079    51A     -0.458327
      52A     -0.418706    53A     -0.349757    54A     -0.343485
      55A     -0.334417    56A     -0.304468

  @DF-RHF Final Energy:  -667.26485833541824

   => Energetics <=

    Nuclear Repulsion Energy =            994.8205232283612531
    One-Electron Energy =               -2880.7237750969898116
    Two-Electron Energy =                1218.6383935332103192
    Total Energy =                       -667.2648583354182392
  Basis Set: (AUG-CC-PVTZ AUX)
    Blend: AUG-CC-PVTZ-RI
    Molecular point group: c1

    Geometry (in Angstrom), charge = 0, multiplicity = 1:

       Center              X                  Y                   Z               Mass
    ------------   -----------------  -----------------  -----------------  -----------------
         O           -0.520657035042     2.230388761529    -0.294937740716    15.994914619570
         N           -2.983781035042     1.756046761529     0.829532259284    14.003074004430
         C            1.029973964958     0.465564761529    -0.082549740716    12.000000000000
         C           -1.503804035042     0.060605761529    -0.138165740716    12.000000000000
         C           -0.358648035042     1.003334761529    -0.179956740716    12.000000000000
         C            3.708488964958    -0.378809238471     0.173069259284    12.000000000000
         C           -2.783634035042     0.489693761529     0.301117259284    12.000000000000
         C            1.350390964958    -0.634834238471     0.725863259284    12.000000000000
         C            2.056523964958     1.153358761529    -0.744565740716    12.000000000000
         C            2.678078964958    -1.042151238471     0.851520259284    12.000000000000
         C            3.374605964958     0.722612761529    -0.628812740716    12.000000000000
         C           -1.349993035042    -1.243881238471    -0.644562740716    12.000000000000
         C           -3.832129035042    -0.448072238471     0.312647259284    12.000000000000
         C           -2.409886035042    -2.142196238471    -0.666468740716    12.000000000000
         C            5.133018964958    -0.857582238471     0.271085259284    12.000000000000
         C           -3.563754835042    -1.712327438471    -0.197349540716    12.000000000000
         H            0.567549964958    -1.151147238471     1.275711259284     1.007825032230
         H            1.802875964958     2.025011761529    -1.342632740716     1.007825032230
         H            2.919361964958    -1.885645238471     1.496580259284     1.007825032230
         H            4.162697964958     1.257379761529    -1.156907740716     1.007825032230
         H           -0.380425035042    -1.543838238471    -1.032495740716     1.007825032230
         H           -4.809624035042    -0.135090238471     0.676781259284     1.007825032230
         H           -2.273960035042    -3.140815238471    -1.072416740716     1.007825032230
         H            5.835061964958    -0.023038238471     0.187677259284     1.007825032230
         H            5.314185964958    -1.361322238471     1.224729259284     1.007825032230
         H            5.365938964958    -1.568032238471    -0.529831740716     1.007825032230
         H           -4.495910035042    -2.427044238471    -0.177589740716     1.007825032230
         H           -2.355439035042     2.458493761529     0.453263259284     1.007825032230
         H           -3.953380035042     2.048975761529     0.857452259284     1.007825032230

  Basis Set: AUG-CC-PVTZ
    Blend: AUG-CC-PVTZ
  Basis Set: (AUG-CC-PVTZ AUX)
    Blend: AUG-CC-PVTZ-JKFIT
	 Reference Energy          =    -667.2648583354182392 [Eh]
	 Singles Energy            =      -0.0000000000000000 [Eh]
	 Same-Spin Energy          =      -0.7356669415380642 [Eh]
	 Opposite-Spin Energy      =      -2.2655210229766518 [Eh]
	 Correlation Energy        =      -3.0011879645147159 [Eh]
	 Total Energy              =    -670.2660462999330093 [Eh]

	 ================> DF-SCS-MP2 Energies <==================
	-----------------------------------------------------------
	 SCS Same-Spin Scale       =       0.3333333333333333 [-]
	 SCS Opposite-Spin Scale   =       1.2000000000000000 [-]
	 SCS Same-Spin Energy      =      -0.2452223138460214 [Eh]
	 SCS Opposite-Spin Energy  =      -2.7186252275719820 [Eh]
	 SCS Correlation Energy    =      -2.9638475414180032 [Eh]
	 SCS Total Energy          =    -670.2287058768362158 [Eh]
	-----------------------------------------------------------

  Dipole Moment: [D]
     X:     0.4524      Y:    -1.7823      Z:    -0.1251     Total:     1.8431

*** Psi4 exiting successfully. Buy a developer a beer!
