                               Psi4 1.4a3.dev225

  ==> Input File <==

--------------------------------------------------------------------------
#psi4
#
memory 32 gb

molecule  {
0 1
  O       -0.5498120     2.2556960    -0.2996080
  N       -3.0129360     1.7813540     0.8248620
  C        1.0008190     0.4908720    -0.0872200
  C       -1.5329590     0.0859130    -0.1428360
  C       -0.3878030     1.0286420    -0.1846270
  C        3.6793340    -0.3535020     0.1683990
  C       -2.8127890     0.5150010     0.2964470
  C        1.3212360    -0.6095270     0.7211930
  C        2.0273690     1.1786660    -0.7492360
  C        2.6489240    -1.0168440     0.8468500
  C        3.3454510     0.7479200    -0.6334830
  C       -1.3791480    -1.2185740    -0.6492330
  C       -3.8612840    -0.4227650     0.3079770
  C       -2.4390410    -2.1168890    -0.6711390
  C        5.1038640    -0.8322750     0.2664150
  C       -3.6857840    -1.7096250    -0.1856360
  H        0.5383950    -1.1258400     1.2710410
  H        1.7270562     2.2106810    -1.4573322
  H        2.8902070    -1.8603380     1.4919100
  H        4.1335430     1.2826870    -1.1615780
  H       -0.4095800    -1.5185310    -1.0371660
  H       -4.8387790    -0.1097830     0.6721110
  H       -2.3031150    -3.1155080    -1.0770870
  H        5.8059070     0.0022690     0.1830070
  H        5.2850310    -1.3360150     1.2200590
  H        5.3367840    -1.5427250    -0.5345020
  H       -4.5250650    -2.4017370    -0.1822600
  H       -2.3845940     2.4838010     0.4485930
  H       -3.9825350     2.0742830     0.8527820
units angstrom
no_reorient  #important for SAPT in psi4, default
symmetry c1  #important for SAPT in psi4, default
}

set PROPERTIES_ORIGIN ["COM"]
properties('MP2/aug-cc-pvtz', properties = ['dipole'])
--------------------------------------------------------------------------

    Molecular point group: c1
  Charge       = 0
  Multiplicity = 1
  Basis Set: AUG-CC-PVTZ
    Blend: AUG-CC-PVTZ
  Basis Set: (AUG-CC-PVTZ AUX)
    Blend: AUG-CC-PVTZ-JKFIT

    Orbital Energies [Eh]
    ---------------------

    Doubly Occupied:

       1A    -20.537684     2A    -15.559997     3A    -11.338481
       4A    -11.296909     5A    -11.265801     6A    -11.258345
       7A    -11.252740     8A    -11.252288     9A    -11.251775
      10A    -11.245432    11A    -11.239594    12A    -11.239214
      13A    -11.239172    14A    -11.233800    15A    -11.231984
      16A    -11.228332    17A     -1.370715    18A     -1.226539
      19A     -1.165408    20A     -1.137141    21A     -1.069822
      22A     -1.033672    23A     -1.017924    24A     -0.996564
      25A     -0.955202    26A     -0.876196    27A     -0.836757
      28A     -0.835110    29A     -0.808774    30A     -0.764116
      31A     -0.712450    32A     -0.690398    33A     -0.686105
      34A     -0.659898    35A     -0.641550    36A     -0.629950
      37A     -0.613465    38A     -0.603768    39A     -0.600243
      40A     -0.585389    41A     -0.584200    42A     -0.576259
      43A     -0.554833    44A     -0.544832    45A     -0.531351
      46A     -0.518283    47A     -0.512636    48A     -0.503922
      49A     -0.482943    50A     -0.479390    51A     -0.452302
      52A     -0.418827    53A     -0.349866    54A     -0.343654
      55A     -0.334750    56A     -0.300374

  @DF-RHF Final Energy:  -667.25373369022236

   => Energetics <=

    Nuclear Repulsion Energy =            991.9339808405295571
    One-Electron Energy =               -2875.0211722903923146
    Two-Electron Energy =                1215.8334577596403960
    Total Energy =                       -667.2537336902223615
  Basis Set: (AUG-CC-PVTZ AUX)
    Blend: AUG-CC-PVTZ-RI
    Molecular point group: c1

    Geometry (in Angstrom), charge = 0, multiplicity = 1:

       Center              X                  Y                   Z               Mass
    ------------   -----------------  -----------------  -----------------  -----------------
         O           -0.515154799481     2.230908140547    -0.295343783038    15.994914619570
         N           -2.978278799481     1.756566140547     0.829126216962    14.003074004430
         C            1.035476200519     0.466084140547    -0.082955783038    12.000000000000
         C           -1.498301799481     0.061125140547    -0.138571783038    12.000000000000
         C           -0.353145799481     1.003854140547    -0.180362783038    12.000000000000
         C            3.713991200519    -0.378289859453     0.172663216962    12.000000000000
         C           -2.778131799481     0.490213140547     0.300711216962    12.000000000000
         C            1.355893200519    -0.634314859453     0.725457216962    12.000000000000
         C            2.062026200519     1.153878140547    -0.744971783038    12.000000000000
         C            2.683581200519    -1.041631859453     0.851114216962    12.000000000000
         C            3.380108200519     0.723132140547    -0.629218783038    12.000000000000
         C           -1.344490799481    -1.243361859453    -0.644968783038    12.000000000000
         C           -3.826626799481    -0.447552859453     0.312241216962    12.000000000000
         C           -2.404383799481    -2.141676859453    -0.666874783038    12.000000000000
         C            5.138521200519    -0.857062859453     0.270679216962    12.000000000000
         C           -3.651126799481    -1.734412859453    -0.181371783038    12.000000000000
         H            0.573052200519    -1.150627859453     1.275305216962     1.007825032230
         H            1.761713400519     2.185893140547    -1.453067983038     1.007825032230
         H            2.924864200519    -1.885125859453     1.496174216962     1.007825032230
         H            4.168200200519     1.257899140547    -1.157313783038     1.007825032230
         H           -0.374922799481    -1.543318859453    -1.032901783038     1.007825032230
         H           -4.804121799481    -0.134570859453     0.676375216962     1.007825032230
         H           -2.268457799481    -3.140295859453    -1.072822783038     1.007825032230
         H            5.840564200519    -0.022518859453     0.187271216962     1.007825032230
         H            5.319688200519    -1.360802859453     1.224323216962     1.007825032230
         H            5.371441200519    -1.567512859453    -0.530237783038     1.007825032230
         H           -4.490407799481    -2.426524859453    -0.177995783038     1.007825032230
         H           -2.349936799481     2.459013140547     0.452857216962     1.007825032230
         H           -3.947877799481     2.049495140547     0.857046216962     1.007825032230

  Basis Set: AUG-CC-PVTZ
    Blend: AUG-CC-PVTZ
  Basis Set: (AUG-CC-PVTZ AUX)
    Blend: AUG-CC-PVTZ-JKFIT
	 Reference Energy          =    -667.2537336902223615 [Eh]
	 Singles Energy            =      -0.0000000000000000 [Eh]
	 Same-Spin Energy          =      -0.7363329119947942 [Eh]
	 Opposite-Spin Energy      =      -2.2681303279976701 [Eh]
	 Correlation Energy        =      -3.0044632399924645 [Eh]
	 Total Energy              =    -670.2581969302148082 [Eh]

	 ================> DF-SCS-MP2 Energies <==================
	-----------------------------------------------------------
	 SCS Same-Spin Scale       =       0.3333333333333333 [-]
	 SCS Opposite-Spin Scale   =       1.2000000000000000 [-]
	 SCS Same-Spin Energy      =      -0.2454443039982647 [Eh]
	 SCS Opposite-Spin Energy  =      -2.7217563935972042 [Eh]
	 SCS Correlation Energy    =      -2.9672006975954690 [Eh]
	 SCS Total Energy          =    -670.2209343878178061 [Eh]
	-----------------------------------------------------------

  Dipole Moment: [D]
     X:     0.3497      Y:    -1.8365      Z:    -0.0721     Total:     1.8709

*** Psi4 exiting successfully. Buy a developer a beer!
