                               Psi4 1.4a3.dev225

  ==> Input File <==

--------------------------------------------------------------------------
#psi4
#
memory 32 gb

molecule  {
0 1
  O       -0.5498120     2.2556960    -0.2996080
  N       -3.0129360     1.7813540     0.8248620
  C        1.0008190     0.4908720    -0.0872200
  C       -1.5329590     0.0859130    -0.1428360
  C       -0.3878030     1.0286420    -0.1846270
  C        3.6793340    -0.3535020     0.1683990
  C       -2.8308208     0.5210465     0.3026362
  C        1.3212360    -0.6095270     0.7211930
  C        2.0273690     1.1786660    -0.7492360
  C        2.6489240    -1.0168440     0.8468500
  C        3.3454510     0.7479200    -0.6334830
  C       -1.3791480    -1.2185740    -0.6492330
  C       -3.8612840    -0.4227650     0.3079770
  C       -2.4390410    -2.1168890    -0.6711390
  C        5.1038640    -0.8322750     0.2664150
  C       -3.6857840    -1.7096250    -0.1856360
  H        0.5383950    -1.1258400     1.2710410
  H        1.7737210     2.0503190    -1.3473030
  H        2.8902070    -1.8603380     1.4919100
  H        4.1335430     1.2826870    -1.1615780
  H       -0.4095800    -1.5185310    -1.0371660
  H       -4.8387790    -0.1097830     0.6721110
  H       -2.3031150    -3.1155080    -1.0770870
  H        5.8059070     0.0022690     0.1830070
  H        5.2850310    -1.3360150     1.2200590
  H        5.3367840    -1.5427250    -0.5345020
  H       -4.5250650    -2.4017370    -0.1822600
  H       -2.3845940     2.4838010     0.4485930
  H       -3.9825350     2.0742830     0.8527820
units angstrom
no_reorient  #important for SAPT in psi4, default
symmetry c1  #important for SAPT in psi4, default
}

set PROPERTIES_ORIGIN ["COM"]
properties('MP2/aug-cc-pvtz', properties = ['dipole'])
--------------------------------------------------------------------------

    Molecular point group: c1
  Charge       = 0
  Multiplicity = 1
  Basis Set: AUG-CC-PVTZ
    Blend: AUG-CC-PVTZ
  Basis Set: (AUG-CC-PVTZ AUX)
    Blend: AUG-CC-PVTZ-JKFIT

    Orbital Energies [Eh]
    ---------------------

    Doubly Occupied:

       1A    -20.537502     2A    -15.561371     3A    -11.338105
       4A    -11.297613     5A    -11.257131     6A    -11.253192
       7A    -11.252320     8A    -11.250312     9A    -11.246098
      10A    -11.243321    11A    -11.240320    12A    -11.238889
      13A    -11.237621    14A    -11.233090    15A    -11.230303
      16A    -11.227708    17A     -1.370654    18A     -1.230184
      19A     -1.164974    20A     -1.136994    21A     -1.069299
      22A     -1.033710    23A     -1.020290    24A     -0.996642
      25A     -0.954071    26A     -0.877440    27A     -0.838273
      28A     -0.834861    29A     -0.813495    30A     -0.766102
      31A     -0.712311    32A     -0.693283    33A     -0.687961
      34A     -0.661553    35A     -0.645009    36A     -0.636498
      37A     -0.612036    38A     -0.605138    39A     -0.599626
      40A     -0.592430    41A     -0.584464    42A     -0.583631
      43A     -0.555766    44A     -0.544796    45A     -0.532992
      46A     -0.518432    47A     -0.512400    48A     -0.503126
      49A     -0.493283    50A     -0.482099    51A     -0.453680
      52A     -0.418565    53A     -0.349419    54A     -0.342790
      55A     -0.333761    56A     -0.299205

  @DF-RHF Final Energy:  -667.27600066212165

   => Energetics <=

    Nuclear Repulsion Energy =            992.6600250416447579
    One-Electron Energy =               -2876.4597752423724160
    Two-Electron Energy =                1216.5237495386061255
    Total Energy =                       -667.2760006621215325
  Basis Set: (AUG-CC-PVTZ AUX)
    Blend: AUG-CC-PVTZ-RI
    Molecular point group: c1

    Geometry (in Angstrom), charge = 0, multiplicity = 1:

       Center              X                  Y                   Z               Mass
    ------------   -----------------  -----------------  -----------------  -----------------
         O           -0.514352564162     2.231330077820    -0.296220906831    15.994914619570
         N           -2.977476564162     1.756988077820     0.828249093169    14.003074004430
         C            1.036278435838     0.466506077820    -0.083832906831    12.000000000000
         C           -1.497499564162     0.061547077820    -0.139448906831    12.000000000000
         C           -0.352343564162     1.004276077820    -0.181239906831    12.000000000000
         C            3.714793435838    -0.377867922180     0.171786093169    12.000000000000
         C           -2.795361364162     0.496680577820     0.306023293169    12.000000000000
         C            1.356695435838    -0.633892922180     0.724580093169    12.000000000000
         C            2.062828435838     1.154300077820    -0.745848906831    12.000000000000
         C            2.684383435838    -1.041209922180     0.850237093169    12.000000000000
         C            3.380910435838     0.723554077820    -0.630095906831    12.000000000000
         C           -1.343688564162    -1.242939922180    -0.645845906831    12.000000000000
         C           -3.825824564162    -0.447130922180     0.311364093169    12.000000000000
         C           -2.403581564162    -2.141254922180    -0.667751906831    12.000000000000
         C            5.139323435838    -0.856640922180     0.269802093169    12.000000000000
         C           -3.650324564162    -1.733990922180    -0.182248906831    12.000000000000
         H            0.573854435838    -1.150205922180     1.274428093169     1.007825032230
         H            1.809180435838     2.025953077820    -1.343915906831     1.007825032230
         H            2.925666435838    -1.884703922180     1.495297093169     1.007825032230
         H            4.169002435838     1.258321077820    -1.158190906831     1.007825032230
         H           -0.374120564162    -1.542896922180    -1.033778906831     1.007825032230
         H           -4.803319564162    -0.134148922180     0.675498093169     1.007825032230
         H           -2.267655564162    -3.139873922180    -1.073699906831     1.007825032230
         H            5.841366435838    -0.022096922180     0.186394093169     1.007825032230
         H            5.320490435838    -1.360380922180     1.223446093169     1.007825032230
         H            5.372243435838    -1.567090922180    -0.531114906831     1.007825032230
         H           -4.489605564162    -2.426102922180    -0.178872906831     1.007825032230
         H           -2.349134564162     2.459435077820     0.451980093169     1.007825032230
         H           -3.947075564162     2.049917077820     0.856169093169     1.007825032230

  Basis Set: AUG-CC-PVTZ
    Blend: AUG-CC-PVTZ
  Basis Set: (AUG-CC-PVTZ AUX)
    Blend: AUG-CC-PVTZ-JKFIT
	 Reference Energy          =    -667.2760006621216462 [Eh]
	 Singles Energy            =      -0.0000000000000000 [Eh]
	 Same-Spin Energy          =      -0.7356128500028959 [Eh]
	 Opposite-Spin Energy      =      -2.2655101016751868 [Eh]
	 Correlation Energy        =      -3.0011229516780826 [Eh]
	 Total Energy              =    -670.2771236137997448 [Eh]

	 ================> DF-SCS-MP2 Energies <==================
	-----------------------------------------------------------
	 SCS Same-Spin Scale       =       0.3333333333333333 [-]
	 SCS Opposite-Spin Scale   =       1.2000000000000000 [-]
	 SCS Same-Spin Energy      =      -0.2452042833342986 [Eh]
	 SCS Opposite-Spin Energy  =      -2.7186121220102240 [Eh]
	 SCS Correlation Energy    =      -2.9638164053445224 [Eh]
	 SCS Total Energy          =    -670.2398170674662197 [Eh]
	-----------------------------------------------------------

  Dipole Moment: [D]
     X:     0.3263      Y:    -1.7637      Z:    -0.0813     Total:     1.7955

*** Psi4 exiting successfully. Buy a developer a beer!
