                               Psi4 1.4a3.dev225

  ==> Input File <==

--------------------------------------------------------------------------
#psi4
#
memory 32 gb

molecule  {
0 1
  O       -0.5498120     2.2556960    -0.2996080
  N       -3.0129360     1.7813540     0.8248620
  C        0.9772929     0.4883612    -0.0809425
  C       -1.5329590     0.0859130    -0.1428360
  C       -0.3878030     1.0286420    -0.1846270
  C        3.6793340    -0.3535020     0.1683990
  C       -2.8127890     0.5150010     0.2964470
  C        1.3212360    -0.6095270     0.7211930
  C        2.0273690     1.1786660    -0.7492360
  C        2.6489240    -1.0168440     0.8468500
  C        3.3454510     0.7479200    -0.6334830
  C       -1.3791480    -1.2185740    -0.6492330
  C       -3.8612840    -0.4227650     0.3079770
  C       -2.4390410    -2.1168890    -0.6711390
  C        5.1038640    -0.8322750     0.2664150
  C       -3.6857840    -1.7096250    -0.1856360
  H        0.5383950    -1.1258400     1.2710410
  H        1.7737210     2.0503190    -1.3473030
  H        2.8902070    -1.8603380     1.4919100
  H        4.1335430     1.2826870    -1.1615780
  H       -0.4095800    -1.5185310    -1.0371660
  H       -4.8387790    -0.1097830     0.6721110
  H       -2.3031150    -3.1155080    -1.0770870
  H        5.8059070     0.0022690     0.1830070
  H        5.2850310    -1.3360150     1.2200590
  H        5.3367840    -1.5427250    -0.5345020
  H       -4.5250650    -2.4017370    -0.1822600
  H       -2.3845940     2.4838010     0.4485930
  H       -3.9825350     2.0742830     0.8527820
units angstrom
no_reorient  #important for SAPT in psi4, default
symmetry c1  #important for SAPT in psi4, default
}

set PROPERTIES_ORIGIN ["COM"]
properties('MP2/aug-cc-pvtz', properties = ['dipole'])
--------------------------------------------------------------------------

    Molecular point group: c1
  Charge       = 0
  Multiplicity = 1
  Basis Set: AUG-CC-PVTZ
    Blend: AUG-CC-PVTZ
  Basis Set: (AUG-CC-PVTZ AUX)
    Blend: AUG-CC-PVTZ-JKFIT

    Orbital Energies [Eh]
    ---------------------

    Doubly Occupied:

       1A    -20.537255     2A    -15.559705     3A    -11.337149
       4A    -11.296469     5A    -11.258818     6A    -11.252407
       7A    -11.251901     8A    -11.251815     9A    -11.249395
      10A    -11.244202    11A    -11.239337    12A    -11.238520
      13A    -11.238194    14A    -11.233938    15A    -11.231657
      16A    -11.228015    17A     -1.370968    18A     -1.226225
      19A     -1.164193    20A     -1.136854    21A     -1.070812
      22A     -1.033639    23A     -1.020243    24A     -0.996291
      25A     -0.956601    26A     -0.877536    27A     -0.837987
      28A     -0.837492    29A     -0.813694    30A     -0.765915
      31A     -0.712966    32A     -0.691461    33A     -0.686072
      34A     -0.661936    35A     -0.644964    36A     -0.636755
      37A     -0.614205    38A     -0.603766    39A     -0.600617
      40A     -0.591000    41A     -0.585163    42A     -0.584223
      43A     -0.556228    44A     -0.544483    45A     -0.531762
      46A     -0.518148    47A     -0.513679    48A     -0.505114
      49A     -0.491613    50A     -0.480951    51A     -0.452002
      52A     -0.420072    53A     -0.349610    54A     -0.343500
      55A     -0.333099    56A     -0.300003

  @DF-RHF Final Energy:  -667.27540107375216

   => Energetics <=

    Nuclear Repulsion Energy =            992.9453657009447625
    One-Electron Energy =               -2877.0202964591635464
    Two-Electron Energy =                1216.7995296844665063
    Total Energy =                       -667.2754010737521639
  Basis Set: (AUG-CC-PVTZ AUX)
    Blend: AUG-CC-PVTZ-RI
    Molecular point group: c1

    Geometry (in Angstrom), charge = 0, multiplicity = 1:

       Center              X                  Y                   Z               Mass
    ------------   -----------------  -----------------  -----------------  -----------------
         O           -0.514040239722     2.231816462184    -0.296225926260    15.994914619570
         N           -2.977164239722     1.757474462184     0.828244073740    14.003074004430
         C            1.013064660278     0.464481662184    -0.077560426260    12.000000000000
         C           -1.497187239722     0.062033462184    -0.139453926260    12.000000000000
         C           -0.352031239722     1.004762462184    -0.181244926260    12.000000000000
         C            3.715105760278    -0.377381537816     0.171781073740    12.000000000000
         C           -2.777017239722     0.491121462184     0.299829073740    12.000000000000
         C            1.357007760278    -0.633406537816     0.724575073740    12.000000000000
         C            2.063140760278     1.154786462184    -0.745853926260    12.000000000000
         C            2.684695760278    -1.040723537816     0.850232073740    12.000000000000
         C            3.381222760278     0.724040462184    -0.630100926260    12.000000000000
         C           -1.343376239722    -1.242453537816    -0.645850926260    12.000000000000
         C           -3.825512239722    -0.446644537816     0.311359073740    12.000000000000
         C           -2.403269239722    -2.140768537816    -0.667756926260    12.000000000000
         C            5.139635760278    -0.856154537816     0.269797073740    12.000000000000
         C           -3.650012239722    -1.733504537816    -0.182253926260    12.000000000000
         H            0.574166760278    -1.149719537816     1.274423073740     1.007825032230
         H            1.809492760278     2.026439462184    -1.343920926260     1.007825032230
         H            2.925978760278    -1.884217537816     1.495292073740     1.007825032230
         H            4.169314760278     1.258807462184    -1.158195926260     1.007825032230
         H           -0.373808239722    -1.542410537816    -1.033783926260     1.007825032230
         H           -4.803007239722    -0.133662537816     0.675493073740     1.007825032230
         H           -2.267343239722    -3.139387537816    -1.073704926260     1.007825032230
         H            5.841678760278    -0.021610537816     0.186389073740     1.007825032230
         H            5.320802760278    -1.359894537816     1.223441073740     1.007825032230
         H            5.372555760278    -1.566604537816    -0.531119926260     1.007825032230
         H           -4.489293239722    -2.425616537816    -0.178877926260     1.007825032230
         H           -2.348822239722     2.459921462184     0.451975073740     1.007825032230
         H           -3.946763239722     2.050403462184     0.856164073740     1.007825032230

  Basis Set: AUG-CC-PVTZ
    Blend: AUG-CC-PVTZ
  Basis Set: (AUG-CC-PVTZ AUX)
    Blend: AUG-CC-PVTZ-JKFIT
	 Reference Energy          =    -667.2754010737521639 [Eh]
	 Singles Energy            =      -0.0000000000000000 [Eh]
	 Same-Spin Energy          =      -0.7357111846167033 [Eh]
	 Opposite-Spin Energy      =      -2.2658509261633948 [Eh]
	 Correlation Energy        =      -3.0015621107800978 [Eh]
	 Total Energy              =    -670.2769631845322920 [Eh]

	 ================> DF-SCS-MP2 Energies <==================
	-----------------------------------------------------------
	 SCS Same-Spin Scale       =       0.3333333333333333 [-]
	 SCS Opposite-Spin Scale   =       1.2000000000000000 [-]
	 SCS Same-Spin Energy      =      -0.2452370615389011 [Eh]
	 SCS Opposite-Spin Energy  =      -2.7190211113960738 [Eh]
	 SCS Correlation Energy    =      -2.9642581729349748 [Eh]
	 SCS Total Energy          =    -670.2396592466870970 [Eh]
	-----------------------------------------------------------

  Dipole Moment: [D]
     X:     0.4263      Y:    -1.8325      Z:    -0.0998     Total:     1.8840

*** Psi4 exiting successfully. Buy a developer a beer!
