                               Psi4 1.4a3.dev225

  ==> Input File <==

--------------------------------------------------------------------------
#psi4
#
memory 32 gb

molecule  {
0 1
  O       -0.5498120     2.2556960    -0.2996080
  N       -3.0129360     1.7813540     0.8248620
  C        1.0008190     0.4908720    -0.0872200
  C       -1.6734753     0.0505994    -0.1159859
  C       -0.3878030     1.0286420    -0.1846270
  C        3.6793340    -0.3535020     0.1683990
  C       -2.8127890     0.5150010     0.2964470
  C        1.3212360    -0.6095270     0.7211930
  C        2.0273690     1.1786660    -0.7492360
  C        2.6489240    -1.0168440     0.8468500
  C        3.3454510     0.7479200    -0.6334830
  C       -1.3791480    -1.2185740    -0.6492330
  C       -3.8612840    -0.4227650     0.3079770
  C       -2.4390410    -2.1168890    -0.6711390
  C        5.1038640    -0.8322750     0.2664150
  C       -3.6857840    -1.7096250    -0.1856360
  H        0.5383950    -1.1258400     1.2710410
  H        1.7737210     2.0503190    -1.3473030
  H        2.8902070    -1.8603380     1.4919100
  H        4.1335430     1.2826870    -1.1615780
  H       -0.4095800    -1.5185310    -1.0371660
  H       -4.8387790    -0.1097830     0.6721110
  H       -2.3031150    -3.1155080    -1.0770870
  H        5.8059070     0.0022690     0.1830070
  H        5.2850310    -1.3360150     1.2200590
  H        5.3367840    -1.5427250    -0.5345020
  H       -4.5250650    -2.4017370    -0.1822600
  H       -2.3845940     2.4838010     0.4485930
  H       -3.9825350     2.0742830     0.8527820
units angstrom
no_reorient  #important for SAPT in psi4, default
symmetry c1  #important for SAPT in psi4, default
}

set PROPERTIES_ORIGIN ["COM"]
properties('MP2/aug-cc-pvtz', properties = ['dipole'])
--------------------------------------------------------------------------

    Molecular point group: c1
  Charge       = 0
  Multiplicity = 1
  Basis Set: AUG-CC-PVTZ
    Blend: AUG-CC-PVTZ
  Basis Set: (AUG-CC-PVTZ AUX)
    Blend: AUG-CC-PVTZ-JKFIT

    Orbital Energies [Eh]
    ---------------------

    Doubly Occupied:

       1A    -20.542888     2A    -15.554044     3A    -11.345024
       4A    -11.274932     5A    -11.259225     6A    -11.252724
       7A    -11.248843     8A    -11.247342     9A    -11.246941
      10A    -11.244890    11A    -11.240800    12A    -11.239545
      13A    -11.236331    14A    -11.234511    15A    -11.233302
      16A    -11.229259    17A     -1.371858    18A     -1.229639
      19A     -1.166694    20A     -1.140292    21A     -1.067801
      22A     -1.028914    23A     -1.021586    24A     -1.005289
      25A     -0.956891    26A     -0.862402    27A     -0.847826
      28A     -0.839718    29A     -0.811220    30A     -0.764191
      31A     -0.713901    32A     -0.685954    33A     -0.680562
      34A     -0.659617    35A     -0.646142    36A     -0.637394
      37A     -0.623931    38A     -0.602668    39A     -0.598265
      40A     -0.594342    41A     -0.585641    42A     -0.580955
      43A     -0.558019    44A     -0.547509    45A     -0.525105
      46A     -0.521748    47A     -0.516988    48A     -0.510372
      49A     -0.495012    50A     -0.483438    51A     -0.449781
      52A     -0.405231    53A     -0.347924    54A     -0.343490
      55A     -0.335698    56A     -0.307739

  @DF-RHF Final Energy:  -667.25245466719298

   => Energetics <=

    Nuclear Repulsion Energy =            992.8120190620142012
    One-Electron Energy =               -2876.7242496222784212
    Two-Electron Energy =                1216.6597758930711279
    Total Energy =                       -667.2524546671929784
  Basis Set: (AUG-CC-PVTZ AUX)
    Blend: AUG-CC-PVTZ-RI
    Molecular point group: c1

    Geometry (in Angstrom), charge = 0, multiplicity = 1:

       Center              X                  Y                   Z               Mass
    ------------   -----------------  -----------------  -----------------  -----------------
         O           -0.507389911433     2.233681143061    -0.297395379289    15.994914619570
         N           -2.970513911433     1.759339143061     0.827074620711    14.003074004430
         C            1.043241088567     0.468857143061    -0.085007379289    12.000000000000
         C           -1.631053211433     0.028584543061    -0.113773279289    12.000000000000
         C           -0.345380911433     1.006627143061    -0.182414379289    12.000000000000
         C            3.721756088567    -0.375516856939     0.170611620711    12.000000000000
         C           -2.770366911433     0.492986143061     0.298659620711    12.000000000000
         C            1.363658088567    -0.631541856939     0.723405620711    12.000000000000
         C            2.069791088567     1.156651143061    -0.747023379289    12.000000000000
         C            2.691346088567    -1.038858856939     0.849062620711    12.000000000000
         C            3.387873088567     0.725905143061    -0.631270379289    12.000000000000
         C           -1.336725911433    -1.240588856939    -0.647020379289    12.000000000000
         C           -3.818861911433    -0.444779856939     0.310189620711    12.000000000000
         C           -2.396618911433    -2.138903856939    -0.668926379289    12.000000000000
         C            5.146286088567    -0.854289856939     0.268627620711    12.000000000000
         C           -3.643361911433    -1.731639856939    -0.183423379289    12.000000000000
         H            0.580817088567    -1.147854856939     1.273253620711     1.007825032230
         H            1.816143088567     2.028304143061    -1.345090379289     1.007825032230
         H            2.932629088567    -1.882352856939     1.494122620711     1.007825032230
         H            4.175965088567     1.260672143061    -1.159365379289     1.007825032230
         H           -0.367157911433    -1.540545856939    -1.034953379289     1.007825032230
         H           -4.796356911433    -0.131797856939     0.674323620711     1.007825032230
         H           -2.260692911433    -3.137522856939    -1.074874379289     1.007825032230
         H            5.848329088567    -0.019745856939     0.185219620711     1.007825032230
         H            5.327453088567    -1.358029856939     1.222271620711     1.007825032230
         H            5.379206088567    -1.564739856939    -0.532289379289     1.007825032230
         H           -4.482642911433    -2.423751856939    -0.180047379289     1.007825032230
         H           -2.342171911433     2.461786143061     0.450805620711     1.007825032230
         H           -3.940112911433     2.052268143061     0.854994620711     1.007825032230

  Basis Set: AUG-CC-PVTZ
    Blend: AUG-CC-PVTZ
  Basis Set: (AUG-CC-PVTZ AUX)
    Blend: AUG-CC-PVTZ-JKFIT
	 Reference Energy          =    -667.2524546671929784 [Eh]
	 Singles Energy            =      -0.0000000000000000 [Eh]
	 Same-Spin Energy          =      -0.7352930323199889 [Eh]
	 Opposite-Spin Energy      =      -2.2660713173378411 [Eh]
	 Correlation Energy        =      -3.0013643496578299 [Eh]
	 Total Energy              =    -670.2538190168507981 [Eh]

	 ================> DF-SCS-MP2 Energies <==================
	-----------------------------------------------------------
	 SCS Same-Spin Scale       =       0.3333333333333333 [-]
	 SCS Opposite-Spin Scale   =       1.2000000000000000 [-]
	 SCS Same-Spin Energy      =      -0.2450976774399963 [Eh]
	 SCS Opposite-Spin Energy  =      -2.7192855808054093 [Eh]
	 SCS Correlation Energy    =      -2.9643832582454057 [Eh]
	 SCS Total Energy          =    -670.2168379254384263 [Eh]
	-----------------------------------------------------------

  Dipole Moment: [D]
     X:     0.8094      Y:    -1.7630      Z:    -0.1916     Total:     1.9494

*** Psi4 exiting successfully. Buy a developer a beer!
