                               Psi4 1.4a3.dev225

  ==> Input File <==

--------------------------------------------------------------------------
#psi4
#
memory 32 gb

molecule  {
0 1
  O       -0.5498120     2.2556960    -0.2996080
  N       -3.0129360     1.7813540     0.8248620
  C        1.0008190     0.4908720    -0.0872200
  C       -1.5329590     0.0859130    -0.1428360
  C       -0.3878030     1.0286420    -0.1846270
  C        3.6793340    -0.3535020     0.1683990
  C       -2.8127890     0.5150010     0.2964470
  C        1.2983903    -0.5310686     0.6635532
  C        2.0273690     1.1786660    -0.7492360
  C        2.6489240    -1.0168440     0.8468500
  C        3.3454510     0.7479200    -0.6334830
  C       -1.3791480    -1.2185740    -0.6492330
  C       -3.8612840    -0.4227650     0.3079770
  C       -2.4390410    -2.1168890    -0.6711390
  C        5.1038640    -0.8322750     0.2664150
  C       -3.6857840    -1.7096250    -0.1856360
  H        0.5383950    -1.1258400     1.2710410
  H        1.7737210     2.0503190    -1.3473030
  H        2.8902070    -1.8603380     1.4919100
  H        4.1335430     1.2826870    -1.1615780
  H       -0.4095800    -1.5185310    -1.0371660
  H       -4.8387790    -0.1097830     0.6721110
  H       -2.3031150    -3.1155080    -1.0770870
  H        5.8059070     0.0022690     0.1830070
  H        5.2850310    -1.3360150     1.2200590
  H        5.3367840    -1.5427250    -0.5345020
  H       -4.5250650    -2.4017370    -0.1822600
  H       -2.3845940     2.4838010     0.4485930
  H       -3.9825350     2.0742830     0.8527820
units angstrom
no_reorient  #important for SAPT in psi4, default
symmetry c1  #important for SAPT in psi4, default
}

set PROPERTIES_ORIGIN ["COM"]
properties('MP2/aug-cc-pvtz', properties = ['dipole'])
--------------------------------------------------------------------------

    Molecular point group: c1
  Charge       = 0
  Multiplicity = 1
  Basis Set: AUG-CC-PVTZ
    Blend: AUG-CC-PVTZ
  Basis Set: (AUG-CC-PVTZ AUX)
    Blend: AUG-CC-PVTZ-JKFIT

    Orbital Energies [Eh]
    ---------------------

    Doubly Occupied:

       1A    -20.540014     2A    -15.560441     3A    -11.339628
       4A    -11.297251     5A    -11.255382     6A    -11.252967
       7A    -11.252605     8A    -11.248293     9A    -11.245424
      10A    -11.242237    11A    -11.239437    12A    -11.237276
      13A    -11.233959    14A    -11.232128    15A    -11.232116
      16A    -11.228418    17A     -1.372867    18A     -1.226948
      19A     -1.171852    20A     -1.137308    21A     -1.077726
      22A     -1.035596    23A     -1.013450    24A     -0.996748
      25A     -0.954669    26A     -0.877695    27A     -0.842466
      28A     -0.835652    29A     -0.812186    30A     -0.767451
      31A     -0.713597    32A     -0.692027    33A     -0.686700
      34A     -0.662268    35A     -0.646165    36A     -0.630565
      37A     -0.616142    38A     -0.606018    39A     -0.602700
      40A     -0.586064    41A     -0.584036    42A     -0.581940
      43A     -0.556619    44A     -0.545604    45A     -0.532857
      46A     -0.519818    47A     -0.510973    48A     -0.505633
      49A     -0.490874    50A     -0.483835    51A     -0.452126
      52A     -0.418681    53A     -0.351126    54A     -0.347169
      55A     -0.332385    56A     -0.300784

  @DF-RHF Final Energy:  -667.26400726485588

   => Energetics <=

    Nuclear Repulsion Energy =            994.4245475801666316
    One-Electron Energy =               -2879.9433199381946906
    Two-Electron Energy =                1218.2547650931719545
    Total Energy =                       -667.2640072648559908
  Basis Set: (AUG-CC-PVTZ AUX)
    Blend: AUG-CC-PVTZ-RI
    Molecular point group: c1

    Geometry (in Angstrom), charge = 0, multiplicity = 1:

       Center              X                  Y                   Z               Mass
    ------------   -----------------  -----------------  -----------------  -----------------
         O           -0.514078917178     2.227213753912    -0.292592536213    15.994914619570
         N           -2.977202917178     1.752871753912     0.831877463787    14.003074004430
         C            1.036552082822     0.462389753912    -0.080204536213    12.000000000000
         C           -1.497225917178     0.057430753912    -0.135820536213    12.000000000000
         C           -0.352069917178     1.000159753912    -0.177611536213    12.000000000000
         C            3.715067082822    -0.381984246088     0.175414463787    12.000000000000
         C           -2.777055917178     0.486518753912     0.303462463787    12.000000000000
         C            1.334123382822    -0.559550846088     0.670568663787    12.000000000000
         C            2.063102082822     1.150183753912    -0.742220536213    12.000000000000
         C            2.684657082822    -1.045326246088     0.853865463787    12.000000000000
         C            3.381184082822     0.719437753912    -0.626467536213    12.000000000000
         C           -1.343414917178    -1.247056246088    -0.642217536213    12.000000000000
         C           -3.825550917178    -0.451247246088     0.314992463787    12.000000000000
         C           -2.403307917178    -2.145371246088    -0.664123536213    12.000000000000
         C            5.139597082822    -0.860757246088     0.273430463787    12.000000000000
         C           -3.650050917178    -1.738107246088    -0.178620536213    12.000000000000
         H            0.574128082822    -1.154322246088     1.278056463787     1.007825032230
         H            1.809454082822     2.021836753912    -1.340287536213     1.007825032230
         H            2.925940082822    -1.888820246088     1.498925463787     1.007825032230
         H            4.169276082822     1.254204753912    -1.154562536213     1.007825032230
         H           -0.373846917178    -1.547013246088    -1.030150536213     1.007825032230
         H           -4.803045917178    -0.138265246088     0.679126463787     1.007825032230
         H           -2.267381917178    -3.143990246088    -1.070071536213     1.007825032230
         H            5.841640082822    -0.026213246088     0.190022463787     1.007825032230
         H            5.320764082822    -1.364497246088     1.227074463787     1.007825032230
         H            5.372517082822    -1.571207246088    -0.527486536213     1.007825032230
         H           -4.489331917178    -2.430219246088    -0.175244536213     1.007825032230
         H           -2.348860917178     2.455318753912     0.455608463787     1.007825032230
         H           -3.946801917178     2.045800753912     0.859797463787     1.007825032230

  Basis Set: AUG-CC-PVTZ
    Blend: AUG-CC-PVTZ
  Basis Set: (AUG-CC-PVTZ AUX)
    Blend: AUG-CC-PVTZ-JKFIT
	 Reference Energy          =    -667.2640072648558771 [Eh]
	 Singles Energy            =      -0.0000000000000000 [Eh]
	 Same-Spin Energy          =      -0.7351914810647605 [Eh]
	 Opposite-Spin Energy      =      -2.2656859726402292 [Eh]
	 Correlation Energy        =      -3.0008774537049896 [Eh]
	 Total Energy              =    -670.2648847185608929 [Eh]

	 ================> DF-SCS-MP2 Energies <==================
	-----------------------------------------------------------
	 SCS Same-Spin Scale       =       0.3333333333333333 [-]
	 SCS Opposite-Spin Scale   =       1.2000000000000000 [-]
	 SCS Same-Spin Energy      =      -0.2450638270215868 [Eh]
	 SCS Opposite-Spin Energy  =      -2.7188231671682748 [Eh]
	 SCS Correlation Energy    =      -2.9638869941898616 [Eh]
	 SCS Total Energy          =    -670.2278942590456836 [Eh]
	-----------------------------------------------------------

  Dipole Moment: [D]
     X:     0.2946      Y:    -1.8150      Z:    -0.0986     Total:     1.8414

*** Psi4 exiting successfully. Buy a developer a beer!
