                               Psi4 1.4a3.dev225

  ==> Input File <==

--------------------------------------------------------------------------
#psi4
#
memory 32 gb

molecule  {
0 1
  O       -0.5498120     2.2556960    -0.2996080
  N       -3.0129360     1.7813540     0.8248620
  C        1.0008190     0.4908720    -0.0872200
  C       -1.5329590     0.0859130    -0.1428360
  C       -0.3878030     1.0286420    -0.1846270
  C        3.6793340    -0.3535020     0.1683990
  C       -2.8127890     0.5150010     0.2964470
  C        1.3212360    -0.6095270     0.7211930
  C        2.0273690     1.1786660    -0.7492360
  C        2.6489240    -1.0168440     0.8468500
  C        3.3454510     0.7479200    -0.6334830
  C       -1.3791480    -1.2185740    -0.6492330
  C       -3.8612840    -0.4227650     0.3079770
  C       -2.4009027    -2.0845648    -0.6703508
  C        5.1038640    -0.8322750     0.2664150
  C       -3.6857840    -1.7096250    -0.1856360
  H        0.5383950    -1.1258400     1.2710410
  H        1.7737210     2.0503190    -1.3473030
  H        2.8902070    -1.8603380     1.4919100
  H        4.1335430     1.2826870    -1.1615780
  H       -0.4095800    -1.5185310    -1.0371660
  H       -4.8387790    -0.1097830     0.6721110
  H       -2.3031150    -3.1155080    -1.0770870
  H        5.8059070     0.0022690     0.1830070
  H        5.2850310    -1.3360150     1.2200590
  H        5.3367840    -1.5427250    -0.5345020
  H       -4.5250650    -2.4017370    -0.1822600
  H       -2.3845940     2.4838010     0.4485930
  H       -3.9825350     2.0742830     0.8527820
units angstrom
no_reorient  #important for SAPT in psi4, default
symmetry c1  #important for SAPT in psi4, default
}

set PROPERTIES_ORIGIN ["COM"]
properties('MP2/aug-cc-pvtz', properties = ['dipole'])
--------------------------------------------------------------------------

    Molecular point group: c1
  Charge       = 0
  Multiplicity = 1
  Basis Set: AUG-CC-PVTZ
    Blend: AUG-CC-PVTZ
  Basis Set: (AUG-CC-PVTZ AUX)
    Blend: AUG-CC-PVTZ-JKFIT

    Orbital Energies [Eh]
    ---------------------

    Doubly Occupied:

       1A    -20.536568     2A    -15.560651     3A    -11.337097
       4A    -11.297553     5A    -11.256740     6A    -11.256427
       7A    -11.249977     8A    -11.245654     9A    -11.244398
      10A    -11.242811    11A    -11.238582    12A    -11.237247
      13A    -11.236661    14A    -11.234303    15A    -11.232810
      16A    -11.227569    17A     -1.369772    18A     -1.227253
      19A     -1.164664    20A     -1.140255    21A     -1.068620
      22A     -1.034034    23A     -1.020139    24A     -1.000185
      25A     -0.953901    26A     -0.878313    27A     -0.837864
      28A     -0.835275    29A     -0.811753    30A     -0.765182
      31A     -0.712718    32A     -0.691717    33A     -0.687268
      34A     -0.660454    35A     -0.643870    36A     -0.635172
      37A     -0.612480    38A     -0.607596    39A     -0.598930
      40A     -0.592115    41A     -0.584316    42A     -0.583360
      43A     -0.555809    44A     -0.546143    45A     -0.534288
      46A     -0.518354    47A     -0.511468    48A     -0.498764
      49A     -0.492936    50A     -0.480369    51A     -0.454794
      52A     -0.418173    53A     -0.350190    54A     -0.342674
      55A     -0.333372    56A     -0.301962

  @DF-RHF Final Energy:  -667.27356177807337

   => Energetics <=

    Nuclear Repulsion Energy =            993.6819060402085597
    One-Electron Energy =               -2878.5278342636102025
    Two-Electron Energy =                1217.5723664453282709
    Total Energy =                       -667.2735617780733719
  Basis Set: (AUG-CC-PVTZ AUX)
    Blend: AUG-CC-PVTZ-RI
    Molecular point group: c1

    Geometry (in Angstrom), charge = 0, multiplicity = 1:

       Center              X                  Y                   Z               Mass
    ------------   -----------------  -----------------  -----------------  -----------------
         O           -0.517545563277     2.229836260543    -0.295913886046    15.994914619570
         N           -2.980669563277     1.755494260543     0.828556113954    14.003074004430
         C            1.033085436723     0.465012260543    -0.083525886046    12.000000000000
         C           -1.500692563277     0.060053260543    -0.139141886046    12.000000000000
         C           -0.355536563277     1.002782260543    -0.180932886046    12.000000000000
         C            3.711600436723    -0.379361739457     0.172093113954    12.000000000000
         C           -2.780522563277     0.489141260543     0.300141113954    12.000000000000
         C            1.353502436723    -0.635386739457     0.724887113954    12.000000000000
         C            2.059635436723     1.152806260543    -0.745541886046    12.000000000000
         C            2.681190436723    -1.042703739457     0.850544113954    12.000000000000
         C            3.377717436723     0.722060260543    -0.629788886046    12.000000000000
         C           -1.346881563277    -1.244433739457    -0.645538886046    12.000000000000
         C           -3.829017563277    -0.448624739457     0.311671113954    12.000000000000
         C           -2.368636263277    -2.110424539457    -0.666656686046    12.000000000000
         C            5.136130436723    -0.858134739457     0.270109113954    12.000000000000
         C           -3.653517563277    -1.735484739457    -0.181941886046    12.000000000000
         H            0.570661436723    -1.151699739457     1.274735113954     1.007825032230
         H            1.805987436723     2.024459260543    -1.343608886046     1.007825032230
         H            2.922473436723    -1.886197739457     1.495604113954     1.007825032230
         H            4.165809436723     1.256827260543    -1.157883886046     1.007825032230
         H           -0.377313563277    -1.544390739457    -1.033471886046     1.007825032230
         H           -4.806512563277    -0.135642739457     0.675805113954     1.007825032230
         H           -2.270848563277    -3.141367739457    -1.073392886046     1.007825032230
         H            5.838173436723    -0.023590739457     0.186701113954     1.007825032230
         H            5.317297436723    -1.361874739457     1.223753113954     1.007825032230
         H            5.369050436723    -1.568584739457    -0.530807886046     1.007825032230
         H           -4.492798563277    -2.427596739457    -0.178565886046     1.007825032230
         H           -2.352327563277     2.457941260543     0.452287113954     1.007825032230
         H           -3.950268563277     2.048423260543     0.856476113954     1.007825032230

  Basis Set: AUG-CC-PVTZ
    Blend: AUG-CC-PVTZ
  Basis Set: (AUG-CC-PVTZ AUX)
    Blend: AUG-CC-PVTZ-JKFIT
	 Reference Energy          =    -667.2735617780733719 [Eh]
	 Singles Energy            =      -0.0000000000000000 [Eh]
	 Same-Spin Energy          =      -0.7354649363547406 [Eh]
	 Opposite-Spin Energy      =      -2.2655178704488308 [Eh]
	 Correlation Energy        =      -3.0009828068035715 [Eh]
	 Total Energy              =    -670.2745445848769350 [Eh]

	 ================> DF-SCS-MP2 Energies <==================
	-----------------------------------------------------------
	 SCS Same-Spin Scale       =       0.3333333333333333 [-]
	 SCS Opposite-Spin Scale   =       1.2000000000000000 [-]
	 SCS Same-Spin Energy      =      -0.2451549787849135 [Eh]
	 SCS Opposite-Spin Energy  =      -2.7186214445385968 [Eh]
	 SCS Correlation Energy    =      -2.9637764233235102 [Eh]
	 SCS Total Energy          =    -670.2373382013969376 [Eh]
	-----------------------------------------------------------

  Dipole Moment: [D]
     X:     0.2662      Y:    -1.8243      Z:    -0.0905     Total:     1.8459

*** Psi4 exiting successfully. Buy a developer a beer!
