                               Psi4 1.4a3.dev225

  ==> Input File <==

--------------------------------------------------------------------------
#psi4
#
memory 32 gb

molecule  {
0 1
  O       -0.5498120     2.2556960    -0.2996080
  N       -3.0129360     1.7813540     0.8248620
  C        1.0008190     0.4908720    -0.0872200
  C       -1.5329590     0.0859130    -0.1428360
  C       -0.3878030     1.0286420    -0.1846270
  C        3.6793340    -0.3535020     0.1683990
  C       -2.8127890     0.5150010     0.2964470
  C        1.3212360    -0.6095270     0.7211930
  C        2.0273690     1.1786660    -0.7492360
  C        2.6489240    -1.0168440     0.8468500
  C        3.3454510     0.7479200    -0.6334830
  C       -1.3791480    -1.2185740    -0.6492330
  C       -3.8612840    -0.4227650     0.3079770
  C       -2.4390410    -2.1168890    -0.6711390
  C        5.1038640    -0.8322750     0.2664150
  C       -3.6857840    -1.7096250    -0.1856360
  H        0.5383950    -1.1258400     1.2710410
  H        1.7737210     2.0503190    -1.3473030
  H        2.8902070    -1.8603380     1.4919100
  H        4.1335430     1.2826870    -1.1615780
  H       -0.4095800    -1.5185310    -1.0371660
  H       -4.8387790    -0.1097830     0.6721110
  H       -2.3031150    -3.1155080    -1.0770870
  H        5.6775332    -0.1503336     0.1982588
  H        5.2850310    -1.3360150     1.2200590
  H        5.3367840    -1.5427250    -0.5345020
  H       -4.5250650    -2.4017370    -0.1822600
  H       -2.3845940     2.4838010     0.4485930
  H       -3.9825350     2.0742830     0.8527820
units angstrom
no_reorient  #important for SAPT in psi4, default
symmetry c1  #important for SAPT in psi4, default
}

set PROPERTIES_ORIGIN ["COM"]
properties('MP2/aug-cc-pvtz', properties = ['dipole'])
--------------------------------------------------------------------------

    Molecular point group: c1
  Charge       = 0
  Multiplicity = 1
  Basis Set: AUG-CC-PVTZ
    Blend: AUG-CC-PVTZ
  Basis Set: (AUG-CC-PVTZ AUX)
    Blend: AUG-CC-PVTZ-JKFIT

    Orbital Energies [Eh]
    ---------------------

    Doubly Occupied:

       1A    -20.537753     2A    -15.559855     3A    -11.338222
       4A    -11.296707     5A    -11.256109     6A    -11.252545
       7A    -11.252048     8A    -11.250028     9A    -11.246174
      10A    -11.243136    11A    -11.238901    12A    -11.238047
      13A    -11.237711    14A    -11.231785    15A    -11.228111
      16A    -11.208782    17A     -1.370823    18A     -1.226383
      19A     -1.165275    20A     -1.136970    21A     -1.073852
      22A     -1.036580    23A     -1.020458    24A     -0.996603
      25A     -0.969921    26A     -0.879647    27A     -0.839782
      28A     -0.838203    29A     -0.813902    30A     -0.766163
      31A     -0.712580    32A     -0.692597    33A     -0.686115
      34A     -0.667207    35A     -0.645050    36A     -0.638826
      37A     -0.615765    38A     -0.603569    39A     -0.602303
      40A     -0.597116    41A     -0.592174    42A     -0.584231
      43A     -0.561620    44A     -0.550570    45A     -0.532675
      46A     -0.518973    47A     -0.512774    48A     -0.504294
      49A     -0.493520    50A     -0.482228    51A     -0.452123
      52A     -0.418657    53A     -0.349526    54A     -0.342785
      55A     -0.333774    56A     -0.300178

  @DF-RHF Final Energy:  -667.24272532192458

   => Energetics <=

    Nuclear Repulsion Energy =            993.8995013620896088
    One-Electron Energy =               -2878.8010397996404208
    Two-Electron Energy =                1217.6588131156261170
    Total Energy =                       -667.2427253219245813
  Basis Set: (AUG-CC-PVTZ AUX)
    Blend: AUG-CC-PVTZ-RI
    Molecular point group: c1

    Geometry (in Angstrom), charge = 0, multiplicity = 1:

       Center              X                  Y                   Z               Mass
    ------------   -----------------  -----------------  -----------------  -----------------
         O           -0.514764707169     2.232402285432    -0.295941895301    15.994914619570
         N           -2.977888707169     1.758060285432     0.828528104699    14.003074004430
         C            1.035866292831     0.467578285432    -0.083553895301    12.000000000000
         C           -1.497911707169     0.062619285432    -0.139169895301    12.000000000000
         C           -0.352755707169     1.005348285432    -0.180960895301    12.000000000000
         C            3.714381292831    -0.376795714568     0.172065104699    12.000000000000
         C           -2.777741707169     0.491707285432     0.300113104699    12.000000000000
         C            1.356283292831    -0.632820714568     0.724859104699    12.000000000000
         C            2.062416292831     1.155372285432    -0.745569895301    12.000000000000
         C            2.683971292831    -1.040137714568     0.850516104699    12.000000000000
         C            3.380498292831     0.724626285432    -0.629816895301    12.000000000000
         C           -1.344100707169    -1.241867714568    -0.645566895301    12.000000000000
         C           -3.826236707169    -0.446058714568     0.311643104699    12.000000000000
         C           -2.403993707169    -2.140182714568    -0.667472895301    12.000000000000
         C            5.138911292831    -0.855568714568     0.270081104699    12.000000000000
         C           -3.650736707169    -1.732918714568    -0.181969895301    12.000000000000
         H            0.573442292831    -1.149133714568     1.274707104699     1.007825032230
         H            1.808768292831     2.027025285432    -1.343636895301     1.007825032230
         H            2.925254292831    -1.883631714568     1.495576104699     1.007825032230
         H            4.168590292831     1.259393285432    -1.157911895301     1.007825032230
         H           -0.374532707169    -1.541824714568    -1.033499895301     1.007825032230
         H           -4.803731707169    -0.133076714568     0.675777104699     1.007825032230
         H           -2.268067707169    -3.138801714568    -1.073420895301     1.007825032230
         H            5.712580492831    -0.173627314568     0.201924904699     1.007825032230
         H            5.320078292831    -1.359308714568     1.223725104699     1.007825032230
         H            5.371831292831    -1.566018714568    -0.530835895301     1.007825032230
         H           -4.490017707169    -2.425030714568    -0.178593895301     1.007825032230
         H           -2.349546707169     2.460507285432     0.452259104699     1.007825032230
         H           -3.947487707169     2.050989285432     0.856448104699     1.007825032230

  Basis Set: AUG-CC-PVTZ
    Blend: AUG-CC-PVTZ
  Basis Set: (AUG-CC-PVTZ AUX)
    Blend: AUG-CC-PVTZ-JKFIT
	 Reference Energy          =    -667.2427253219245813 [Eh]
	 Singles Energy            =      -0.0000000000000000 [Eh]
	 Same-Spin Energy          =      -0.7355811644237006 [Eh]
	 Opposite-Spin Energy      =      -2.2648340996890854 [Eh]
	 Correlation Energy        =      -3.0004152641127861 [Eh]
	 Total Energy              =    -670.2431405860373843 [Eh]

	 ================> DF-SCS-MP2 Energies <==================
	-----------------------------------------------------------
	 SCS Same-Spin Scale       =       0.3333333333333333 [-]
	 SCS Opposite-Spin Scale   =       1.2000000000000000 [-]
	 SCS Same-Spin Energy      =      -0.2451937214745669 [Eh]
	 SCS Opposite-Spin Energy  =      -2.7178009196269026 [Eh]
	 SCS Correlation Energy    =      -2.9629946411014694 [Eh]
	 SCS Total Energy          =    -670.2057199630260129 [Eh]
	-----------------------------------------------------------

  Dipole Moment: [D]
     X:     0.4313      Y:    -1.7890      Z:    -0.1091     Total:     1.8435

*** Psi4 exiting successfully. Buy a developer a beer!
