                               Psi4 1.4a3.dev225

  ==> Input File <==

--------------------------------------------------------------------------
#psi4
#
memory 32 gb

molecule  {
0 1
  O       -0.5498120     2.2556960    -0.2996080
  N       -3.0129360     1.7813540     0.8248620
  C        1.0008190     0.4908720    -0.0872200
  C       -1.5329590     0.0859130    -0.1428360
  C       -0.3878030     1.0286420    -0.1846270
  C        3.6793340    -0.3535020     0.1683990
  C       -2.8127890     0.5150010     0.2964470
  C        1.3212360    -0.6095270     0.7211930
  C        2.0273690     1.1786660    -0.7492360
  C        2.6489240    -1.0168440     0.8468500
  C        3.3454510     0.7479200    -0.6334830
  C       -1.3791480    -1.2185740    -0.6492330
  C       -3.8612840    -0.4227650     0.3079770
  C       -2.4390410    -2.1168890    -0.6711390
  C        5.1038640    -0.8322750     0.2664150
  C       -3.6392116    -1.6991001    -0.1941338
  H        0.5383950    -1.1258400     1.2710410
  H        1.7737210     2.0503190    -1.3473030
  H        2.8902070    -1.8603380     1.4919100
  H        4.1335430     1.2826870    -1.1615780
  H       -0.4095800    -1.5185310    -1.0371660
  H       -4.8387790    -0.1097830     0.6721110
  H       -2.3031150    -3.1155080    -1.0770870
  H        5.8059070     0.0022690     0.1830070
  H        5.2850310    -1.3360150     1.2200590
  H        5.3367840    -1.5427250    -0.5345020
  H       -4.5250650    -2.4017370    -0.1822600
  H       -2.3845940     2.4838010     0.4485930
  H       -3.9825350     2.0742830     0.8527820
units angstrom
no_reorient  #important for SAPT in psi4, default
symmetry c1  #important for SAPT in psi4, default
}

set PROPERTIES_ORIGIN ["COM"]
properties('MP2/aug-cc-pvtz', properties = ['dipole'])
--------------------------------------------------------------------------

    Molecular point group: c1
  Charge       = 0
  Multiplicity = 1
  Basis Set: AUG-CC-PVTZ
    Blend: AUG-CC-PVTZ
  Basis Set: (AUG-CC-PVTZ AUX)
    Blend: AUG-CC-PVTZ-JKFIT

    Orbital Energies [Eh]
    ---------------------

    Doubly Occupied:

       1A    -20.538265     2A    -15.559268     3A    -11.338850
       4A    -11.295747     5A    -11.257552     6A    -11.253542
       7A    -11.250910     8A    -11.250829     9A    -11.246546
      10A    -11.243803    11A    -11.239589    12A    -11.239323
      13A    -11.238025    14A    -11.233401    15A    -11.230306
      16A    -11.224211    17A     -1.371333    18A     -1.226437
      19A     -1.165498    20A     -1.141679    21A     -1.070169
      22A     -1.034571    23A     -1.020762    24A     -0.999699
      25A     -0.954672    26A     -0.875497    27A     -0.840067
      28A     -0.837478    29A     -0.812205    30A     -0.766402
      31A     -0.713835    32A     -0.690090    33A     -0.683510
      34A     -0.661097    35A     -0.645896    36A     -0.637132
      37A     -0.614376    38A     -0.603358    39A     -0.600263
      40A     -0.593147    41A     -0.586240    42A     -0.584209
      43A     -0.556299    44A     -0.544150    45A     -0.526851
      46A     -0.518584    47A     -0.510780    48A     -0.507197
      49A     -0.493708    50A     -0.482576    51A     -0.455245
      52A     -0.418855    53A     -0.349555    54A     -0.343230
      55A     -0.334177    56A     -0.302435

  @DF-RHF Final Energy:  -667.27390365502015

   => Energetics <=

    Nuclear Repulsion Energy =            993.8317247200844804
    One-Electron Energy =               -2878.7843912615908266
    Two-Electron Energy =                1217.6787628864863109
    Total Energy =                       -667.2739036550201490
  Basis Set: (AUG-CC-PVTZ AUX)
    Blend: AUG-CC-PVTZ-RI
    Molecular point group: c1

    Geometry (in Angstrom), charge = 0, multiplicity = 1:

       Center              X                  Y                   Z               Mass
    ------------   -----------------  -----------------  -----------------  -----------------
         O           -0.518025001160     2.231075445547    -0.295386021759    15.994914619570
         N           -2.981149001160     1.756733445547     0.829083978241    14.003074004430
         C            1.032605998840     0.466251445547    -0.082998021759    12.000000000000
         C           -1.501172001160     0.061292445547    -0.138614021759    12.000000000000
         C           -0.356016001160     1.004021445547    -0.180405021759    12.000000000000
         C            3.711120998840    -0.378122554453     0.172620978241    12.000000000000
         C           -2.781002001160     0.490380445547     0.300668978241    12.000000000000
         C            1.353022998840    -0.634147554453     0.725414978241    12.000000000000
         C            2.059155998840     1.154045445547    -0.745014021759    12.000000000000
         C            2.680710998840    -1.041464554453     0.851071978241    12.000000000000
         C            3.377237998840     0.723299445547    -0.629261021759    12.000000000000
         C           -1.347361001160    -1.243194554453    -0.645011021759    12.000000000000
         C           -3.829497001160    -0.447385554453     0.312198978241    12.000000000000
         C           -2.407254001160    -2.141509554453    -0.666917021759    12.000000000000
         C            5.135650998840    -0.856895554453     0.270636978241    12.000000000000
         C           -3.607424601160    -1.723720654453    -0.189911821759    12.000000000000
         H            0.570181998840    -1.150460554453     1.275262978241     1.007825032230
         H            1.805507998840     2.025698445547    -1.343081021759     1.007825032230
         H            2.921993998840    -1.884958554453     1.496131978241     1.007825032230
         H            4.165329998840     1.258066445547    -1.157356021759     1.007825032230
         H           -0.377793001160    -1.543151554453    -1.032944021759     1.007825032230
         H           -4.806992001160    -0.134403554453     0.676332978241     1.007825032230
         H           -2.271328001160    -3.140128554453    -1.072865021759     1.007825032230
         H            5.837693998840    -0.022351554453     0.187228978241     1.007825032230
         H            5.316817998840    -1.360635554453     1.224280978241     1.007825032230
         H            5.368570998840    -1.567345554453    -0.530280021759     1.007825032230
         H           -4.493278001160    -2.426357554453    -0.178038021759     1.007825032230
         H           -2.352807001160     2.459180445547     0.452814978241     1.007825032230
         H           -3.950748001160     2.049662445547     0.857003978241     1.007825032230

  Basis Set: AUG-CC-PVTZ
    Blend: AUG-CC-PVTZ
  Basis Set: (AUG-CC-PVTZ AUX)
    Blend: AUG-CC-PVTZ-JKFIT
	 Reference Energy          =    -667.2739036550201490 [Eh]
	 Singles Energy            =      -0.0000000000000000 [Eh]
	 Same-Spin Energy          =      -0.7355604842047636 [Eh]
	 Opposite-Spin Energy      =      -2.2653518357218476 [Eh]
	 Correlation Energy        =      -3.0009123199266110 [Eh]
	 Total Energy              =    -670.2748159749467050 [Eh]

	 ================> DF-SCS-MP2 Energies <==================
	-----------------------------------------------------------
	 SCS Same-Spin Scale       =       0.3333333333333333 [-]
	 SCS Opposite-Spin Scale   =       1.2000000000000000 [-]
	 SCS Same-Spin Energy      =      -0.2451868280682545 [Eh]
	 SCS Opposite-Spin Energy  =      -2.7184222028662171 [Eh]
	 SCS Correlation Energy    =      -2.9636090309344714 [Eh]
	 SCS Total Energy          =    -670.2375126859545844 [Eh]
	-----------------------------------------------------------

  Dipole Moment: [D]
     X:     0.3951      Y:    -1.8035      Z:    -0.1152     Total:     1.8499

*** Psi4 exiting successfully. Buy a developer a beer!
