                               Psi4 1.4a3.dev225

  ==> Input File <==

--------------------------------------------------------------------------
#psi4
#
memory 32 gb

molecule  {
0 1
  O       -0.5498120     2.2556960    -0.2996080
  N       -3.0129360     1.7813540     0.8248620
  C        1.0008190     0.4908720    -0.0872200
  C       -1.5329590     0.0859130    -0.1428360
  C       -0.3878030     1.0286420    -0.1846270
  C        3.6793340    -0.3535020     0.1683990
  C       -2.8127890     0.5150010     0.2964470
  C        1.3212360    -0.6095270     0.7211930
  C        2.0273690     1.1786660    -0.7492360
  C        2.6489240    -1.0168440     0.8468500
  C        3.3454510     0.7479200    -0.6334830
  C       -1.3791480    -1.2185740    -0.6492330
  C       -3.8612840    -0.4227650     0.3079770
  C       -2.4390410    -2.1168890    -0.6711390
  C        5.1038640    -0.8322750     0.2664150
  C       -3.6857840    -1.7096250    -0.1856360
  H        0.4663821    -1.1733352     1.3216211
  H        1.7737210     2.0503190    -1.3473030
  H        2.8902070    -1.8603380     1.4919100
  H        4.1335430     1.2826870    -1.1615780
  H       -0.4095800    -1.5185310    -1.0371660
  H       -4.8387790    -0.1097830     0.6721110
  H       -2.3031150    -3.1155080    -1.0770870
  H        5.8059070     0.0022690     0.1830070
  H        5.2850310    -1.3360150     1.2200590
  H        5.3367840    -1.5427250    -0.5345020
  H       -4.5250650    -2.4017370    -0.1822600
  H       -2.3845940     2.4838010     0.4485930
  H       -3.9825350     2.0742830     0.8527820
units angstrom
no_reorient  #important for SAPT in psi4, default
symmetry c1  #important for SAPT in psi4, default
}

set PROPERTIES_ORIGIN ["COM"]
properties('MP2/aug-cc-pvtz', properties = ['dipole'])
--------------------------------------------------------------------------

    Molecular point group: c1
  Charge       = 0
  Multiplicity = 1
  Basis Set: AUG-CC-PVTZ
    Blend: AUG-CC-PVTZ
  Basis Set: (AUG-CC-PVTZ AUX)
    Blend: AUG-CC-PVTZ-JKFIT

    Orbital Energies [Eh]
    ---------------------

    Doubly Occupied:

       1A    -20.538103     2A    -15.559899     3A    -11.338593
       4A    -11.296722     5A    -11.261187     6A    -11.257939
       7A    -11.252558     8A    -11.251971     9A    -11.247036
      10A    -11.244527    11A    -11.239902    12A    -11.238835
      13A    -11.238130    14A    -11.233589    15A    -11.231754
      16A    -11.228056    17A     -1.371151    18A     -1.226414
      19A     -1.165197    20A     -1.136938    21A     -1.069350
      22A     -1.034589    23A     -1.018598    24A     -0.996353
      25A     -0.954959    26A     -0.876817    27A     -0.837726
      28A     -0.832248    29A     -0.812953    30A     -0.765127
      31A     -0.711965    32A     -0.690595    33A     -0.685988
      34A     -0.660316    35A     -0.643762    36A     -0.630281
      37A     -0.614183    38A     -0.603386    39A     -0.599757
      40A     -0.587417    41A     -0.584528    42A     -0.583964
      43A     -0.554699    44A     -0.544773    45A     -0.531845
      46A     -0.517773    47A     -0.512829    48A     -0.504743
      49A     -0.490027    50A     -0.482210    51A     -0.451816
      52A     -0.418983    53A     -0.349368    54A     -0.343330
      55A     -0.334488    56A     -0.300232

  @DF-RHF Final Energy:  -667.26891131726552

   => Energetics <=

    Nuclear Repulsion Energy =            992.4497759693776970
    One-Electron Energy =               -2876.0564170235243182
    Two-Electron Energy =                1216.3377297368811014
    Total Energy =                       -667.2689113172655198
  Basis Set: (AUG-CC-PVTZ AUX)
    Blend: AUG-CC-PVTZ-RI
    Molecular point group: c1

    Geometry (in Angstrom), charge = 0, multiplicity = 1:

       Center              X                  Y                   Z               Mass
    ------------   -----------------  -----------------  -----------------  -----------------
         O           -0.515033783449     2.231900485279    -0.296110558463    15.994914619570
         N           -2.978157783449     1.757558485279     0.828359441537    14.003074004430
         C            1.035597216551     0.467076485279    -0.083722558463    12.000000000000
         C           -1.498180783449     0.062117485279    -0.139338558463    12.000000000000
         C           -0.353024783449     1.004846485279    -0.181129558463    12.000000000000
         C            3.714112216551    -0.377297514721     0.171896441537    12.000000000000
         C           -2.778010783449     0.491205485279     0.299944441537    12.000000000000
         C            1.356014216551    -0.633322514721     0.724690441537    12.000000000000
         C            2.062147216551     1.154870485279    -0.745738558463    12.000000000000
         C            2.683702216551    -1.040639514721     0.850347441537    12.000000000000
         C            3.380229216551     0.724124485279    -0.629985558463    12.000000000000
         C           -1.344369783449    -1.242369514721    -0.645735558463    12.000000000000
         C           -3.826505783449    -0.446560514721     0.311474441537    12.000000000000
         C           -2.404262783449    -2.140684514721    -0.667641558463    12.000000000000
         C            5.138642216551    -0.856070514721     0.269912441537    12.000000000000
         C           -3.651005783449    -1.733420514721    -0.182138558463    12.000000000000
         H            0.501160316551    -1.197130714721     1.325118541537     1.007825032230
         H            1.808499216551     2.026523485279    -1.343805558463     1.007825032230
         H            2.924985216551    -1.884133514721     1.495407441537     1.007825032230
         H            4.168321216551     1.258891485279    -1.158080558463     1.007825032230
         H           -0.374801783449    -1.542326514721    -1.033668558463     1.007825032230
         H           -4.804000783449    -0.133578514721     0.675608441537     1.007825032230
         H           -2.268336783449    -3.139303514721    -1.073589558463     1.007825032230
         H            5.840685216551    -0.021526514721     0.186504441537     1.007825032230
         H            5.319809216551    -1.359810514721     1.223556441537     1.007825032230
         H            5.371562216551    -1.566520514721    -0.531004558463     1.007825032230
         H           -4.490286783449    -2.425532514721    -0.178762558463     1.007825032230
         H           -2.349815783449     2.460005485279     0.452090441537     1.007825032230
         H           -3.947756783449     2.050487485279     0.856279441537     1.007825032230

  Basis Set: AUG-CC-PVTZ
    Blend: AUG-CC-PVTZ
  Basis Set: (AUG-CC-PVTZ AUX)
    Blend: AUG-CC-PVTZ-JKFIT
	 Reference Energy          =    -667.2689113172655198 [Eh]
	 Singles Energy            =      -0.0000000000000000 [Eh]
	 Same-Spin Energy          =      -0.7359234562577410 [Eh]
	 Opposite-Spin Energy      =      -2.2666844744027212 [Eh]
	 Correlation Energy        =      -3.0026079306604623 [Eh]
	 Total Energy              =    -670.2715192479259940 [Eh]

	 ================> DF-SCS-MP2 Energies <==================
	-----------------------------------------------------------
	 SCS Same-Spin Scale       =       0.3333333333333333 [-]
	 SCS Opposite-Spin Scale   =       1.2000000000000000 [-]
	 SCS Same-Spin Energy      =      -0.2453078187525803 [Eh]
	 SCS Opposite-Spin Energy  =      -2.7200213692832653 [Eh]
	 SCS Correlation Energy    =      -2.9653291880358457 [Eh]
	 SCS Total Energy          =    -670.2342405053013863 [Eh]
	-----------------------------------------------------------

  Dipole Moment: [D]
     X:     0.3802      Y:    -1.8046      Z:    -0.1185     Total:     1.8480

*** Psi4 exiting successfully. Buy a developer a beer!
