                               Psi4 1.4a3.dev225

  ==> Input File <==

--------------------------------------------------------------------------
#psi4
#
memory 32 gb

molecule  {
0 1
  O       -0.5498120     2.2556960    -0.2996080
  N       -3.0129360     1.7813540     0.8248620
  C        1.0008190     0.4908720    -0.0872200
  C       -1.5329590     0.0859130    -0.1428360
  C       -0.3878030     1.0286420    -0.1846270
  C        3.6793340    -0.3535020     0.1683990
  C       -2.8127890     0.5150010     0.2964470
  C        1.4614432    -0.5856222     0.6848307
  C        2.0273690     1.1786660    -0.7492360
  C        2.6489240    -1.0168440     0.8468500
  C        3.3454510     0.7479200    -0.6334830
  C       -1.3791480    -1.2185740    -0.6492330
  C       -3.8612840    -0.4227650     0.3079770
  C       -2.4390410    -2.1168890    -0.6711390
  C        5.1038640    -0.8322750     0.2664150
  C       -3.6857840    -1.7096250    -0.1856360
  H        0.5383950    -1.1258400     1.2710410
  H        1.7737210     2.0503190    -1.3473030
  H        2.8902070    -1.8603380     1.4919100
  H        4.1335430     1.2826870    -1.1615780
  H       -0.4095800    -1.5185310    -1.0371660
  H       -4.8387790    -0.1097830     0.6721110
  H       -2.3031150    -3.1155080    -1.0770870
  H        5.8059070     0.0022690     0.1830070
  H        5.2850310    -1.3360150     1.2200590
  H        5.3367840    -1.5427250    -0.5345020
  H       -4.5250650    -2.4017370    -0.1822600
  H       -2.3845940     2.4838010     0.4485930
  H       -3.9825350     2.0742830     0.8527820
units angstrom
no_reorient  #important for SAPT in psi4, default
symmetry c1  #important for SAPT in psi4, default
}

set PROPERTIES_ORIGIN ["COM"]
properties('MP2/aug-cc-pvtz', properties = ['dipole'])
--------------------------------------------------------------------------

    Molecular point group: c1
  Charge       = 0
  Multiplicity = 1
  Basis Set: AUG-CC-PVTZ
    Blend: AUG-CC-PVTZ
  Basis Set: (AUG-CC-PVTZ AUX)
    Blend: AUG-CC-PVTZ-JKFIT

    Orbital Energies [Eh]
    ---------------------

    Doubly Occupied:

       1A    -20.539429     2A    -15.559872     3A    -11.341922
       4A    -11.296567     5A    -11.259484     6A    -11.252337
       7A    -11.252084     8A    -11.247293     9A    -11.246031
      10A    -11.241430    11A    -11.238877    12A    -11.234848
      13A    -11.233956    14A    -11.231493    15A    -11.227788
      16A    -11.224934    17A     -1.372240    18A     -1.226335
      19A     -1.178929    20A     -1.136990    21A     -1.067944
      22A     -1.036889    23A     -1.033136    24A     -0.996219
      25A     -0.958341    26A     -0.877380    27A     -0.837863
      28A     -0.826502    29A     -0.815094    30A     -0.771495
      31A     -0.713465    32A     -0.692090    33A     -0.686310
      34A     -0.669934    35A     -0.645055    36A     -0.625213
      37A     -0.617573    38A     -0.605840    39A     -0.602572
      40A     -0.586839    41A     -0.585791    42A     -0.580815
      43A     -0.553483    44A     -0.545982    45A     -0.532923
      46A     -0.520505    47A     -0.515831    48A     -0.507646
      49A     -0.489490    50A     -0.465913    51A     -0.450388
      52A     -0.421987    53A     -0.358782    54A     -0.347548
      55A     -0.330621    56A     -0.299929

  @DF-RHF Final Energy:  -667.24873530587979

   => Energetics <=

    Nuclear Repulsion Energy =            993.9521877032087787
    One-Electron Energy =               -2878.9693969000727520
    Two-Electron Energy =                1217.7684738909840689
    Total Energy =                       -667.2487353058797908
  Basis Set: (AUG-CC-PVTZ AUX)
    Blend: AUG-CC-PVTZ-RI
    Molecular point group: c1

    Geometry (in Angstrom), charge = 0, multiplicity = 1:

       Center              X                  Y                   Z               Mass
    ------------   -----------------  -----------------  -----------------  -----------------
         O           -0.523347687669     2.230314862802    -0.293802059405    15.994914619570
         N           -2.986471687669     1.755972862802     0.830667940595    14.003074004430
         C            1.027283312331     0.465490862802    -0.081414059405    12.000000000000
         C           -1.506494687669     0.060531862802    -0.137030059405    12.000000000000
         C           -0.361338687669     1.003260862802    -0.178821059405    12.000000000000
         C            3.705798312331    -0.378883137198     0.174204940595    12.000000000000
         C           -2.786324687669     0.489619862802     0.302252940595    12.000000000000
         C            1.487907512331    -0.611003337198     0.690636640595    12.000000000000
         C            2.053833312331     1.153284862802    -0.743430059405    12.000000000000
         C            2.675388312331    -1.042225137198     0.852655940595    12.000000000000
         C            3.371915312331     0.722538862802    -0.627677059405    12.000000000000
         C           -1.352683687669    -1.243955137198    -0.643427059405    12.000000000000
         C           -3.834819687669    -0.448146137198     0.313782940595    12.000000000000
         C           -2.412576687669    -2.142270137198    -0.665333059405    12.000000000000
         C            5.130328312331    -0.857656137198     0.272220940595    12.000000000000
         C           -3.659319687669    -1.735006137198    -0.179830059405    12.000000000000
         H            0.564859312331    -1.151221137198     1.276846940595     1.007825032230
         H            1.800185312331     2.024937862802    -1.341497059405     1.007825032230
         H            2.916671312331    -1.885719137198     1.497715940595     1.007825032230
         H            4.160007312331     1.257305862802    -1.155772059405     1.007825032230
         H           -0.383115687669    -1.543912137198    -1.031360059405     1.007825032230
         H           -4.812314687669    -0.135164137198     0.677916940595     1.007825032230
         H           -2.276650687669    -3.140889137198    -1.071281059405     1.007825032230
         H            5.832371312331    -0.023112137198     0.188812940595     1.007825032230
         H            5.311495312331    -1.361396137198     1.225864940595     1.007825032230
         H            5.363248312331    -1.568106137198    -0.528696059405     1.007825032230
         H           -4.498600687669    -2.427118137198    -0.176454059405     1.007825032230
         H           -2.358129687669     2.458419862802     0.454398940595     1.007825032230
         H           -3.956070687669     2.048901862802     0.858587940595     1.007825032230

  Basis Set: AUG-CC-PVTZ
    Blend: AUG-CC-PVTZ
  Basis Set: (AUG-CC-PVTZ AUX)
    Blend: AUG-CC-PVTZ-JKFIT
	 Reference Energy          =    -667.2487353058797908 [Eh]
	 Singles Energy            =      -0.0000000000000000 [Eh]
	 Same-Spin Energy          =      -0.7358095073429356 [Eh]
	 Opposite-Spin Energy      =      -2.2660801360000686 [Eh]
	 Correlation Energy        =      -3.0018896433430040 [Eh]
	 Total Energy              =    -670.2506249492228108 [Eh]

	 ================> DF-SCS-MP2 Energies <==================
	-----------------------------------------------------------
	 SCS Same-Spin Scale       =       0.3333333333333333 [-]
	 SCS Opposite-Spin Scale   =       1.2000000000000000 [-]
	 SCS Same-Spin Energy      =      -0.2452698357809785 [Eh]
	 SCS Opposite-Spin Energy  =      -2.7192961632000823 [Eh]
	 SCS Correlation Energy    =      -2.9645659989810609 [Eh]
	 SCS Total Energy          =    -670.2133013048608063 [Eh]
	-----------------------------------------------------------

  Dipole Moment: [D]
     X:     0.3741      Y:    -1.7779      Z:    -0.1524     Total:     1.8232

*** Psi4 exiting successfully. Buy a developer a beer!
