                               Psi4 1.4a3.dev225

  ==> Input File <==

--------------------------------------------------------------------------
#psi4
#
memory 32 gb

molecule  {
0 1
  O       -0.5498120     2.2556960    -0.2996080
  N       -3.0129360     1.7813540     0.8248620
  C        1.0008190     0.4908720    -0.0872200
  C       -1.5329590     0.0859130    -0.1428360
  C       -0.3878030     1.0286420    -0.1846270
  C        3.6793340    -0.3535020     0.1683990
  C       -2.8127890     0.5150010     0.2964470
  C        1.3212360    -0.6095270     0.7211930
  C        2.0273690     1.1786660    -0.7492360
  C        2.6489240    -1.0168440     0.8468500
  C        3.3454510     0.7479200    -0.6334830
  C       -1.3791480    -1.2185740    -0.6492330
  C       -3.8612840    -0.4227650     0.3079770
  C       -2.4390410    -2.1168890    -0.6711390
  C        5.1038640    -0.8322750     0.2664150
  C       -3.6857840    -1.7096250    -0.1856360
  H        0.5383950    -1.1258400     1.2710410
  H        1.7737210     2.0503190    -1.3473030
  H        2.8902070    -1.8603380     1.4919100
  H        4.1335430     1.2826870    -1.1615780
  H       -0.4095800    -1.5185310    -1.0371660
  H       -4.8387790    -0.1097830     0.6721110
  H       -2.3031150    -3.1155080    -1.0770870
  H        5.8059070     0.0022690     0.1830070
  H        5.2850310    -1.3360150     1.2200590
  H        5.3367840    -1.5427250    -0.5345020
  H       -4.5250650    -2.4017370    -0.1822600
  H       -2.3845940     2.4838010     0.4485930
  H       -3.8868446     2.0453736     0.8500266
units angstrom
no_reorient  #important for SAPT in psi4, default
symmetry c1  #important for SAPT in psi4, default
}

set PROPERTIES_ORIGIN ["COM"]
properties('MP2/aug-cc-pvtz', properties = ['dipole'])
--------------------------------------------------------------------------

    Molecular point group: c1
  Charge       = 0
  Multiplicity = 1
  Basis Set: AUG-CC-PVTZ
    Blend: AUG-CC-PVTZ
  Basis Set: (AUG-CC-PVTZ AUX)
    Blend: AUG-CC-PVTZ-JKFIT

    Orbital Energies [Eh]
    ---------------------

    Doubly Occupied:

       1A    -20.538115     2A    -15.549177     3A    -11.338606
       4A    -11.296918     5A    -11.257433     6A    -11.253011
       7A    -11.252412     8A    -11.250697     9A    -11.246427
      10A    -11.243660    11A    -11.239230    12A    -11.239199
      13A    -11.237903    14A    -11.233305    15A    -11.232369
      16A    -11.228647    17A     -1.371207    18A     -1.237873
      19A     -1.165404    20A     -1.140923    21A     -1.069693
      22A     -1.034926    23A     -1.020737    24A     -1.000477
      25A     -0.955085    26A     -0.877456    27A     -0.841112
      28A     -0.837905    29A     -0.814720    30A     -0.766428
      31A     -0.719978    32A     -0.700118    33A     -0.689127
      34A     -0.661473    35A     -0.645918    36A     -0.636749
      37A     -0.618120    38A     -0.604128    39A     -0.600996
      40A     -0.592869    41A     -0.586975    42A     -0.584123
      43A     -0.556057    44A     -0.544933    45A     -0.532107
      46A     -0.518371    47A     -0.513658    48A     -0.505117
      49A     -0.493602    50A     -0.482257    51A     -0.453455
      52A     -0.419221    53A     -0.349890    54A     -0.343195
      55A     -0.334069    56A     -0.301224

  @DF-RHF Final Energy:  -667.26992748337273

   => Energetics <=

    Nuclear Repulsion Energy =            993.5369502856327699
    One-Electron Energy =               -2878.0961813085409631
    Two-Electron Energy =                1217.2893035395354673
    Total Energy =                       -667.2699274833726122
  Basis Set: (AUG-CC-PVTZ AUX)
    Blend: AUG-CC-PVTZ-RI
    Molecular point group: c1

    Geometry (in Angstrom), charge = 0, multiplicity = 1:

       Center              X                  Y                   Z               Mass
    ------------   -----------------  -----------------  -----------------  -----------------
         O           -0.515834426806     2.231811753589    -0.295855925943    15.994914619570
         N           -2.978958426806     1.757469753589     0.828614074057    14.003074004430
         C            1.034796573194     0.466987753589    -0.083467925943    12.000000000000
         C           -1.498981426806     0.062028753589    -0.139083925943    12.000000000000
         C           -0.353825426806     1.004757753589    -0.180874925943    12.000000000000
         C            3.713311573194    -0.377386246411     0.172151074057    12.000000000000
         C           -2.778811426806     0.491116753589     0.300199074057    12.000000000000
         C            1.355213573194    -0.633411246411     0.724945074057    12.000000000000
         C            2.061346573194     1.154781753589    -0.745483925943    12.000000000000
         C            2.682901573194    -1.040728246411     0.850602074057    12.000000000000
         C            3.379428573194     0.724035753589    -0.629730925943    12.000000000000
         C           -1.345170426806    -1.242458246411    -0.645480925943    12.000000000000
         C           -3.827306426806    -0.446649246411     0.311729074057    12.000000000000
         C           -2.405063426806    -2.140773246411    -0.667386925943    12.000000000000
         C            5.137841573194    -0.856159246411     0.270167074057    12.000000000000
         C           -3.651806426806    -1.733509246411    -0.181883925943    12.000000000000
         H            0.572372573194    -1.149724246411     1.274793074057     1.007825032230
         H            1.807698573194     2.026434753589    -1.343550925943     1.007825032230
         H            2.924184573194    -1.884222246411     1.495662074057     1.007825032230
         H            4.167520573194     1.258802753589    -1.157825925943     1.007825032230
         H           -0.375602426806    -1.542415246411    -1.033413925943     1.007825032230
         H           -4.804801426806    -0.133667246411     0.675863074057     1.007825032230
         H           -2.269137426806    -3.139392246411    -1.073334925943     1.007825032230
         H            5.839884573194    -0.021615246411     0.186759074057     1.007825032230
         H            5.319008573194    -1.359899246411     1.223811074057     1.007825032230
         H            5.370761573194    -1.566609246411    -0.530749925943     1.007825032230
         H           -4.491087426806    -2.425621246411    -0.178507925943     1.007825032230
         H           -2.350616426806     2.459916753589     0.452345074057     1.007825032230
         H           -3.852867026806     2.021489353589     0.853778674057     1.007825032230

  Basis Set: AUG-CC-PVTZ
    Blend: AUG-CC-PVTZ
  Basis Set: (AUG-CC-PVTZ AUX)
    Blend: AUG-CC-PVTZ-JKFIT
	 Reference Energy          =    -667.2699274833727259 [Eh]
	 Singles Energy            =      -0.0000000000000000 [Eh]
	 Same-Spin Energy          =      -0.7349212850751036 [Eh]
	 Opposite-Spin Energy      =      -2.2639009158205599 [Eh]
	 Correlation Energy        =      -2.9988222008956633 [Eh]
	 Total Energy              =    -670.2687496842684141 [Eh]

	 ================> DF-SCS-MP2 Energies <==================
	-----------------------------------------------------------
	 SCS Same-Spin Scale       =       0.3333333333333333 [-]
	 SCS Opposite-Spin Scale   =       1.2000000000000000 [-]
	 SCS Same-Spin Energy      =      -0.2449737616917012 [Eh]
	 SCS Opposite-Spin Energy  =      -2.7166810989846719 [Eh]
	 SCS Correlation Energy    =      -2.9616548606763731 [Eh]
	 SCS Total Energy          =    -670.2315823440491158 [Eh]
	-----------------------------------------------------------

  Dipole Moment: [D]
     X:     0.4141      Y:    -1.8477      Z:    -0.1180     Total:     1.8972

*** Psi4 exiting successfully. Buy a developer a beer!
