                               Psi4 1.4a3.dev225

  ==> Input File <==

--------------------------------------------------------------------------
#psi4
#
memory 32 gb

molecule  {
0 1
  O       -0.5498120     2.2556960    -0.2996080
  N       -3.0129360     1.7813540     0.8248620
  C        0.9073716     0.4788257    -0.0606518
  C       -1.5329590     0.0859130    -0.1428360
  C       -0.3878030     1.0286420    -0.1846270
  C        3.6793340    -0.3535020     0.1683990
  C       -2.8127890     0.5150010     0.2964470
  C        1.3212360    -0.6095270     0.7211930
  C        2.0273690     1.1786660    -0.7492360
  C        2.6489240    -1.0168440     0.8468500
  C        3.3454510     0.7479200    -0.6334830
  C       -1.3791480    -1.2185740    -0.6492330
  C       -3.8612840    -0.4227650     0.3079770
  C       -2.4390410    -2.1168890    -0.6711390
  C        5.1038640    -0.8322750     0.2664150
  C       -3.6857840    -1.7096250    -0.1856360
  H        0.5383950    -1.1258400     1.2710410
  H        1.7737210     2.0503190    -1.3473030
  H        2.8902070    -1.8603380     1.4919100
  H        4.1335430     1.2826870    -1.1615780
  H       -0.4095800    -1.5185310    -1.0371660
  H       -4.8387790    -0.1097830     0.6721110
  H       -2.3031150    -3.1155080    -1.0770870
  H        5.8059070     0.0022690     0.1830070
  H        5.2850310    -1.3360150     1.2200590
  H        5.3367840    -1.5427250    -0.5345020
  H       -4.5250650    -2.4017370    -0.1822600
  H       -2.3845940     2.4838010     0.4485930
  H       -3.9825350     2.0742830     0.8527820
units angstrom
no_reorient  #important for SAPT in psi4, default
symmetry c1  #important for SAPT in psi4, default
}

set PROPERTIES_ORIGIN ["COM"]
properties('MP2/aug-cc-pvtz', properties = ['dipole'])
--------------------------------------------------------------------------

    Molecular point group: c1
  Charge       = 0
  Multiplicity = 1
  Basis Set: AUG-CC-PVTZ
    Blend: AUG-CC-PVTZ
  Basis Set: (AUG-CC-PVTZ AUX)
    Blend: AUG-CC-PVTZ-JKFIT

    Orbital Energies [Eh]
    ---------------------

    Doubly Occupied:

       1A    -20.534441     2A    -15.558547     3A    -11.332219
       4A    -11.294943     5A    -11.263668     6A    -11.258421
       7A    -11.256194     8A    -11.251271     9A    -11.250659
      10A    -11.245736    11A    -11.240328    12A    -11.239555
      13A    -11.236491    14A    -11.236309    15A    -11.230583
      16A    -11.227020    17A     -1.370162    18A     -1.225012
      19A     -1.162252    20A     -1.136036    21A     -1.075448
      22A     -1.031164    23A     -1.019471    24A     -0.995424
      25A     -0.962902    26A     -0.879838    27A     -0.840605
      28A     -0.835753    29A     -0.814790    30A     -0.764926
      31A     -0.713529    32A     -0.690409    33A     -0.685426
      34A     -0.664445    35A     -0.645030    36A     -0.637041
      37A     -0.614381    38A     -0.605238    39A     -0.601523
      40A     -0.587477    41A     -0.585998    42A     -0.584450
      43A     -0.557490    44A     -0.543610    45A     -0.531388
      46A     -0.519389    47A     -0.515073    48A     -0.505370
      49A     -0.484468    50A     -0.477180    51A     -0.450949
      52A     -0.421589    53A     -0.350096    54A     -0.345243
      55A     -0.329876    56A     -0.298724

  @DF-RHF Final Energy:  -667.26328831708065

   => Energetics <=

    Nuclear Repulsion Energy =            993.1945193280670310
    One-Electron Energy =               -2877.4845069067764598
    Two-Electron Energy =                1217.0266992616286643
    Total Energy =                       -667.2632883170806508
  Basis Set: (AUG-CC-PVTZ AUX)
    Blend: AUG-CC-PVTZ-RI
    Molecular point group: c1

    Geometry (in Angstrom), charge = 0, multiplicity = 1:

       Center              X                  Y                   Z               Mass
    ------------   -----------------  -----------------  -----------------  -----------------
         O           -0.510065551249     2.232358509341    -0.297379354635    15.994914619570
         N           -2.973189551249     1.758016509341     0.827090645365    14.003074004430
         C            0.947118048751     0.455488209341    -0.058423154635    12.000000000000
         C           -1.493212551249     0.062575509341    -0.140607354635    12.000000000000
         C           -0.348056551249     1.005304509341    -0.182398354635    12.000000000000
         C            3.719080448751    -0.376839490659     0.170627645365    12.000000000000
         C           -2.773042551249     0.491663509341     0.298675645365    12.000000000000
         C            1.360982448751    -0.632864490659     0.723421645365    12.000000000000
         C            2.067115448751     1.155328509341    -0.747007354635    12.000000000000
         C            2.688670448751    -1.040181490659     0.849078645365    12.000000000000
         C            3.385197448751     0.724582509341    -0.631254354635    12.000000000000
         C           -1.339401551249    -1.241911490659    -0.647004354635    12.000000000000
         C           -3.821537551249    -0.446102490659     0.310205645365    12.000000000000
         C           -2.399294551249    -2.140226490659    -0.668910354635    12.000000000000
         C            5.143610448751    -0.855612490659     0.268643645365    12.000000000000
         C           -3.646037551249    -1.732962490659    -0.183407354635    12.000000000000
         H            0.578141448751    -1.149177490659     1.273269645365     1.007825032230
         H            1.813467448751     2.026981509341    -1.345074354635     1.007825032230
         H            2.929953448751    -1.883675490659     1.494138645365     1.007825032230
         H            4.173289448751     1.259349509341    -1.159349354635     1.007825032230
         H           -0.369833551249    -1.541868490659    -1.034937354635     1.007825032230
         H           -4.799032551249    -0.133120490659     0.674339645365     1.007825032230
         H           -2.263368551249    -3.138845490659    -1.074858354635     1.007825032230
         H            5.845653448751    -0.021068490659     0.185235645365     1.007825032230
         H            5.324777448751    -1.359352490659     1.222287645365     1.007825032230
         H            5.376530448751    -1.566062490659    -0.532273354635     1.007825032230
         H           -4.485318551249    -2.425074490659    -0.180031354635     1.007825032230
         H           -2.344847551249     2.460463509341     0.450821645365     1.007825032230
         H           -3.942788551249     2.050945509341     0.855010645365     1.007825032230

  Basis Set: AUG-CC-PVTZ
    Blend: AUG-CC-PVTZ
  Basis Set: (AUG-CC-PVTZ AUX)
    Blend: AUG-CC-PVTZ-JKFIT
	 Reference Energy          =    -667.2632883170806508 [Eh]
	 Singles Energy            =      -0.0000000000000000 [Eh]
	 Same-Spin Energy          =      -0.7365130171421186 [Eh]
	 Opposite-Spin Energy      =      -2.2674549988607473 [Eh]
	 Correlation Energy        =      -3.0039680160028661 [Eh]
	 Total Energy              =    -670.2672563330835374 [Eh]

	 ================> DF-SCS-MP2 Energies <==================
	-----------------------------------------------------------
	 SCS Same-Spin Scale       =       0.3333333333333333 [-]
	 SCS Opposite-Spin Scale   =       1.2000000000000000 [-]
	 SCS Same-Spin Energy      =      -0.2455043390473728 [Eh]
	 SCS Opposite-Spin Energy  =      -2.7209459986328968 [Eh]
	 SCS Correlation Energy    =      -2.9664503376802696 [Eh]
	 SCS Total Energy          =    -670.2297386547609221 [Eh]
	-----------------------------------------------------------

  Dipole Moment: [D]
     X:     0.6623      Y:    -1.8890      Z:    -0.0821     Total:     2.0034

*** Psi4 exiting successfully. Buy a developer a beer!
