                               Psi4 1.4a3.dev225

  ==> Input File <==

--------------------------------------------------------------------------
#psi4
#
memory 32 gb

molecule  {
0 1
  O       -0.5498120     2.2556960    -0.2996080
  N       -3.0129360     1.7813540     0.8248620
  C        1.0008190     0.4908720    -0.0872200
  C       -1.5329590     0.0859130    -0.1428360
  C       -0.3878030     1.0286420    -0.1846270
  C        3.6793340    -0.3535020     0.1683990
  C       -2.8127890     0.5150010     0.2964470
  C        1.3212360    -0.6095270     0.7211930
  C        2.0273690     1.1786660    -0.7492360
  C        2.6489240    -1.0168440     0.8468500
  C        3.3454510     0.7479200    -0.6334830
  C       -1.3791480    -1.2185740    -0.6492330
  C       -3.8612840    -0.4227650     0.3079770
  C       -2.4390410    -2.1168890    -0.6711390
  C        5.1038640    -0.8322750     0.2664150
  C       -3.6857840    -1.7096250    -0.1856360
  H        0.5383950    -1.1258400     1.2710410
  H        1.7737210     2.0503190    -1.3473030
  H        2.8902070    -1.8603380     1.4919100
  H        4.1335430     1.2826870    -1.1615780
  H       -0.4095800    -1.5185310    -1.0371660
  H       -4.7490230    -0.1385218     0.6386753
  H       -2.3031150    -3.1155080    -1.0770870
  H        5.8059070     0.0022690     0.1830070
  H        5.2850310    -1.3360150     1.2200590
  H        5.3367840    -1.5427250    -0.5345020
  H       -4.5250650    -2.4017370    -0.1822600
  H       -2.3845940     2.4838010     0.4485930
  H       -3.9825350     2.0742830     0.8527820
units angstrom
no_reorient  #important for SAPT in psi4, default
symmetry c1  #important for SAPT in psi4, default
}

set PROPERTIES_ORIGIN ["COM"]
properties('MP2/aug-cc-pvtz', properties = ['dipole'])
--------------------------------------------------------------------------

    Molecular point group: c1
  Charge       = 0
  Multiplicity = 1
  Basis Set: AUG-CC-PVTZ
    Blend: AUG-CC-PVTZ
  Basis Set: (AUG-CC-PVTZ AUX)
    Blend: AUG-CC-PVTZ-JKFIT

    Orbital Energies [Eh]
    ---------------------

    Doubly Occupied:

       1A    -20.537740     2A    -15.560198     3A    -11.338133
       4A    -11.295998     5A    -11.257184     6A    -11.251935
       7A    -11.251889     8A    -11.250410     9A    -11.246150
      10A    -11.243342    11A    -11.238954    12A    -11.238432
      13A    -11.237662    14A    -11.233121    15A    -11.227644
      16A    -11.219833    17A     -1.370814    18A     -1.226855
      19A     -1.165027    20A     -1.136921    21A     -1.069683
      22A     -1.036048    23A     -1.020627    24A     -0.998412
      25A     -0.954450    26A     -0.876845    27A     -0.842971
      28A     -0.837674    29A     -0.813255    30A     -0.767147
      31A     -0.717697    32A     -0.692114    33A     -0.686667
      34A     -0.661744    35A     -0.647078    36A     -0.637722
      37A     -0.614119    38A     -0.609932    39A     -0.600735
      40A     -0.592757    41A     -0.585808    42A     -0.584108
      43A     -0.555548    44A     -0.544420    45A     -0.531358
      46A     -0.517873    47A     -0.515456    48A     -0.506359
      49A     -0.493358    50A     -0.481979    51A     -0.452065
      52A     -0.418686    53A     -0.349329    54A     -0.342881
      55A     -0.333802    56A     -0.299996

  @DF-RHF Final Energy:  -667.27091818391193

   => Energetics <=

    Nuclear Repulsion Energy =            993.4664037516797634
    One-Electron Energy =               -2878.0367489569462123
    Two-Electron Energy =                1217.2994270213546315
    Total Energy =                       -667.2709181839118173
  Basis Set: (AUG-CC-PVTZ AUX)
    Blend: AUG-CC-PVTZ-RI
    Molecular point group: c1

    Geometry (in Angstrom), charge = 0, multiplicity = 1:

       Center              X                  Y                   Z               Mass
    ------------   -----------------  -----------------  -----------------  -----------------
         O           -0.515806094997     2.231810939116    -0.295709453105    15.994914619570
         N           -2.978930094997     1.757468939116     0.828760546895    14.003074004430
         C            1.034824905003     0.466986939116    -0.083321453105    12.000000000000
         C           -1.498953094997     0.062027939116    -0.138937453105    12.000000000000
         C           -0.353797094997     1.004756939116    -0.180728453105    12.000000000000
         C            3.713339905003    -0.377387060884     0.172297546895    12.000000000000
         C           -2.778783094997     0.491115939116     0.300345546895    12.000000000000
         C            1.355241905003    -0.633412060884     0.725091546895    12.000000000000
         C            2.061374905003     1.154780939116    -0.745337453105    12.000000000000
         C            2.682929905003    -1.040729060884     0.850748546895    12.000000000000
         C            3.379456905003     0.724034939116    -0.629584453105    12.000000000000
         C           -1.345142094997    -1.242459060884    -0.645334453105    12.000000000000
         C           -3.827278094997    -0.446650060884     0.311875546895    12.000000000000
         C           -2.405035094997    -2.140774060884    -0.667240453105    12.000000000000
         C            5.137869905003    -0.856160060884     0.270313546895    12.000000000000
         C           -3.651778094997    -1.733510060884    -0.181737453105    12.000000000000
         H            0.572400905003    -1.149725060884     1.274939546895     1.007825032230
         H            1.807726905003     2.026433939116    -1.343404453105     1.007825032230
         H            2.924212905003    -1.884223060884     1.495808546895     1.007825032230
         H            4.167548905003     1.258801939116    -1.157679453105     1.007825032230
         H           -0.375574094997    -1.542416060884    -1.033267453105     1.007825032230
         H           -4.715017094997    -0.162406860884     0.642573846895     1.007825032230
         H           -2.269109094997    -3.139393060884    -1.073188453105     1.007825032230
         H            5.839912905003    -0.021616060884     0.186905546895     1.007825032230
         H            5.319036905003    -1.359900060884     1.223957546895     1.007825032230
         H            5.370789905003    -1.566610060884    -0.530603453105     1.007825032230
         H           -4.491059094997    -2.425622060884    -0.178361453105     1.007825032230
         H           -2.350588094997     2.459915939116     0.452491546895     1.007825032230
         H           -3.948529094997     2.050397939116     0.856680546895     1.007825032230

  Basis Set: AUG-CC-PVTZ
    Blend: AUG-CC-PVTZ
  Basis Set: (AUG-CC-PVTZ AUX)
    Blend: AUG-CC-PVTZ-JKFIT
	 Reference Energy          =    -667.2709181839119310 [Eh]
	 Singles Energy            =      -0.0000000000000000 [Eh]
	 Same-Spin Energy          =      -0.7353299980842580 [Eh]
	 Opposite-Spin Energy      =      -2.2649612700260078 [Eh]
	 Correlation Energy        =      -3.0002912681102658 [Eh]
	 Total Energy              =    -670.2712094520221626 [Eh]

	 ================> DF-SCS-MP2 Energies <==================
	-----------------------------------------------------------
	 SCS Same-Spin Scale       =       0.3333333333333333 [-]
	 SCS Opposite-Spin Scale   =       1.2000000000000000 [-]
	 SCS Same-Spin Energy      =      -0.2451099993614193 [Eh]
	 SCS Opposite-Spin Energy  =      -2.7179535240312092 [Eh]
	 SCS Correlation Energy    =      -2.9630635233926284 [Eh]
	 SCS Total Energy          =    -670.2339817073045651 [Eh]
	-----------------------------------------------------------

  Dipole Moment: [D]
     X:     0.3162      Y:    -1.8031      Z:    -0.0949     Total:     1.8331

*** Psi4 exiting successfully. Buy a developer a beer!
