                               Psi4 1.4a3.dev225

  ==> Input File <==

--------------------------------------------------------------------------
#psi4
#
memory 32 gb

molecule  {
0 1
  O       -0.5498120     2.2556960    -0.2996080
  N       -3.0129360     1.7813540     0.8248620
  C        1.0008190     0.4908720    -0.0872200
  C       -1.5329590     0.0859130    -0.1428360
  C       -0.3878030     1.0286420    -0.1846270
  C        3.6793340    -0.3535020     0.1683990
  C       -2.8127890     0.5150010     0.2964470
  C        1.3212360    -0.6095270     0.7211930
  C        2.0273690     1.1786660    -0.7492360
  C        2.6489240    -1.0168440     0.8468500
  C        3.3454510     0.7479200    -0.6334830
  C       -1.3791480    -1.2185740    -0.6492330
  C       -3.8612840    -0.4227650     0.3079770
  C       -2.4390410    -2.1168890    -0.6711390
  C        5.0092754    -0.8004845     0.2599067
  C       -3.6857840    -1.7096250    -0.1856360
  H        0.5383950    -1.1258400     1.2710410
  H        1.7737210     2.0503190    -1.3473030
  H        2.8902070    -1.8603380     1.4919100
  H        4.1335430     1.2826870    -1.1615780
  H       -0.4095800    -1.5185310    -1.0371660
  H       -4.8387790    -0.1097830     0.6721110
  H       -2.3031150    -3.1155080    -1.0770870
  H        5.8059070     0.0022690     0.1830070
  H        5.2850310    -1.3360150     1.2200590
  H        5.3367840    -1.5427250    -0.5345020
  H       -4.5250650    -2.4017370    -0.1822600
  H       -2.3845940     2.4838010     0.4485930
  H       -3.9825350     2.0742830     0.8527820
units angstrom
no_reorient  #important for SAPT in psi4, default
symmetry c1  #important for SAPT in psi4, default
}

set PROPERTIES_ORIGIN ["COM"]
properties('MP2/aug-cc-pvtz', properties = ['dipole'])
--------------------------------------------------------------------------

    Molecular point group: c1
  Charge       = 0
  Multiplicity = 1
  Basis Set: AUG-CC-PVTZ
    Blend: AUG-CC-PVTZ
  Basis Set: (AUG-CC-PVTZ AUX)
    Blend: AUG-CC-PVTZ-JKFIT

    Orbital Energies [Eh]
    ---------------------

    Doubly Occupied:

       1A    -20.538145     2A    -15.560117     3A    -11.338631
       4A    -11.297004     5A    -11.252821     6A    -11.252374
       7A    -11.252292     8A    -11.250856     9A    -11.246597
      10A    -11.243861    11A    -11.239319    12A    -11.239234
      13A    -11.238026    14A    -11.237557    15A    -11.232060
      16A    -11.228403    17A     -1.371213    18A     -1.226658
      19A     -1.169459    20A     -1.137530    21A     -1.079187
      22A     -1.037048    23A     -1.021357    24A     -0.996734
      25A     -0.954211    26A     -0.875368    27A     -0.840597
      28A     -0.835384    29A     -0.812617    30A     -0.766653
      31A     -0.713096    32A     -0.693413    33A     -0.686424
      34A     -0.665544    35A     -0.650608    36A     -0.638569
      37A     -0.614495    38A     -0.606281    39A     -0.602514
      40A     -0.592844    41A     -0.585860    42A     -0.576117
      43A     -0.554040    44A     -0.537061    45A     -0.529489
      46A     -0.524978    47A     -0.514654    48A     -0.505696
      49A     -0.488947    50A     -0.478527    51A     -0.452394
      52A     -0.419144    53A     -0.349881    54A     -0.343519
      55A     -0.331161    56A     -0.300430

  @DF-RHF Final Energy:  -667.26410424296716

   => Energetics <=

    Nuclear Repulsion Energy =            994.8159863040247046
    One-Electron Energy =               -2880.7061880846645181
    Two-Electron Energy =                1218.6260975376726492
    Total Energy =                       -667.2641042429672780
  Basis Set: (AUG-CC-PVTZ AUX)
    Blend: AUG-CC-PVTZ-RI
    Molecular point group: c1

    Geometry (in Angstrom), charge = 0, multiplicity = 1:

       Center              X                  Y                   Z               Mass
    ------------   -----------------  -----------------  -----------------  -----------------
         O           -0.510000679537     2.229866598813    -0.295499115233    15.994914619570
         N           -2.973124679537     1.755524598813     0.828970884767    14.003074004430
         C            1.040630320463     0.465042598813    -0.083111115233    12.000000000000
         C           -1.493147679537     0.060083598813    -0.138727115233    12.000000000000
         C           -0.347991679537     1.002812598813    -0.180518115233    12.000000000000
         C            3.719145320463    -0.379331401187     0.172507884767    12.000000000000
         C           -2.772977679537     0.489171598813     0.300555884767    12.000000000000
         C            1.361047320463    -0.635356401187     0.725301884767    12.000000000000
         C            2.067180320463     1.152836598813    -0.745127115233    12.000000000000
         C            2.688735320463    -1.042673401187     0.850958884767    12.000000000000
         C            3.385262320463     0.722090598813    -0.629374115233    12.000000000000
         C           -1.339336679537    -1.244403401187    -0.645124115233    12.000000000000
         C           -3.821472679537    -0.448594401187     0.312085884767    12.000000000000
         C           -2.399229679537    -2.142718401187    -0.667030115233    12.000000000000
         C            5.049086720463    -0.826313901187     0.264015584767    12.000000000000
         C           -3.645972679537    -1.735454401187    -0.181527115233    12.000000000000
         H            0.578206320463    -1.151669401187     1.275149884767     1.007825032230
         H            1.813532320463     2.024489598813    -1.343194115233     1.007825032230
         H            2.930018320463    -1.886167401187     1.496018884767     1.007825032230
         H            4.173354320463     1.256857598813    -1.157469115233     1.007825032230
         H           -0.369768679537    -1.544360401187    -1.033057115233     1.007825032230
         H           -4.798967679537    -0.135612401187     0.676219884767     1.007825032230
         H           -2.263303679537    -3.141337401187    -1.072978115233     1.007825032230
         H            5.845718320463    -0.023560401187     0.187115884767     1.007825032230
         H            5.324842320463    -1.361844401187     1.224167884767     1.007825032230
         H            5.376595320463    -1.568554401187    -0.530393115233     1.007825032230
         H           -4.485253679537    -2.427566401187    -0.178151115233     1.007825032230
         H           -2.344782679537     2.457971598813     0.452701884767     1.007825032230
         H           -3.942723679537     2.048453598813     0.856890884767     1.007825032230

  Basis Set: AUG-CC-PVTZ
    Blend: AUG-CC-PVTZ
  Basis Set: (AUG-CC-PVTZ AUX)
    Blend: AUG-CC-PVTZ-JKFIT
	 Reference Energy          =    -667.2641042429671643 [Eh]
	 Singles Energy            =      -0.0000000000000000 [Eh]
	 Same-Spin Energy          =      -0.7368350300668530 [Eh]
	 Opposite-Spin Energy      =      -2.2670271609374710 [Eh]
	 Correlation Energy        =      -3.0038621910043242 [Eh]
	 Total Energy              =    -670.2679664339715373 [Eh]

	 ================> DF-SCS-MP2 Energies <==================
	-----------------------------------------------------------
	 SCS Same-Spin Scale       =       0.3333333333333333 [-]
	 SCS Opposite-Spin Scale   =       1.2000000000000000 [-]
	 SCS Same-Spin Energy      =      -0.2456116766889510 [Eh]
	 SCS Opposite-Spin Energy  =      -2.7204325931249653 [Eh]
	 SCS Correlation Energy    =      -2.9660442698139162 [Eh]
	 SCS Total Energy          =    -670.2301485127810565 [Eh]
	-----------------------------------------------------------

  Dipole Moment: [D]
     X:     0.3644      Y:    -1.8217      Z:    -0.1087     Total:     1.8609

*** Psi4 exiting successfully. Buy a developer a beer!
