                               Psi4 1.4a3.dev225

  ==> Input File <==

--------------------------------------------------------------------------
#psi4
#
memory 32 gb

molecule  {
0 1
  O       -0.5498120     2.2556960    -0.2996080
  N       -3.1484475     1.7390157     0.8550636
  C        1.0008190     0.4908720    -0.0872200
  C       -1.5329590     0.0859130    -0.1428360
  C       -0.3878030     1.0286420    -0.1846270
  C        3.6793340    -0.3535020     0.1683990
  C       -2.8127890     0.5150010     0.2964470
  C        1.3212360    -0.6095270     0.7211930
  C        2.0273690     1.1786660    -0.7492360
  C        2.6489240    -1.0168440     0.8468500
  C        3.3454510     0.7479200    -0.6334830
  C       -1.3791480    -1.2185740    -0.6492330
  C       -3.8612840    -0.4227650     0.3079770
  C       -2.4390410    -2.1168890    -0.6711390
  C        5.1038640    -0.8322750     0.2664150
  C       -3.6857840    -1.7096250    -0.1856360
  H        0.5383950    -1.1258400     1.2710410
  H        1.7737210     2.0503190    -1.3473030
  H        2.8902070    -1.8603380     1.4919100
  H        4.1335430     1.2826870    -1.1615780
  H       -0.4095800    -1.5185310    -1.0371660
  H       -4.8387790    -0.1097830     0.6721110
  H       -2.3031150    -3.1155080    -1.0770870
  H        5.8059070     0.0022690     0.1830070
  H        5.2850310    -1.3360150     1.2200590
  H        5.3367840    -1.5427250    -0.5345020
  H       -4.5250650    -2.4017370    -0.1822600
  H       -2.3845940     2.4838010     0.4485930
  H       -3.9825350     2.0742830     0.8527820
units angstrom
no_reorient  #important for SAPT in psi4, default
symmetry c1  #important for SAPT in psi4, default
}

set PROPERTIES_ORIGIN ["COM"]
properties('MP2/aug-cc-pvtz', properties = ['dipole'])
--------------------------------------------------------------------------

    Molecular point group: c1
  Charge       = 0
  Multiplicity = 1
  Basis Set: AUG-CC-PVTZ
    Blend: AUG-CC-PVTZ
  Basis Set: (AUG-CC-PVTZ AUX)
    Blend: AUG-CC-PVTZ-JKFIT

    Orbital Energies [Eh]
    ---------------------

    Doubly Occupied:

       1A    -20.540483     2A    -15.556870     3A    -11.340515
       4A    -11.298565     5A    -11.258195     6A    -11.253089
       7A    -11.251534     8A    -11.250849     9A    -11.247289
      10A    -11.244478    11A    -11.242379    12A    -11.239860
      13A    -11.238576    14A    -11.233814    15A    -11.228991
      16A    -11.228321    17A     -1.372915    18A     -1.229712
      19A     -1.166092    20A     -1.138480    21A     -1.070254
      22A     -1.035208    23A     -1.021431    24A     -0.998001
      25A     -0.955881    26A     -0.877370    27A     -0.841724
      28A     -0.838518    29A     -0.815544    30A     -0.765225
      31A     -0.726082    32A     -0.702514    33A     -0.670721
      34A     -0.660182    35A     -0.648207    36A     -0.635106
      37A     -0.623762    38A     -0.601568    39A     -0.595607
      40A     -0.593441    41A     -0.584656    42A     -0.571938
      43A     -0.555707    44A     -0.544687    45A     -0.529381
      46A     -0.518494    47A     -0.513313    48A     -0.506625
      49A     -0.494330    50A     -0.483306    51A     -0.451796
      52A     -0.418251    53A     -0.349947    54A     -0.343900
      55A     -0.334942    56A     -0.299664

  @DF-RHF Final Energy:  -667.24613272534975

   => Energetics <=

    Nuclear Repulsion Energy =            991.6654498601883461
    One-Electron Energy =               -2874.3465937839955586
    Two-Electron Energy =                1215.4350111984574596
    Total Energy =                       -667.2461327253497529
  Basis Set: (AUG-CC-PVTZ AUX)
    Blend: AUG-CC-PVTZ-RI
    Molecular point group: c1

    Geometry (in Angstrom), charge = 0, multiplicity = 1:

       Center              X                  Y                   Z               Mass
    ------------   -----------------  -----------------  -----------------  -----------------
         O           -0.506388574393     2.234482201219    -0.297872471550    15.994914619570
         N           -3.105024074393     1.717801901219     0.856799128450    14.003074004430
         C            1.044242425607     0.469658201219    -0.085484471550    12.000000000000
         C           -1.489535574393     0.064699201219    -0.141100471550    12.000000000000
         C           -0.344379574393     1.007428201219    -0.182891471550    12.000000000000
         C            3.722757425607    -0.374715798781     0.170134528450    12.000000000000
         C           -2.769365574393     0.493787201219     0.298182528450    12.000000000000
         C            1.364659425607    -0.630740798781     0.722928528450    12.000000000000
         C            2.070792425607     1.157452201219    -0.747500471550    12.000000000000
         C            2.692347425607    -1.038057798781     0.848585528450    12.000000000000
         C            3.388874425607     0.726706201219    -0.631747471550    12.000000000000
         C           -1.335724574393    -1.239787798781    -0.647497471550    12.000000000000
         C           -3.817860574393    -0.443978798781     0.309712528450    12.000000000000
         C           -2.395617574393    -2.138102798781    -0.669403471550    12.000000000000
         C            5.147287425607    -0.853488798781     0.268150528450    12.000000000000
         C           -3.642360574393    -1.730838798781    -0.183900471550    12.000000000000
         H            0.581818425607    -1.147053798781     1.272776528450     1.007825032230
         H            1.817144425607     2.029105201219    -1.345567471550     1.007825032230
         H            2.933630425607    -1.881551798781     1.493645528450     1.007825032230
         H            4.176966425607     1.261473201219    -1.159842471550     1.007825032230
         H           -0.366156574393    -1.539744798781    -1.035430471550     1.007825032230
         H           -4.795355574393    -0.130996798781     0.673846528450     1.007825032230
         H           -2.259691574393    -3.136721798781    -1.075351471550     1.007825032230
         H            5.849330425607    -0.018944798781     0.184742528450     1.007825032230
         H            5.328454425607    -1.357228798781     1.221794528450     1.007825032230
         H            5.380207425607    -1.563938798781    -0.532766471550     1.007825032230
         H           -4.481641574393    -2.422950798781    -0.180524471550     1.007825032230
         H           -2.341170574393     2.462587201219     0.450328528450     1.007825032230
         H           -3.939111574393     2.053069201219     0.854517528450     1.007825032230

  Basis Set: AUG-CC-PVTZ
    Blend: AUG-CC-PVTZ
  Basis Set: (AUG-CC-PVTZ AUX)
    Blend: AUG-CC-PVTZ-JKFIT
	 Reference Energy          =    -667.2461327253497529 [Eh]
	 Singles Energy            =      -0.0000000000000000 [Eh]
	 Same-Spin Energy          =      -0.7360014915524353 [Eh]
	 Opposite-Spin Energy      =      -2.2667894396108403 [Eh]
	 Correlation Energy        =      -3.0027909311632754 [Eh]
	 Total Energy              =    -670.2489236565130568 [Eh]

	 ================> DF-SCS-MP2 Energies <==================
	-----------------------------------------------------------
	 SCS Same-Spin Scale       =       0.3333333333333333 [-]
	 SCS Opposite-Spin Scale   =       1.2000000000000000 [-]
	 SCS Same-Spin Energy      =      -0.2453338305174784 [Eh]
	 SCS Opposite-Spin Energy  =      -2.7201473275330081 [Eh]
	 SCS Correlation Energy    =      -2.9654811580504865 [Eh]
	 SCS Total Energy          =    -670.2116138834002186 [Eh]
	-----------------------------------------------------------

  Dipole Moment: [D]
     X:     0.5706      Y:    -1.8194      Z:    -0.1673     Total:     1.9141

*** Psi4 exiting successfully. Buy a developer a beer!
