                               Psi4 1.4a3.dev225

  ==> Input File <==

--------------------------------------------------------------------------
#psi4
#
memory 32 gb

molecule  {
0 1
  O       -0.5498120     2.2556960    -0.2996080
  N       -3.0129360     1.7813540     0.8248620
  C        1.0008190     0.4908720    -0.0872200
  C       -1.5329590     0.0859130    -0.1428360
  C       -0.3878030     1.0286420    -0.1846270
  C        3.6793340    -0.3535020     0.1683990
  C       -2.8127890     0.5150010     0.2964470
  C        1.3212360    -0.6095270     0.7211930
  C        2.0273690     1.1786660    -0.7492360
  C        2.6170008    -0.9853064     0.8274396
  C        3.3454510     0.7479200    -0.6334830
  C       -1.3791480    -1.2185740    -0.6492330
  C       -3.8612840    -0.4227650     0.3079770
  C       -2.4390410    -2.1168890    -0.6711390
  C        5.1038640    -0.8322750     0.2664150
  C       -3.6857840    -1.7096250    -0.1856360
  H        0.5383950    -1.1258400     1.2710410
  H        1.7737210     2.0503190    -1.3473030
  H        2.8902070    -1.8603380     1.4919100
  H        4.1335430     1.2826870    -1.1615780
  H       -0.4095800    -1.5185310    -1.0371660
  H       -4.8387790    -0.1097830     0.6721110
  H       -2.3031150    -3.1155080    -1.0770870
  H        5.8059070     0.0022690     0.1830070
  H        5.2850310    -1.3360150     1.2200590
  H        5.3367840    -1.5427250    -0.5345020
  H       -4.5250650    -2.4017370    -0.1822600
  H       -2.3845940     2.4838010     0.4485930
  H       -3.9825350     2.0742830     0.8527820
units angstrom
no_reorient  #important for SAPT in psi4, default
symmetry c1  #important for SAPT in psi4, default
}

set PROPERTIES_ORIGIN ["COM"]
properties('MP2/aug-cc-pvtz', properties = ['dipole'])
--------------------------------------------------------------------------

    Molecular point group: c1
  Charge       = 0
  Multiplicity = 1
  Basis Set: AUG-CC-PVTZ
    Blend: AUG-CC-PVTZ
  Basis Set: (AUG-CC-PVTZ AUX)
    Blend: AUG-CC-PVTZ-JKFIT

    Orbital Energies [Eh]
    ---------------------

    Doubly Occupied:

       1A    -20.537747     2A    -15.559986     3A    -11.338051
       4A    -11.296878     5A    -11.257401     6A    -11.252719
       7A    -11.252323     8A    -11.245696     9A    -11.245285
      10A    -11.243046    11A    -11.239083    12A    -11.238325
      13A    -11.237695    14A    -11.234809    15A    -11.231976
      16A    -11.228348    17A     -1.370786    18A     -1.226528
      19A     -1.169055    20A     -1.137200    21A     -1.069418
      22A     -1.034251    23A     -1.024894    24A     -0.996591
      25A     -0.956051    26A     -0.877568    27A     -0.837904
      28A     -0.835837    29A     -0.813018    30A     -0.765343
      31A     -0.712499    32A     -0.692230    33A     -0.686085
      34A     -0.663988    35A     -0.645344    36A     -0.634437
      37A     -0.614258    38A     -0.603708    39A     -0.598372
      40A     -0.588860    41A     -0.585089    42A     -0.584132
      43A     -0.555378    44A     -0.545944    45A     -0.532111
      46A     -0.521108    47A     -0.515174    48A     -0.506299
      49A     -0.486187    50A     -0.483157    51A     -0.452327
      52A     -0.418770    53A     -0.351051    54A     -0.346120
      55A     -0.332548    56A     -0.300347

  @DF-RHF Final Energy:  -667.27348494399484

   => Energetics <=

    Nuclear Repulsion Energy =            993.7837581408331289
    One-Electron Energy =               -2878.6958158181296312
    Two-Electron Energy =                1217.6385727333017712
    Total Energy =                       -667.2734849439948448
  Basis Set: (AUG-CC-PVTZ AUX)
    Blend: AUG-CC-PVTZ-RI
    Molecular point group: c1

    Geometry (in Angstrom), charge = 0, multiplicity = 1:

       Center              X                  Y                   Z               Mass
    ------------   -----------------  -----------------  -----------------  -----------------
         O           -0.513562905110     2.229880974957    -0.294765693112    15.994914619570
         N           -2.976686905110     1.755538974957     0.829704306888    14.003074004430
         C            1.037068094890     0.465056974957    -0.082377693112    12.000000000000
         C           -1.496709905110     0.060097974957    -0.137993693112    12.000000000000
         C           -0.351553905110     1.002826974957    -0.179784693112    12.000000000000
         C            3.715583094890    -0.379317025043     0.173241306888    12.000000000000
         C           -2.776539905110     0.489185974957     0.301289306888    12.000000000000
         C            1.357485094890    -0.635342025043     0.726035306888    12.000000000000
         C            2.063618094890     1.152850974957    -0.744393693112    12.000000000000
         C            2.653249894890    -1.011121425043     0.832281906888    12.000000000000
         C            3.381700094890     0.722104974957    -0.628640693112    12.000000000000
         C           -1.342898905110    -1.244389025043    -0.644390693112    12.000000000000
         C           -3.825034905110    -0.448580025043     0.312819306888    12.000000000000
         C           -2.402791905110    -2.142704025043    -0.666296693112    12.000000000000
         C            5.140113094890    -0.858090025043     0.271257306888    12.000000000000
         C           -3.649534905110    -1.735440025043    -0.180793693112    12.000000000000
         H            0.574644094890    -1.151655025043     1.275883306888     1.007825032230
         H            1.809970094890     2.024503974957    -1.342460693112     1.007825032230
         H            2.926456094890    -1.886153025043     1.496752306888     1.007825032230
         H            4.169792094890     1.256871974957    -1.156735693112     1.007825032230
         H           -0.373330905110    -1.544346025043    -1.032323693112     1.007825032230
         H           -4.802529905110    -0.135598025043     0.676953306888     1.007825032230
         H           -2.266865905110    -3.141323025043    -1.072244693112     1.007825032230
         H            5.842156094890    -0.023546025043     0.187849306888     1.007825032230
         H            5.321280094890    -1.361830025043     1.224901306888     1.007825032230
         H            5.373033094890    -1.568540025043    -0.529659693112     1.007825032230
         H           -4.488815905110    -2.427552025043    -0.177417693112     1.007825032230
         H           -2.348344905110     2.457985974957     0.453435306888     1.007825032230
         H           -3.946285905110     2.048467974957     0.857624306888     1.007825032230

  Basis Set: AUG-CC-PVTZ
    Blend: AUG-CC-PVTZ
  Basis Set: (AUG-CC-PVTZ AUX)
    Blend: AUG-CC-PVTZ-JKFIT
	 Reference Energy          =    -667.2734849439948448 [Eh]
	 Singles Energy            =      -0.0000000000000000 [Eh]
	 Same-Spin Energy          =      -0.7357010700482041 [Eh]
	 Opposite-Spin Energy      =      -2.2655955150514719 [Eh]
	 Correlation Energy        =      -3.0012965850996762 [Eh]
	 Total Energy              =    -670.2747815290945255 [Eh]

	 ================> DF-SCS-MP2 Energies <==================
	-----------------------------------------------------------
	 SCS Same-Spin Scale       =       0.3333333333333333 [-]
	 SCS Opposite-Spin Scale   =       1.2000000000000000 [-]
	 SCS Same-Spin Energy      =      -0.2452336900160680 [Eh]
	 SCS Opposite-Spin Energy  =      -2.7187146180617661 [Eh]
	 SCS Correlation Energy    =      -2.9639483080778342 [Eh]
	 SCS Total Energy          =    -670.2374332520727194 [Eh]
	-----------------------------------------------------------

  Dipole Moment: [D]
     X:     0.3713      Y:    -1.7945      Z:    -0.1259     Total:     1.8368

*** Psi4 exiting successfully. Buy a developer a beer!
