                               Psi4 1.4a3.dev225

  ==> Input File <==

--------------------------------------------------------------------------
#psi4
#
memory 32 gb

molecule  {
0 1
  O       -0.5498120     2.2556960    -0.2996080
  N       -3.0129360     1.7813540     0.8248620
  C        1.0008190     0.4908720    -0.0872200
  C       -1.5329590     0.0859130    -0.1428360
  C       -0.3878030     1.0286420    -0.1846270
  C        3.6793340    -0.3535020     0.1683990
  C       -2.8605858     0.5111123     0.2898793
  C        1.3212360    -0.6095270     0.7211930
  C        2.0273690     1.1786660    -0.7492360
  C        2.6489240    -1.0168440     0.8468500
  C        3.3454510     0.7479200    -0.6334830
  C       -1.3791480    -1.2185740    -0.6492330
  C       -3.8612840    -0.4227650     0.3079770
  C       -2.4390410    -2.1168890    -0.6711390
  C        5.1038640    -0.8322750     0.2664150
  C       -3.6857840    -1.7096250    -0.1856360
  H        0.5383950    -1.1258400     1.2710410
  H        1.7737210     2.0503190    -1.3473030
  H        2.8902070    -1.8603380     1.4919100
  H        4.1335430     1.2826870    -1.1615780
  H       -0.4095800    -1.5185310    -1.0371660
  H       -4.8387790    -0.1097830     0.6721110
  H       -2.3031150    -3.1155080    -1.0770870
  H        5.8059070     0.0022690     0.1830070
  H        5.2850310    -1.3360150     1.2200590
  H        5.3367840    -1.5427250    -0.5345020
  H       -4.5250650    -2.4017370    -0.1822600
  H       -2.3845940     2.4838010     0.4485930
  H       -3.9825350     2.0742830     0.8527820
units angstrom
no_reorient  #important for SAPT in psi4, default
symmetry c1  #important for SAPT in psi4, default
}

set PROPERTIES_ORIGIN ["COM"]
properties('MP2/aug-cc-pvtz', properties = ['dipole'])
--------------------------------------------------------------------------

    Molecular point group: c1
  Charge       = 0
  Multiplicity = 1
  Basis Set: AUG-CC-PVTZ
    Blend: AUG-CC-PVTZ
  Basis Set: (AUG-CC-PVTZ AUX)
    Blend: AUG-CC-PVTZ-JKFIT

    Orbital Energies [Eh]
    ---------------------

    Doubly Occupied:

       1A    -20.537397     2A    -15.559658     3A    -11.338540
       4A    -11.295920     5A    -11.257210     6A    -11.254489
       7A    -11.252994     8A    -11.250382     9A    -11.246213
      10A    -11.243582    11A    -11.242637    12A    -11.238951
      13A    -11.237710    14A    -11.233151    15A    -11.228618
      16A    -11.227494    17A     -1.370411    18A     -1.226606
      19A     -1.165050    20A     -1.137267    21A     -1.069638
      22A     -1.034302    23A     -1.020443    24A     -0.998725
      25A     -0.953894    26A     -0.879356    27A     -0.838196
      28A     -0.832876    29A     -0.813576    30A     -0.766464
      31A     -0.711866    32A     -0.692269    33A     -0.686751
      34A     -0.661845    35A     -0.644448    36A     -0.636571
      37A     -0.608871    38A     -0.608091    39A     -0.599633
      40A     -0.592502    41A     -0.584384    42A     -0.583541
      43A     -0.555675    44A     -0.544790    45A     -0.534656
      46A     -0.518636    47A     -0.512284    48A     -0.500907
      49A     -0.493358    50A     -0.481933    51A     -0.452885
      52A     -0.419208    53A     -0.349856    54A     -0.342845
      55A     -0.333844    56A     -0.300808

  @DF-RHF Final Energy:  -667.27354587071261

   => Energetics <=

    Nuclear Repulsion Energy =            992.4224365158237333
    One-Electron Energy =               -2875.9835504655252407
    Two-Electron Energy =                1216.2875680789888975
    Total Energy =                       -667.2735458707124963
  Basis Set: (AUG-CC-PVTZ AUX)
    Blend: AUG-CC-PVTZ-RI
    Molecular point group: c1

    Geometry (in Angstrom), charge = 0, multiplicity = 1:

       Center              X                  Y                   Z               Mass
    ------------   -----------------  -----------------  -----------------  -----------------
         O           -0.512660567555     2.231894789149    -0.295495738630    15.994914619570
         N           -2.975784567555     1.757552789149     0.828974261370    14.003074004430
         C            1.037970432445     0.467070789149    -0.083107738630    12.000000000000
         C           -1.495807567555     0.062111789149    -0.138723738630    12.000000000000
         C           -0.350651567555     1.004840789149    -0.180514738630    12.000000000000
         C            3.716485432445    -0.377303210851     0.172511261370    12.000000000000
         C           -2.823434367555     0.487311089149     0.293991561370    12.000000000000
         C            1.358387432445    -0.633328210851     0.725305261370    12.000000000000
         C            2.064520432445     1.154864789149    -0.745123738630    12.000000000000
         C            2.686075432445    -1.040645210851     0.850962261370    12.000000000000
         C            3.382602432445     0.724118789149    -0.629370738630    12.000000000000
         C           -1.341996567555    -1.242375210851    -0.645120738630    12.000000000000
         C           -3.824132567555    -0.446566210851     0.312089261370    12.000000000000
         C           -2.401889567555    -2.140690210851    -0.667026738630    12.000000000000
         C            5.141015432445    -0.856076210851     0.270527261370    12.000000000000
         C           -3.648632567555    -1.733426210851    -0.181523738630    12.000000000000
         H            0.575546432445    -1.149641210851     1.275153261370     1.007825032230
         H            1.810872432445     2.026517789149    -1.343190738630     1.007825032230
         H            2.927358432445    -1.884139210851     1.496022261370     1.007825032230
         H            4.170694432445     1.258885789149    -1.157465738630     1.007825032230
         H           -0.372428567555    -1.542332210851    -1.033053738630     1.007825032230
         H           -4.801627567555    -0.133584210851     0.676223261370     1.007825032230
         H           -2.265963567555    -3.139309210851    -1.072974738630     1.007825032230
         H            5.843058432445    -0.021532210851     0.187119261370     1.007825032230
         H            5.322182432445    -1.359816210851     1.224171261370     1.007825032230
         H            5.373935432445    -1.566526210851    -0.530389738630     1.007825032230
         H           -4.487913567555    -2.425538210851    -0.178147738630     1.007825032230
         H           -2.347442567555     2.459999789149     0.452705261370     1.007825032230
         H           -3.945383567555     2.050481789149     0.856894261370     1.007825032230

  Basis Set: AUG-CC-PVTZ
    Blend: AUG-CC-PVTZ
  Basis Set: (AUG-CC-PVTZ AUX)
    Blend: AUG-CC-PVTZ-JKFIT
	 Reference Energy          =    -667.2735458707126099 [Eh]
	 Singles Energy            =      -0.0000000000000000 [Eh]
	 Same-Spin Energy          =      -0.7356349985424466 [Eh]
	 Opposite-Spin Energy      =      -2.2656727277093283 [Eh]
	 Correlation Energy        =      -3.0013077262517749 [Eh]
	 Total Energy              =    -670.2748535969643626 [Eh]

	 ================> DF-SCS-MP2 Energies <==================
	-----------------------------------------------------------
	 SCS Same-Spin Scale       =       0.3333333333333333 [-]
	 SCS Opposite-Spin Scale   =       1.2000000000000000 [-]
	 SCS Same-Spin Energy      =      -0.2452116661808155 [Eh]
	 SCS Opposite-Spin Energy  =      -2.7188072732511936 [Eh]
	 SCS Correlation Energy    =      -2.9640189394320093 [Eh]
	 SCS Total Energy          =    -670.2375648101445904 [Eh]
	-----------------------------------------------------------

  Dipole Moment: [D]
     X:     0.3576      Y:    -1.8444      Z:    -0.1186     Total:     1.8825

*** Psi4 exiting successfully. Buy a developer a beer!
