                               Psi4 1.4a3.dev225

  ==> Input File <==

--------------------------------------------------------------------------
#psi4
#
memory 32 gb

molecule  {
0 1
  O       -0.5498120     2.2556960    -0.2996080
  N       -3.0129360     1.7813540     0.8248620
  C        1.0008190     0.4908720    -0.0872200
  C       -1.5329590     0.0859130    -0.1428360
  C       -0.3878030     1.0286420    -0.1846270
  C        3.6793340    -0.3535020     0.1683990
  C       -2.8127890     0.5150010     0.2964470
  C        1.3212360    -0.6095270     0.7211930
  C        2.0273690     1.1786660    -0.7492360
  C        2.6489240    -1.0168440     0.8468500
  C        3.3454510     0.7479200    -0.6334830
  C       -1.3791480    -1.2185740    -0.6492330
  C       -3.8612840    -0.4227650     0.3079770
  C       -2.4390410    -2.1168890    -0.6711390
  C        5.1038640    -0.8322750     0.2664150
  C       -3.5966387    -1.7387454    -0.2203507
  H        0.5383950    -1.1258400     1.2710410
  H        1.7737210     2.0503190    -1.3473030
  H        2.8902070    -1.8603380     1.4919100
  H        4.1335430     1.2826870    -1.1615780
  H       -0.4095800    -1.5185310    -1.0371660
  H       -4.8387790    -0.1097830     0.6721110
  H       -2.3031150    -3.1155080    -1.0770870
  H        5.8059070     0.0022690     0.1830070
  H        5.2850310    -1.3360150     1.2200590
  H        5.3367840    -1.5427250    -0.5345020
  H       -4.5250650    -2.4017370    -0.1822600
  H       -2.3845940     2.4838010     0.4485930
  H       -3.9825350     2.0742830     0.8527820
units angstrom
no_reorient  #important for SAPT in psi4, default
symmetry c1  #important for SAPT in psi4, default
}

set PROPERTIES_ORIGIN ["COM"]
properties('MP2/aug-cc-pvtz', properties = ['dipole'])
--------------------------------------------------------------------------

    Molecular point group: c1
  Charge       = 0
  Multiplicity = 1
  Basis Set: AUG-CC-PVTZ
    Blend: AUG-CC-PVTZ
  Basis Set: (AUG-CC-PVTZ AUX)
    Blend: AUG-CC-PVTZ-JKFIT

    Orbital Energies [Eh]
    ---------------------

    Doubly Occupied:

       1A    -20.539546     2A    -15.556416     3A    -11.340045
       4A    -11.292513     5A    -11.258166     6A    -11.256493
       7A    -11.251497     8A    -11.249159     9A    -11.247213
      10A    -11.244559    11A    -11.242459    12A    -11.239904
      13A    -11.238621    14A    -11.233852    15A    -11.231571
      16A    -11.219035    17A     -1.372436    18A     -1.224199
      19A     -1.166230    20A     -1.145493    21A     -1.071031
      22A     -1.034679    23A     -1.021384    24A     -0.998842
      25A     -0.955241    26A     -0.877748    27A     -0.841263
      28A     -0.838560    29A     -0.808840    30A     -0.766241
      31A     -0.714517    32A     -0.689728    33A     -0.681933
      34A     -0.661452    35A     -0.646502    36A     -0.637825
      37A     -0.618797    38A     -0.602655    39A     -0.599913
      40A     -0.593707    41A     -0.585910    42A     -0.584322
      43A     -0.556600    44A     -0.544115    45A     -0.523834
      46A     -0.520378    47A     -0.511239    48A     -0.502505
      49A     -0.494312    50A     -0.482809    51A     -0.458355
      52A     -0.419569    53A     -0.347354    54A     -0.342675
      55A     -0.334747    56A     -0.304500

  @DF-RHF Final Energy:  -667.26274527719170

   => Energetics <=

    Nuclear Repulsion Energy =            994.0378327591957941
    One-Electron Energy =               -2879.1541737834550077
    Two-Electron Energy =                1217.8535957470676294
    Total Energy =                       -667.2627452771916978
  Basis Set: (AUG-CC-PVTZ AUX)
    Blend: AUG-CC-PVTZ-RI
    Molecular point group: c1

    Geometry (in Angstrom), charge = 0, multiplicity = 1:

       Center              X                  Y                   Z               Mass
    ------------   -----------------  -----------------  -----------------  -----------------
         O           -0.520445065073     2.233329089529    -0.293895717514    15.994914619570
         N           -2.983569065073     1.758987089529     0.830574282486    14.003074004430
         C            1.030185934927     0.468505089529    -0.081507717514    12.000000000000
         C           -1.503592065073     0.063546089529    -0.137123717514    12.000000000000
         C           -0.358436065073     1.006275089529    -0.178914717514    12.000000000000
         C            3.708700934927    -0.375868910471     0.174111282486    12.000000000000
         C           -2.783422065073     0.492634089529     0.302159282486    12.000000000000
         C            1.350602934927    -0.631893910471     0.726905282486    12.000000000000
         C            2.056735934927     1.156299089529    -0.743523717514    12.000000000000
         C            2.678290934927    -1.039210910471     0.852562282486    12.000000000000
         C            3.374817934927     0.725553089529    -0.627770717514    12.000000000000
         C           -1.349781065073    -1.240940910471    -0.643520717514    12.000000000000
         C           -3.831917065073    -0.445131910471     0.313689282486    12.000000000000
         C           -2.409674065073    -2.139255910471    -0.665426717514    12.000000000000
         C            5.133230934927    -0.854641910471     0.272127282486    12.000000000000
         C           -3.567271765073    -1.761112310471    -0.214638417514    12.000000000000
         H            0.567761934927    -1.148206910471     1.276753282486     1.007825032230
         H            1.803087934927     2.027952089529    -1.341590717514     1.007825032230
         H            2.919573934927    -1.882704910471     1.497622282486     1.007825032230
         H            4.162909934927     1.260320089529    -1.155865717514     1.007825032230
         H           -0.380213065073    -1.540897910471    -1.031453717514     1.007825032230
         H           -4.809412065073    -0.132149910471     0.677823282486     1.007825032230
         H           -2.273748065073    -3.137874910471    -1.071374717514     1.007825032230
         H            5.835273934927    -0.020097910471     0.188719282486     1.007825032230
         H            5.314397934927    -1.358381910471     1.225771282486     1.007825032230
         H            5.366150934927    -1.565091910471    -0.528789717514     1.007825032230
         H           -4.495698065073    -2.424103910471    -0.176547717514     1.007825032230
         H           -2.355227065073     2.461434089529     0.454305282486     1.007825032230
         H           -3.953168065073     2.051916089529     0.858494282486     1.007825032230

  Basis Set: AUG-CC-PVTZ
    Blend: AUG-CC-PVTZ
  Basis Set: (AUG-CC-PVTZ AUX)
    Blend: AUG-CC-PVTZ-JKFIT
	 Reference Energy          =    -667.2627452771916978 [Eh]
	 Singles Energy            =      -0.0000000000000000 [Eh]
	 Same-Spin Energy          =      -0.7355774913226520 [Eh]
	 Opposite-Spin Energy      =      -2.2658647095130569 [Eh]
	 Correlation Energy        =      -3.0014422008357089 [Eh]
	 Total Energy              =    -670.2641874780274520 [Eh]

	 ================> DF-SCS-MP2 Energies <==================
	-----------------------------------------------------------
	 SCS Same-Spin Scale       =       0.3333333333333333 [-]
	 SCS Opposite-Spin Scale   =       1.2000000000000000 [-]
	 SCS Same-Spin Energy      =      -0.2451924971075507 [Eh]
	 SCS Opposite-Spin Energy  =      -2.7190376514156682 [Eh]
	 SCS Correlation Energy    =      -2.9642301485232188 [Eh]
	 SCS Total Energy          =    -670.2269754257149543 [Eh]
	-----------------------------------------------------------

  Dipole Moment: [D]
     X:     0.4960      Y:    -1.8260      Z:    -0.1458     Total:     1.8978

*** Psi4 exiting successfully. Buy a developer a beer!
