                               Psi4 1.4a3.dev225

  ==> Input File <==

--------------------------------------------------------------------------
#psi4
#
memory 32 gb

molecule  {
0 1
  O       -0.5498120     2.2556960    -0.2996080
  N       -3.0129360     1.7813540     0.8248620
  C        1.0008190     0.4908720    -0.0872200
  C       -1.5329590     0.0859130    -0.1428360
  C       -0.3878030     1.0286420    -0.1846270
  C        3.6793340    -0.3535020     0.1683990
  C       -2.8127890     0.5150010     0.2964470
  C        1.3212360    -0.6095270     0.7211930
  C        2.0273690     1.1786660    -0.7492360
  C        2.6489240    -1.0168440     0.8468500
  C        3.3454510     0.7479200    -0.6334830
  C       -1.3791480    -1.2185740    -0.6492330
  C       -3.8612840    -0.4227650     0.3079770
  C       -2.4390410    -2.1168890    -0.6711390
  C        5.1038640    -0.8322750     0.2664150
  C       -3.6857840    -1.7096250    -0.1856360
  H        0.5383950    -1.1258400     1.2710410
  H        1.7737210     2.0503190    -1.3473030
  H        2.8902070    -1.8603380     1.4919100
  H        4.1335430     1.2826870    -1.1615780
  H       -0.4095800    -1.5185310    -1.0371660
  H       -4.8387790    -0.1097830     0.6721110
  H       -2.3031150    -3.1155080    -1.0770870
  H        5.8059070     0.0022690     0.1830070
  H        5.3181625    -1.4281381     1.3944598
  H        5.3367840    -1.5427250    -0.5345020
  H       -4.5250650    -2.4017370    -0.1822600
  H       -2.3845940     2.4838010     0.4485930
  H       -3.9825350     2.0742830     0.8527820
units angstrom
no_reorient  #important for SAPT in psi4, default
symmetry c1  #important for SAPT in psi4, default
}

set PROPERTIES_ORIGIN ["COM"]
properties('MP2/aug-cc-pvtz', properties = ['dipole'])
--------------------------------------------------------------------------

    Molecular point group: c1
  Charge       = 0
  Multiplicity = 1
  Basis Set: AUG-CC-PVTZ
    Blend: AUG-CC-PVTZ
  Basis Set: (AUG-CC-PVTZ AUX)
    Blend: AUG-CC-PVTZ-JKFIT

    Orbital Energies [Eh]
    ---------------------

    Doubly Occupied:

       1A    -20.538572     2A    -15.560325     3A    -11.339025
       4A    -11.297229     5A    -11.259381     6A    -11.255799
       7A    -11.253017     8A    -11.252604     9A    -11.251009
      10A    -11.247317    11A    -11.244453    12A    -11.239671
      13A    -11.239622    14A    -11.239479    15A    -11.232248
      16A    -11.228593    17A     -1.371610    18A     -1.226871
      19A     -1.165946    20A     -1.137430    21A     -1.068812
      22A     -1.034012    23A     -1.021435    24A     -0.996793
      25A     -0.947391    26A     -0.875466    27A     -0.839429
      28A     -0.835875    29A     -0.812037    30A     -0.766549
      31A     -0.712952    32A     -0.691785    33A     -0.686502
      34A     -0.662005    35A     -0.642498    36A     -0.637174
      37A     -0.614233    38A     -0.604137    39A     -0.599917
      40A     -0.593249    41A     -0.585021    42A     -0.583495
      43A     -0.551582    44A     -0.535168    45A     -0.522111
      46A     -0.516952    47A     -0.512690    48A     -0.505566
      49A     -0.489872    50A     -0.480279    51A     -0.452596
      52A     -0.419482    53A     -0.350157    54A     -0.343808
      55A     -0.334558    56A     -0.300667

  @DF-RHF Final Energy:  -667.25631597625556

   => Energetics <=

    Nuclear Repulsion Energy =            992.0975063976592310
    One-Electron Energy =               -2875.2947341905414760
    Two-Electron Energy =                1215.9409118166265671
    Total Energy =                       -667.2563159762555642
  Basis Set: (AUG-CC-PVTZ AUX)
    Blend: AUG-CC-PVTZ-RI
    Molecular point group: c1

    Geometry (in Angstrom), charge = 0, multiplicity = 1:

       Center              X                  Y                   Z               Mass
    ------------   -----------------  -----------------  -----------------  -----------------
         O           -0.515535760246     2.232113546273    -0.296701699012    15.994914619570
         N           -2.978659760246     1.757771546273     0.827768300988    14.003074004430
         C            1.035095239754     0.467289546273    -0.084313699012    12.000000000000
         C           -1.498682760246     0.062330546273    -0.139929699012    12.000000000000
         C           -0.353526760246     1.005059546273    -0.181720699012    12.000000000000
         C            3.713610239754    -0.377084453727     0.171305300988    12.000000000000
         C           -2.778512760246     0.491418546273     0.299353300988    12.000000000000
         C            1.355512239754    -0.633109453727     0.724099300988    12.000000000000
         C            2.061645239754     1.155083546273    -0.746329699012    12.000000000000
         C            2.683200239754    -1.040426453727     0.849756300988    12.000000000000
         C            3.379727239754     0.724337546273    -0.630576699012    12.000000000000
         C           -1.344871760246    -1.242156453727    -0.646326699012    12.000000000000
         C           -3.827007760246    -0.446347453727     0.310883300988    12.000000000000
         C           -2.404764760246    -2.140471453727    -0.668232699012    12.000000000000
         C            5.138140239754    -0.855857453727     0.269321300988    12.000000000000
         C           -3.651507760246    -1.733207453727    -0.182729699012    12.000000000000
         H            0.572671239754    -1.149422453727     1.273947300988     1.007825032230
         H            1.807997239754     2.026736546273    -1.344396699012     1.007825032230
         H            2.924483239754    -1.883920453727     1.494816300988     1.007825032230
         H            4.167819239754     1.259104546273    -1.158671699012     1.007825032230
         H           -0.375303760246    -1.542113453727    -1.034259699012     1.007825032230
         H           -4.804502760246    -0.133365453727     0.675017300988     1.007825032230
         H           -2.268838760246    -3.139090453727    -1.074180699012     1.007825032230
         H            5.840183239754    -0.021313453727     0.185913300988     1.007825032230
         H            5.352438739754    -1.451720553727     1.397366100988     1.007825032230
         H            5.371060239754    -1.566307453727    -0.531595699012     1.007825032230
         H           -4.490788760246    -2.425319453727    -0.179353699012     1.007825032230
         H           -2.350317760246     2.460218546273     0.451499300988     1.007825032230
         H           -3.948258760246     2.050700546273     0.855688300988     1.007825032230

  Basis Set: AUG-CC-PVTZ
    Blend: AUG-CC-PVTZ
  Basis Set: (AUG-CC-PVTZ AUX)
    Blend: AUG-CC-PVTZ-JKFIT
	 Reference Energy          =    -667.2563159762555642 [Eh]
	 Singles Energy            =      -0.0000000000000000 [Eh]
	 Same-Spin Energy          =      -0.7355887048751097 [Eh]
	 Opposite-Spin Energy      =      -2.2672201946999659 [Eh]
	 Correlation Energy        =      -3.0028088995750757 [Eh]
	 Total Energy              =    -670.2591248758305937 [Eh]

	 ================> DF-SCS-MP2 Energies <==================
	-----------------------------------------------------------
	 SCS Same-Spin Scale       =       0.3333333333333333 [-]
	 SCS Opposite-Spin Scale   =       1.2000000000000000 [-]
	 SCS Same-Spin Energy      =      -0.2451962349583699 [Eh]
	 SCS Opposite-Spin Energy  =      -2.7206642336399591 [Eh]
	 SCS Correlation Energy    =      -2.9658604685983292 [Eh]
	 SCS Total Energy          =    -670.2221764448538579 [Eh]
	-----------------------------------------------------------

  Dipole Moment: [D]
     X:     0.2545      Y:    -1.7465      Z:    -0.1984     Total:     1.7760

*** Psi4 exiting successfully. Buy a developer a beer!
