                               Psi4 1.4a3.dev225

  ==> Input File <==

--------------------------------------------------------------------------
#psi4
#
memory 32 gb

molecule  {
0 1
  O       -0.5498120     2.2556960    -0.2996080
  N       -3.0129360     1.7813540     0.8248620
  C        1.0008190     0.4908720    -0.0872200
  C       -1.5329590     0.0859130    -0.1428360
  C       -0.3878030     1.0286420    -0.1846270
  C        3.6793340    -0.3535020     0.1683990
  C       -2.8127890     0.5150010     0.2964470
  C        1.3212360    -0.6095270     0.7211930
  C        2.0273690     1.1786660    -0.7492360
  C        2.6489240    -1.0168440     0.8468500
  C        3.3454510     0.7479200    -0.6334830
  C       -1.3791480    -1.2185740    -0.6492330
  C       -3.8612840    -0.4227650     0.3079770
  C       -2.4390410    -2.1168890    -0.6711390
  C        5.1038640    -0.8322750     0.2664150
  C       -3.6857840    -1.7096250    -0.1856360
  H        0.5383950    -1.1258400     1.2710410
  H        1.7737210     2.0503190    -1.3473030
  H        2.8902070    -1.8603380     1.4919100
  H        4.1335430     1.2826870    -1.1615780
  H       -0.4095800    -1.5185310    -1.0371660
  H       -4.8387790    -0.1097830     0.6721110
  H       -2.3031150    -3.1155080    -1.0770870
  H        5.8059070     0.0022690     0.1830070
  H        5.2850310    -1.3360150     1.2200590
  H        5.3367840    -1.5427250    -0.5345020
  H       -4.5250650    -2.4017370    -0.1822600
  H       -2.3845940     2.4838010     0.4485930
  H       -3.9825350     2.0742830     0.8527820
units angstrom
no_reorient  #important for SAPT in psi4, default
symmetry c1  #important for SAPT in psi4, default
}

set PROPERTIES_ORIGIN ["COM"]
properties('MP2/aug-cc-pvtz', properties = ['dipole'])
--------------------------------------------------------------------------

    Molecular point group: c1
  Charge       = 0
  Multiplicity = 1
  Basis Set: AUG-CC-PVTZ
    Blend: AUG-CC-PVTZ
  Basis Set: (AUG-CC-PVTZ AUX)
    Blend: AUG-CC-PVTZ-JKFIT

    Orbital Energies [Eh]
    ---------------------

    Doubly Occupied:

       1A    -20.538009     2A    -15.560021     3A    -11.338480
       4A    -11.296897     5A    -11.257337     6A    -11.252723
       7A    -11.252254     8A    -11.250587     9A    -11.246324
      10A    -11.243552    11A    -11.239110    12A    -11.239101
      13A    -11.237808    14A    -11.233231    15A    -11.231960
      16A    -11.228297    17A     -1.371069    18A     -1.226557
      19A     -1.165198    20A     -1.137104    21A     -1.069565
      22A     -1.034568    23A     -1.020605    24A     -0.996548
      25A     -0.954600    26A     -0.876995    27A     -0.838848
      28A     -0.836454    29A     -0.813096    30A     -0.766171
      31A     -0.712740    32A     -0.691773    33A     -0.686209
      34A     -0.661233    35A     -0.645215    36A     -0.636486
      37A     -0.614223    38A     -0.603704    39A     -0.599834
      40A     -0.592656    41A     -0.584755    42A     -0.583805
      43A     -0.555814    44A     -0.544668    45A     -0.531895
      46A     -0.518042    47A     -0.513236    48A     -0.504854
      49A     -0.493494    50A     -0.482044    51A     -0.452291
      52A     -0.418920    53A     -0.349723    54A     -0.343085
      55A     -0.333969    56A     -0.300356

  @DF-RHF Final Energy:  -667.27659530476808

   => Energetics <=

    Nuclear Repulsion Energy =            992.8821444710603146
    One-Electron Energy =               -2876.9012918671805892
    Two-Electron Energy =                1216.7425520913523087
    Total Energy =                       -667.2765953047680796
  Basis Set: (AUG-CC-PVTZ AUX)
    Blend: AUG-CC-PVTZ-RI
    Molecular point group: c1

    Geometry (in Angstrom), charge = 0, multiplicity = 1:

       Center              X                  Y                   Z               Mass
    ------------   -----------------  -----------------  -----------------  -----------------
         O           -0.515377584973     2.231673735320    -0.295869080680    15.994914619570
         N           -2.978501584973     1.757331735320     0.828600919320    14.003074004430
         C            1.035253415027     0.466849735320    -0.083481080680    12.000000000000
         C           -1.498524584973     0.061890735320    -0.139097080680    12.000000000000
         C           -0.353368584973     1.004619735320    -0.180888080680    12.000000000000
         C            3.713768415027    -0.377524264680     0.172137919320    12.000000000000
         C           -2.778354584973     0.490978735320     0.300185919320    12.000000000000
         C            1.355670415027    -0.633549264680     0.724931919320    12.000000000000
         C            2.061803415027     1.154643735320    -0.745497080680    12.000000000000
         C            2.683358415027    -1.040866264680     0.850588919320    12.000000000000
         C            3.379885415027     0.723897735320    -0.629744080680    12.000000000000
         C           -1.344713584973    -1.242596264680    -0.645494080680    12.000000000000
         C           -3.826849584973    -0.446787264680     0.311715919320    12.000000000000
         C           -2.404606584973    -2.140911264680    -0.667400080680    12.000000000000
         C            5.138298415027    -0.856297264680     0.270153919320    12.000000000000
         C           -3.651349584973    -1.733647264680    -0.181897080680    12.000000000000
         H            0.572829415027    -1.149862264680     1.274779919320     1.007825032230
         H            1.808155415027     2.026296735320    -1.343564080680     1.007825032230
         H            2.924641415027    -1.884360264680     1.495648919320     1.007825032230
         H            4.167977415027     1.258664735320    -1.157839080680     1.007825032230
         H           -0.375145584973    -1.542553264680    -1.033427080680     1.007825032230
         H           -4.804344584973    -0.133805264680     0.675849919320     1.007825032230
         H           -2.268680584973    -3.139530264680    -1.073348080680     1.007825032230
         H            5.840341415027    -0.021753264680     0.186745919320     1.007825032230
         H            5.319465415027    -1.360037264680     1.223797919320     1.007825032230
         H            5.371218415027    -1.566747264680    -0.530763080680     1.007825032230
         H           -4.490630584973    -2.425759264680    -0.178521080680     1.007825032230
         H           -2.350159584973     2.459778735320     0.452331919320     1.007825032230
         H           -3.948100584973     2.050260735320     0.856520919320     1.007825032230

  Basis Set: AUG-CC-PVTZ
    Blend: AUG-CC-PVTZ
  Basis Set: (AUG-CC-PVTZ AUX)
    Blend: AUG-CC-PVTZ-JKFIT
	 Reference Energy          =    -667.2765953047680796 [Eh]
	 Singles Energy            =      -0.0000000000000000 [Eh]
	 Same-Spin Energy          =      -0.7355219370159229 [Eh]
	 Opposite-Spin Energy      =      -2.2655099787498578 [Eh]
	 Correlation Energy        =      -3.0010319157657808 [Eh]
	 Total Energy              =    -670.2776272205338728 [Eh]

	 ================> DF-SCS-MP2 Energies <==================
	-----------------------------------------------------------
	 SCS Same-Spin Scale       =       0.3333333333333333 [-]
	 SCS Opposite-Spin Scale   =       1.2000000000000000 [-]
	 SCS Same-Spin Energy      =      -0.2451739790053076 [Eh]
	 SCS Opposite-Spin Energy  =      -2.7186119744998294 [Eh]
	 SCS Correlation Energy    =      -2.9637859535051372 [Eh]
	 SCS Total Energy          =    -670.2403812582732598 [Eh]
	-----------------------------------------------------------

  Dipole Moment: [D]
     X:     0.3523      Y:    -1.8147      Z:    -0.1055     Total:     1.8516

*** Psi4 exiting successfully. Buy a developer a beer!
