                               Psi4 1.4a3.dev225

  ==> Input File <==

--------------------------------------------------------------------------
#psi4
#
memory 32 gb

molecule  {
0 1
  O       -0.5498120     2.2556960    -0.2996080
  N       -3.0129360     1.7813540     0.8248620
  C        1.0008190     0.4908720    -0.0872200
  C       -1.5329590     0.0859130    -0.1428360
  C       -0.3878030     1.0286420    -0.1846270
  C        3.6793340    -0.3535020     0.1683990
  C       -2.8127890     0.5150010     0.2964470
  C        1.3212360    -0.6095270     0.7211930
  C        2.0273690     1.1786660    -0.7492360
  C        2.6489240    -1.0168440     0.8468500
  C        3.3454510     0.7479200    -0.6334830
  C       -1.3791480    -1.2185740    -0.6492330
  C       -3.8612840    -0.4227650     0.3079770
  C       -2.4390410    -2.1168890    -0.6711390
  C        5.1038640    -0.8322750     0.2664150
  C       -3.6857840    -1.7096250    -0.1856360
  H        0.5383950    -1.1258400     1.2710410
  H        1.7737210     2.0503190    -1.3473030
  H        2.8902070    -1.8603380     1.4919100
  H        4.1335430     1.2826870    -1.1615780
  H       -0.4095800    -1.5185310    -1.0371660
  H       -4.8387790    -0.1097830     0.6721110
  H       -2.3031150    -3.1155080    -1.0770870
  H        5.7738136    -0.0358816     0.1868199
  H        5.2850310    -1.3360150     1.2200590
  H        5.3367840    -1.5427250    -0.5345020
  H       -4.5250650    -2.4017370    -0.1822600
  H       -2.3845940     2.4838010     0.4485930
  H       -3.9825350     2.0742830     0.8527820
units angstrom
no_reorient  #important for SAPT in psi4, default
symmetry c1  #important for SAPT in psi4, default
}

set PROPERTIES_ORIGIN ["COM"]
properties('MP2/aug-cc-pvtz', properties = ['dipole'])
--------------------------------------------------------------------------

    Molecular point group: c1
  Charge       = 0
  Multiplicity = 1
  Basis Set: AUG-CC-PVTZ
    Blend: AUG-CC-PVTZ
  Basis Set: (AUG-CC-PVTZ AUX)
    Blend: AUG-CC-PVTZ-JKFIT

    Orbital Energies [Eh]
    ---------------------

    Doubly Occupied:

       1A    -20.537918     2A    -15.559964     3A    -11.338390
       4A    -11.296832     5A    -11.256955     6A    -11.252663
       7A    -11.252184     8A    -11.250411     9A    -11.246262
      10A    -11.243406    11A    -11.239038    12A    -11.238767
      13A    -11.237747    14A    -11.231900    15A    -11.228234
      16A    -11.227152    17A     -1.370982    18A     -1.226497
      19A     -1.165130    20A     -1.137047    21A     -1.070184
      22A     -1.034867    23A     -1.020522    24A     -0.996519
      25A     -0.957599    26A     -0.877529    27A     -0.838789
      28A     -0.837043    29A     -0.813255    30A     -0.766130
      31A     -0.712671    32A     -0.691847    33A     -0.686159
      34A     -0.662193    35A     -0.645101    36A     -0.636898
      37A     -0.614369    38A     -0.603622    39A     -0.599803
      40A     -0.592520    41A     -0.587083    42A     -0.584496
      43A     -0.557162    44A     -0.547457    45A     -0.532273
      46A     -0.518461    47A     -0.513085    48A     -0.504674
      49A     -0.493515    50A     -0.482120    51A     -0.452234
      52A     -0.418828    53A     -0.349654    54A     -0.342981
      55A     -0.333883    56A     -0.300295

  @DF-RHF Final Energy:  -667.27565517493861

   => Energetics <=

    Nuclear Repulsion Energy =            993.1117774305325838
    One-Electron Energy =               -2877.3482576733363203
    Two-Electron Energy =                1216.9608250678650165
    Total Energy =                       -667.2756551749387199
  Basis Set: (AUG-CC-PVTZ AUX)
    Blend: AUG-CC-PVTZ-RI
    Molecular point group: c1

    Geometry (in Angstrom), charge = 0, multiplicity = 1:

       Center              X                  Y                   Z               Mass
    ------------   -----------------  -----------------  -----------------  -----------------
         O           -0.515224365760     2.231855872610    -0.295887284096    15.994914619570
         N           -2.978348365760     1.757513872610     0.828582715904    14.003074004430
         C            1.035406634240     0.467031872610    -0.083499284096    12.000000000000
         C           -1.498371365760     0.062072872610    -0.139115284096    12.000000000000
         C           -0.353215365760     1.004801872610    -0.180906284096    12.000000000000
         C            3.713921634240    -0.377342127390     0.172119715904    12.000000000000
         C           -2.778201365760     0.491160872610     0.300167715904    12.000000000000
         C            1.355823634240    -0.633367127390     0.724913715904    12.000000000000
         C            2.061956634240     1.154825872610    -0.745515284096    12.000000000000
         C            2.683511634240    -1.040684127390     0.850570715904    12.000000000000
         C            3.380038634240     0.724079872610    -0.629762284096    12.000000000000
         C           -1.344560365760    -1.242414127390    -0.645512284096    12.000000000000
         C           -3.826696365760    -0.446605127390     0.311697715904    12.000000000000
         C           -2.404453365760    -2.140729127390    -0.667418284096    12.000000000000
         C            5.138451634240    -0.856115127390     0.270135715904    12.000000000000
         C           -3.651196365760    -1.733465127390    -0.181915284096    12.000000000000
         H            0.572982634240    -1.149680127390     1.274761715904     1.007825032230
         H            1.808308634240     2.026478872610    -1.343582284096     1.007825032230
         H            2.924794634240    -1.884178127390     1.495630715904     1.007825032230
         H            4.168130634240     1.258846872610    -1.157857284096     1.007825032230
         H           -0.374992365760    -1.542371127390    -1.033445284096     1.007825032230
         H           -4.804191365760    -0.133623127390     0.675831715904     1.007825032230
         H           -2.268527365760    -3.139348127390    -1.073366284096     1.007825032230
         H            5.808401234240    -0.059721727390     0.190540615904     1.007825032230
         H            5.319618634240    -1.359855127390     1.223779715904     1.007825032230
         H            5.371371634240    -1.566565127390    -0.530781284096     1.007825032230
         H           -4.490477365760    -2.425577127390    -0.178539284096     1.007825032230
         H           -2.350006365760     2.459960872610     0.452313715904     1.007825032230
         H           -3.947947365760     2.050442872610     0.856502715904     1.007825032230

  Basis Set: AUG-CC-PVTZ
    Blend: AUG-CC-PVTZ
  Basis Set: (AUG-CC-PVTZ AUX)
    Blend: AUG-CC-PVTZ-JKFIT
	 Reference Energy          =    -667.2756551749386063 [Eh]
	 Singles Energy            =      -0.0000000000000000 [Eh]
	 Same-Spin Energy          =      -0.7355150410829768 [Eh]
	 Opposite-Spin Energy      =      -2.2652127769635979 [Eh]
	 Correlation Energy        =      -3.0007278180465748 [Eh]
	 Total Energy              =    -670.2763829929851909 [Eh]

	 ================> DF-SCS-MP2 Energies <==================
	-----------------------------------------------------------
	 SCS Same-Spin Scale       =       0.3333333333333333 [-]
	 SCS Opposite-Spin Scale   =       1.2000000000000000 [-]
	 SCS Same-Spin Energy      =      -0.2451716803609923 [Eh]
	 SCS Opposite-Spin Energy  =      -2.7182553323563172 [Eh]
	 SCS Correlation Energy    =      -2.9634270127173097 [Eh]
	 SCS Total Energy          =    -670.2390821876558675 [Eh]
	-----------------------------------------------------------

  Dipole Moment: [D]
     X:     0.3782      Y:    -1.8055      Z:    -0.1065     Total:     1.8478

*** Psi4 exiting successfully. Buy a developer a beer!
