                               Psi4 1.4a3.dev225

  ==> Input File <==

--------------------------------------------------------------------------
#psi4
#
memory 32 gb

molecule  {
0 1
  O       -0.5498120     2.2556960    -0.2996080
  N       -3.0129360     1.7813540     0.8248620
  C        1.0008190     0.4908720    -0.0872200
  C       -1.5329590     0.0859130    -0.1428360
  C       -0.3878030     1.0286420    -0.1846270
  C        3.6793340    -0.3535020     0.1683990
  C       -2.8127890     0.5150010     0.2964470
  C        1.3212360    -0.6095270     0.7211930
  C        2.0273690     1.1786660    -0.7492360
  C        2.6965306    -1.0314491     0.8513557
  C        3.3454510     0.7479200    -0.6334830
  C       -1.3791480    -1.2185740    -0.6492330
  C       -3.8612840    -0.4227650     0.3079770
  C       -2.4390410    -2.1168890    -0.6711390
  C        5.1038640    -0.8322750     0.2664150
  C       -3.6857840    -1.7096250    -0.1856360
  H        0.5383950    -1.1258400     1.2710410
  H        1.7737210     2.0503190    -1.3473030
  H        2.8902070    -1.8603380     1.4919100
  H        4.1335430     1.2826870    -1.1615780
  H       -0.4095800    -1.5185310    -1.0371660
  H       -4.8387790    -0.1097830     0.6721110
  H       -2.3031150    -3.1155080    -1.0770870
  H        5.8059070     0.0022690     0.1830070
  H        5.2850310    -1.3360150     1.2200590
  H        5.3367840    -1.5427250    -0.5345020
  H       -4.5250650    -2.4017370    -0.1822600
  H       -2.3845940     2.4838010     0.4485930
  H       -3.9825350     2.0742830     0.8527820
units angstrom
no_reorient  #important for SAPT in psi4, default
symmetry c1  #important for SAPT in psi4, default
}

set PROPERTIES_ORIGIN ["COM"]
properties('MP2/aug-cc-pvtz', properties = ['dipole'])
--------------------------------------------------------------------------

    Molecular point group: c1
  Charge       = 0
  Multiplicity = 1
  Basis Set: AUG-CC-PVTZ
    Blend: AUG-CC-PVTZ
  Basis Set: (AUG-CC-PVTZ AUX)
    Blend: AUG-CC-PVTZ-JKFIT

    Orbital Energies [Eh]
    ---------------------

    Doubly Occupied:

       1A    -20.538625     2A    -15.560251     3A    -11.339064
       4A    -11.297136     5A    -11.256486     6A    -11.254111
       7A    -11.252926     8A    -11.252396     9A    -11.246407
      10A    -11.244325    11A    -11.239427    12A    -11.239388
      13A    -11.238163    14A    -11.232142    15A    -11.231338
      16A    -11.228442    17A     -1.371656    18A     -1.226791
      19A     -1.163725    20A     -1.137331    21A     -1.071428
      22A     -1.035421    23A     -1.015338    24A     -0.996684
      25A     -0.953050    26A     -0.877003    27A     -0.842823
      28A     -0.836448    29A     -0.812702    30A     -0.766473
      31A     -0.713119    32A     -0.691578    33A     -0.686501
      34A     -0.659735    35A     -0.644898    36A     -0.639727
      37A     -0.614185    38A     -0.604249    39A     -0.601997
      40A     -0.592136    41A     -0.584845    42A     -0.583427
      43A     -0.556002    44A     -0.543194    45A     -0.531822
      46A     -0.516945    47A     -0.510784    48A     -0.501721
      49A     -0.500113    50A     -0.481021    51A     -0.452468
      52A     -0.418978    53A     -0.349378    54A     -0.339070
      55A     -0.337542    56A     -0.300566

  @DF-RHF Final Energy:  -667.27352998588026

   => Energetics <=

    Nuclear Repulsion Energy =            992.3148971942481467
    One-Electron Energy =               -2875.7498506390465991
    Two-Electron Energy =                1216.1614234589180796
    Total Energy =                       -667.2735299858802591
  Basis Set: (AUG-CC-PVTZ AUX)
    Blend: AUG-CC-PVTZ-RI
    Molecular point group: c1

    Geometry (in Angstrom), charge = 0, multiplicity = 1:

       Center              X                  Y                   Z               Mass
    ------------   -----------------  -----------------  -----------------  -----------------
         O           -0.518083790439     2.232503964773    -0.296125207981    15.994914619570
         N           -2.981207790439     1.758161964773     0.828344792019    14.003074004430
         C            1.032547209561     0.467679964773    -0.083737207981    12.000000000000
         C           -1.501230790439     0.062720964773    -0.139353207981    12.000000000000
         C           -0.356074790439     1.005449964773    -0.181144207981    12.000000000000
         C            3.711062209561    -0.376694035227     0.171881792019    12.000000000000
         C           -2.781060790439     0.491808964773     0.299929792019    12.000000000000
         C            1.352964209561    -0.632719035227     0.724675792019    12.000000000000
         C            2.059097209561     1.155473964773    -0.745753207981    12.000000000000
         C            2.728258809561    -1.054641135227     0.854838492019    12.000000000000
         C            3.377179209561     0.724727964773    -0.630000207981    12.000000000000
         C           -1.347419790439    -1.241766035227    -0.645750207981    12.000000000000
         C           -3.829555790439    -0.445957035227     0.311459792019    12.000000000000
         C           -2.407312790439    -2.140081035227    -0.667656207981    12.000000000000
         C            5.135592209561    -0.855467035227     0.269897792019    12.000000000000
         C           -3.654055790439    -1.732817035227    -0.182153207981    12.000000000000
         H            0.570123209561    -1.149032035227     1.274523792019     1.007825032230
         H            1.805449209561     2.027126964773    -1.343820207981     1.007825032230
         H            2.921935209561    -1.883530035227     1.495392792019     1.007825032230
         H            4.165271209561     1.259494964773    -1.158095207981     1.007825032230
         H           -0.377851790439    -1.541723035227    -1.033683207981     1.007825032230
         H           -4.807050790439    -0.132975035227     0.675593792019     1.007825032230
         H           -2.271386790439    -3.138700035227    -1.073604207981     1.007825032230
         H            5.837635209561    -0.020923035227     0.186489792019     1.007825032230
         H            5.316759209561    -1.359207035227     1.223541792019     1.007825032230
         H            5.368512209561    -1.565917035227    -0.531019207981     1.007825032230
         H           -4.493336790439    -2.424929035227    -0.178777207981     1.007825032230
         H           -2.352865790439     2.460608964773     0.452075792019     1.007825032230
         H           -3.950806790439     2.051090964773     0.856264792019     1.007825032230

  Basis Set: AUG-CC-PVTZ
    Blend: AUG-CC-PVTZ
  Basis Set: (AUG-CC-PVTZ AUX)
    Blend: AUG-CC-PVTZ-JKFIT
	 Reference Energy          =    -667.2735299858802591 [Eh]
	 Singles Energy            =      -0.0000000000000000 [Eh]
	 Same-Spin Energy          =      -0.7353885104094314 [Eh]
	 Opposite-Spin Energy      =      -2.2657526913861603 [Eh]
	 Correlation Energy        =      -3.0011412017955919 [Eh]
	 Total Energy              =    -670.2746711876758354 [Eh]

	 ================> DF-SCS-MP2 Energies <==================
	-----------------------------------------------------------
	 SCS Same-Spin Scale       =       0.3333333333333333 [-]
	 SCS Opposite-Spin Scale   =       1.2000000000000000 [-]
	 SCS Same-Spin Energy      =      -0.2451295034698105 [Eh]
	 SCS Opposite-Spin Energy  =      -2.7189032296633924 [Eh]
	 SCS Correlation Energy    =      -2.9640327331332030 [Eh]
	 SCS Total Energy          =    -670.2375627190134537 [Eh]
	-----------------------------------------------------------

  Dipole Moment: [D]
     X:     0.3051      Y:    -1.8177      Z:    -0.0966     Total:     1.8457

*** Psi4 exiting successfully. Buy a developer a beer!
