                               Psi4 1.4a3.dev225

  ==> Input File <==

--------------------------------------------------------------------------
#psi4
#
memory 32 gb

molecule  {
0 1
  O       -0.5498120     2.2556960    -0.2996080
  N       -3.0129360     1.7813540     0.8248620
  C        1.0008190     0.4908720    -0.0872200
  C       -1.5329590     0.0859130    -0.1428360
  C       -0.3878030     1.0286420    -0.1846270
  C        3.6793340    -0.3535020     0.1683990
  C       -2.9029480     0.5452286     0.3273928
  C        1.3212360    -0.6095270     0.7211930
  C        2.0273690     1.1786660    -0.7492360
  C        2.6489240    -1.0168440     0.8468500
  C        3.3454510     0.7479200    -0.6334830
  C       -1.3791480    -1.2185740    -0.6492330
  C       -3.8612840    -0.4227650     0.3079770
  C       -2.4390410    -2.1168890    -0.6711390
  C        5.1038640    -0.8322750     0.2664150
  C       -3.6857840    -1.7096250    -0.1856360
  H        0.5383950    -1.1258400     1.2710410
  H        1.7737210     2.0503190    -1.3473030
  H        2.8902070    -1.8603380     1.4919100
  H        4.1335430     1.2826870    -1.1615780
  H       -0.4095800    -1.5185310    -1.0371660
  H       -4.8387790    -0.1097830     0.6721110
  H       -2.3031150    -3.1155080    -1.0770870
  H        5.8059070     0.0022690     0.1830070
  H        5.2850310    -1.3360150     1.2200590
  H        5.3367840    -1.5427250    -0.5345020
  H       -4.5250650    -2.4017370    -0.1822600
  H       -2.3845940     2.4838010     0.4485930
  H       -3.9825350     2.0742830     0.8527820
units angstrom
no_reorient  #important for SAPT in psi4, default
symmetry c1  #important for SAPT in psi4, default
}

set PROPERTIES_ORIGIN ["COM"]
properties('MP2/aug-cc-pvtz', properties = ['dipole'])
--------------------------------------------------------------------------

    Molecular point group: c1
  Charge       = 0
  Multiplicity = 1
  Basis Set: AUG-CC-PVTZ
    Blend: AUG-CC-PVTZ
  Basis Set: (AUG-CC-PVTZ AUX)
    Blend: AUG-CC-PVTZ-JKFIT

    Orbital Energies [Eh]
    ---------------------

    Doubly Occupied:

       1A    -20.535747     2A    -15.566572     3A    -11.336767
       4A    -11.299826     5A    -11.256378     6A    -11.254934
       7A    -11.252464     8A    -11.249304     9A    -11.245274
      10A    -11.244161    11A    -11.242482    12A    -11.238112
      13A    -11.236940    14A    -11.232577    15A    -11.225721
      16A    -11.223950    17A     -1.369218    18A     -1.245856
      19A     -1.164129    20A     -1.136212    21A     -1.068410
      22A     -1.031858    23A     -1.019398    24A     -0.996550
      25A     -0.952112    26A     -0.879396    27A     -0.837231
      28A     -0.828218    29A     -0.814481    30A     -0.765669
      31A     -0.712125    32A     -0.700262    33A     -0.693978
      34A     -0.663064    35A     -0.644638    36A     -0.636954
      37A     -0.612832    38A     -0.601182    39A     -0.598247
      40A     -0.591546    41A     -0.583287    42A     -0.581874
      43A     -0.556293    44A     -0.546047    45A     -0.536164
      46A     -0.520685    47A     -0.510552    48A     -0.493781
      49A     -0.491698    50A     -0.481554    51A     -0.458005
      52A     -0.416571    53A     -0.349103    54A     -0.341951
      55A     -0.332991    56A     -0.294697

  @DF-RHF Final Energy:  -667.26453429763251

   => Energetics <=

    Nuclear Repulsion Energy =            991.8157256111594506
    One-Electron Energy =               -2874.7604683101808405
    Two-Electron Energy =                1215.6802084013888816
    Total Energy =                       -667.2645342976325082
  Basis Set: (AUG-CC-PVTZ AUX)
    Blend: AUG-CC-PVTZ-RI
    Molecular point group: c1

    Geometry (in Angstrom), charge = 0, multiplicity = 1:

       Center              X                  Y                   Z               Mass
    ------------   -----------------  -----------------  -----------------  -----------------
         O           -0.510252480920     2.229955442135    -0.297628200069    15.994914619570
         N           -2.973376480920     1.755613442135     0.826841799931    14.003074004430
         C            1.040378519080     0.465131442135    -0.085240200069    12.000000000000
         C           -1.493399480920     0.060172442135    -0.140856200069    12.000000000000
         C           -0.348243480920     1.002901442135    -0.182647200069    12.000000000000
         C            3.718893519080    -0.379242557865     0.170378799931    12.000000000000
         C           -2.863388480920     0.519488042135     0.329372599931    12.000000000000
         C            1.360795519080    -0.635267557865     0.723172799931    12.000000000000
         C            2.066928519080     1.152925442135    -0.747256200069    12.000000000000
         C            2.688483519080    -1.042584557865     0.848829799931    12.000000000000
         C            3.385010519080     0.722179442135    -0.631503200069    12.000000000000
         C           -1.339588480920    -1.244314557865    -0.647253200069    12.000000000000
         C           -3.821724480920    -0.448505557865     0.309956799931    12.000000000000
         C           -2.399481480920    -2.142629557865    -0.669159200069    12.000000000000
         C            5.143423519080    -0.858015557865     0.268394799931    12.000000000000
         C           -3.646224480920    -1.735365557865    -0.183656200069    12.000000000000
         H            0.577954519080    -1.151580557865     1.273020799931     1.007825032230
         H            1.813280519080     2.024578442135    -1.345323200069     1.007825032230
         H            2.929766519080    -1.886078557865     1.493889799931     1.007825032230
         H            4.173102519080     1.256946442135    -1.159598200069     1.007825032230
         H           -0.370020480920    -1.544271557865    -1.035186200069     1.007825032230
         H           -4.799219480920    -0.135523557865     0.674090799931     1.007825032230
         H           -2.263555480920    -3.141248557865    -1.075107200069     1.007825032230
         H            5.845466519080    -0.023471557865     0.184986799931     1.007825032230
         H            5.324590519080    -1.361755557865     1.222038799931     1.007825032230
         H            5.376343519080    -1.568465557865    -0.532522200069     1.007825032230
         H           -4.485505480920    -2.427477557865    -0.180280200069     1.007825032230
         H           -2.345034480920     2.458060442135     0.450572799931     1.007825032230
         H           -3.942975480920     2.048542442135     0.854761799931     1.007825032230

  Basis Set: AUG-CC-PVTZ
    Blend: AUG-CC-PVTZ
  Basis Set: (AUG-CC-PVTZ AUX)
    Blend: AUG-CC-PVTZ-JKFIT
	 Reference Energy          =    -667.2645342976325082 [Eh]
	 Singles Energy            =      -0.0000000000000000 [Eh]
	 Same-Spin Energy          =      -0.7359874164430198 [Eh]
	 Opposite-Spin Energy      =      -2.2660351508594023 [Eh]
	 Correlation Energy        =      -3.0020225673024221 [Eh]
	 Total Energy              =    -670.2665568649349552 [Eh]

	 ================> DF-SCS-MP2 Energies <==================
	-----------------------------------------------------------
	 SCS Same-Spin Scale       =       0.3333333333333333 [-]
	 SCS Opposite-Spin Scale   =       1.2000000000000000 [-]
	 SCS Same-Spin Energy      =      -0.2453291388143399 [Eh]
	 SCS Opposite-Spin Energy  =      -2.7192421810312828 [Eh]
	 SCS Correlation Energy    =      -2.9645713198456227 [Eh]
	 SCS Total Energy          =    -670.2291056174781261 [Eh]
	-----------------------------------------------------------

  Dipole Moment: [D]
     X:     0.2384      Y:    -1.5670      Z:     0.0090     Total:     1.5850

*** Psi4 exiting successfully. Buy a developer a beer!
