                               Psi4 1.4a3.dev225

  ==> Input File <==

--------------------------------------------------------------------------
#psi4
#
memory 32 gb

molecule  {
0 1
  O       -0.5498120     2.2556960    -0.2996080
  N       -3.0129360     1.7813540     0.8248620
  C        1.0008190     0.4908720    -0.0872200
  C       -1.5329590     0.0859130    -0.1428360
  C       -0.3878030     1.0286420    -0.1846270
  C        3.6793340    -0.3535020     0.1683990
  C       -2.8127890     0.5150010     0.2964470
  C        1.3212360    -0.6095270     0.7211930
  C        2.0273690     1.1786660    -0.7492360
  C        2.6489240    -1.0168440     0.8468500
  C        3.3454510     0.7479200    -0.6334830
  C       -1.3791480    -1.2185740    -0.6492330
  C       -3.8612840    -0.4227650     0.3079770
  C       -2.4390410    -2.1168890    -0.6711390
  C        5.1038640    -0.8322750     0.2664150
  C       -3.7325702    -1.7185820    -0.1765368
  H        0.5383950    -1.1258400     1.2710410
  H        1.7737210     2.0503190    -1.3473030
  H        2.8902070    -1.8603380     1.4919100
  H        4.1335430     1.2826870    -1.1615780
  H       -0.4095800    -1.5185310    -1.0371660
  H       -4.8387790    -0.1097830     0.6721110
  H       -2.3031150    -3.1155080    -1.0770870
  H        5.8059070     0.0022690     0.1830070
  H        5.2850310    -1.3360150     1.2200590
  H        5.3367840    -1.5427250    -0.5345020
  H       -4.5250650    -2.4017370    -0.1822600
  H       -2.3845940     2.4838010     0.4485930
  H       -3.9825350     2.0742830     0.8527820
units angstrom
no_reorient  #important for SAPT in psi4, default
symmetry c1  #important for SAPT in psi4, default
}

set PROPERTIES_ORIGIN ["COM"]
properties('MP2/aug-cc-pvtz', properties = ['dipole'])
--------------------------------------------------------------------------

    Molecular point group: c1
  Charge       = 0
  Multiplicity = 1
  Basis Set: AUG-CC-PVTZ
    Blend: AUG-CC-PVTZ
  Basis Set: (AUG-CC-PVTZ AUX)
    Blend: AUG-CC-PVTZ-JKFIT

    Orbital Energies [Eh]
    ---------------------

    Doubly Occupied:

       1A    -20.537803     2A    -15.560859     3A    -11.338169
       4A    -11.298175     5A    -11.257154     6A    -11.254633
       7A    -11.251086     8A    -11.250384     9A    -11.246137
      10A    -11.243341    11A    -11.238913    12A    -11.238718
      13A    -11.237623    14A    -11.233987    15A    -11.233084
      16A    -11.232264    17A     -1.370856    18A     -1.226853
      19A     -1.164959    20A     -1.133179    21A     -1.069052
      22A     -1.034853    23A     -1.020508    24A     -0.993602
      25A     -0.954588    26A     -0.879133    27A     -0.838272
      28A     -0.835219    29A     -0.813542    30A     -0.766051
      31A     -0.711988    32A     -0.696803    33A     -0.686997
      34A     -0.661132    35A     -0.644631    36A     -0.635871
      37A     -0.614642    38A     -0.604294    39A     -0.599443
      40A     -0.592289    41A     -0.584135    42A     -0.582458
      43A     -0.555516    44A     -0.547084    45A     -0.537893
      46A     -0.518041    47A     -0.511720    48A     -0.500290
      49A     -0.493299    50A     -0.481357    51A     -0.449578
      52A     -0.418949    53A     -0.350260    54A     -0.343019
      55A     -0.333791    56A     -0.298259

  @DF-RHF Final Energy:  -667.27299334211830

   => Energetics <=

    Nuclear Repulsion Energy =            991.9731389655266867
    One-Electron Energy =               -2875.0787938446987937
    Two-Electron Energy =                1215.8326615370538093
    Total Energy =                       -667.2729933421182977
  Basis Set: (AUG-CC-PVTZ AUX)
    Blend: AUG-CC-PVTZ-RI
    Molecular point group: c1

    Geometry (in Angstrom), charge = 0, multiplicity = 1:

       Center              X                  Y                   Z               Mass
    ------------   -----------------  -----------------  -----------------  -----------------
         O           -0.512718015288     2.232182897545    -0.296386326288    15.994914619570
         N           -2.975842015288     1.757840897545     0.828083673712    14.003074004430
         C            1.037912984712     0.467358897545    -0.083998326288    12.000000000000
         C           -1.495865015288     0.062399897545    -0.139614326288    12.000000000000
         C           -0.350709015288     1.005128897545    -0.181405326288    12.000000000000
         C            3.716427984712    -0.377015102455     0.171620673712    12.000000000000
         C           -2.775695015288     0.491487897545     0.299668673712    12.000000000000
         C            1.358329984712    -0.633040102455     0.724414673712    12.000000000000
         C            2.064462984712     1.155152897545    -0.746014326288    12.000000000000
         C            2.686017984712    -1.040357102455     0.850071673712    12.000000000000
         C            3.382544984712     0.724406897545    -0.630261326288    12.000000000000
         C           -1.342054015288    -1.242087102455    -0.646011326288    12.000000000000
         C           -3.824190015288    -0.446278102455     0.311198673712    12.000000000000
         C           -2.401947015288    -2.140402102455    -0.667917326288    12.000000000000
         C            5.140957984712    -0.855788102455     0.269636673712    12.000000000000
         C           -3.695476215288    -1.742095102455    -0.173315126288    12.000000000000
         H            0.575488984712    -1.149353102455     1.274262673712     1.007825032230
         H            1.810814984712     2.026805897545    -1.344081326288     1.007825032230
         H            2.927300984712    -1.883851102455     1.495131673712     1.007825032230
         H            4.170636984712     1.259173897545    -1.158356326288     1.007825032230
         H           -0.372486015288    -1.542044102455    -1.033944326288     1.007825032230
         H           -4.801685015288    -0.133296102455     0.675332673712     1.007825032230
         H           -2.266021015288    -3.139021102455    -1.073865326288     1.007825032230
         H            5.843000984712    -0.021244102455     0.186228673712     1.007825032230
         H            5.322124984712    -1.359528102455     1.223280673712     1.007825032230
         H            5.373877984712    -1.566238102455    -0.531280326288     1.007825032230
         H           -4.487971015288    -2.425250102455    -0.179038326288     1.007825032230
         H           -2.347500015288     2.460287897545     0.451814673712     1.007825032230
         H           -3.945441015288     2.050769897545     0.856003673712     1.007825032230

  Basis Set: AUG-CC-PVTZ
    Blend: AUG-CC-PVTZ
  Basis Set: (AUG-CC-PVTZ AUX)
    Blend: AUG-CC-PVTZ-JKFIT
	 Reference Energy          =    -667.2729933421182977 [Eh]
	 Singles Energy            =      -0.0000000000000000 [Eh]
	 Same-Spin Energy          =      -0.7355498760391561 [Eh]
	 Opposite-Spin Energy      =      -2.2660143127269308 [Eh]
	 Correlation Energy        =      -3.0015641887660869 [Eh]
	 Total Energy              =    -670.2745575308844082 [Eh]

	 ================> DF-SCS-MP2 Energies <==================
	-----------------------------------------------------------
	 SCS Same-Spin Scale       =       0.3333333333333333 [-]
	 SCS Opposite-Spin Scale   =       1.2000000000000000 [-]
	 SCS Same-Spin Energy      =      -0.2451832920130520 [Eh]
	 SCS Opposite-Spin Energy  =      -2.7192171752723167 [Eh]
	 SCS Correlation Energy    =      -2.9644004672853685 [Eh]
	 SCS Total Energy          =    -670.2373938094036703 [Eh]
	-----------------------------------------------------------

  Dipole Moment: [D]
     X:     0.3220      Y:    -1.8169      Z:    -0.0958     Total:     1.8477

*** Psi4 exiting successfully. Buy a developer a beer!
