                               Psi4 1.4a3.dev225

  ==> Input File <==

--------------------------------------------------------------------------
#psi4
#
memory 32 gb

molecule  {
0 1
  O       -0.5498120     2.2556960    -0.2996080
  N       -3.0129360     1.7813540     0.8248620
  C        1.0008190     0.4908720    -0.0872200
  C       -1.5800616     0.0757139    -0.1332537
  C       -0.3878030     1.0286420    -0.1846270
  C        3.6793340    -0.3535020     0.1683990
  C       -2.8127890     0.5150010     0.2964470
  C        1.3212360    -0.6095270     0.7211930
  C        2.0273690     1.1786660    -0.7492360
  C        2.6489240    -1.0168440     0.8468500
  C        3.3454510     0.7479200    -0.6334830
  C       -1.3791480    -1.2185740    -0.6492330
  C       -3.8612840    -0.4227650     0.3079770
  C       -2.4390410    -2.1168890    -0.6711390
  C        5.1038640    -0.8322750     0.2664150
  C       -3.6857840    -1.7096250    -0.1856360
  H        0.5383950    -1.1258400     1.2710410
  H        1.7737210     2.0503190    -1.3473030
  H        2.8902070    -1.8603380     1.4919100
  H        4.1335430     1.2826870    -1.1615780
  H       -0.4095800    -1.5185310    -1.0371660
  H       -4.8387790    -0.1097830     0.6721110
  H       -2.3031150    -3.1155080    -1.0770870
  H        5.8059070     0.0022690     0.1830070
  H        5.2850310    -1.3360150     1.2200590
  H        5.3367840    -1.5427250    -0.5345020
  H       -4.5250650    -2.4017370    -0.1822600
  H       -2.3845940     2.4838010     0.4485930
  H       -3.9825350     2.0742830     0.8527820
units angstrom
no_reorient  #important for SAPT in psi4, default
symmetry c1  #important for SAPT in psi4, default
}

set PROPERTIES_ORIGIN ["COM"]
properties('MP2/aug-cc-pvtz', properties = ['dipole'])
--------------------------------------------------------------------------

    Molecular point group: c1
  Charge       = 0
  Multiplicity = 1
  Basis Set: AUG-CC-PVTZ
    Blend: AUG-CC-PVTZ
  Basis Set: (AUG-CC-PVTZ AUX)
    Blend: AUG-CC-PVTZ-JKFIT

    Orbital Energies [Eh]
    ---------------------

    Doubly Occupied:

       1A    -20.540146     2A    -15.557761     3A    -11.341582
       4A    -11.289568     5A    -11.258154     6A    -11.251497
       7A    -11.250134     8A    -11.249756     9A    -11.247399
      10A    -11.244982    11A    -11.239819    12A    -11.238552
      13A    -11.238210    14A    -11.233778    15A    -11.232105
      16A    -11.228323    17A     -1.371754    18A     -1.227091
      19A     -1.165849    20A     -1.137716    21A     -1.068758
      22A     -1.032362    23A     -1.021152    24A     -0.998563
      25A     -0.955629    26A     -0.871676    27A     -0.841278
      28A     -0.838353    29A     -0.812695    30A     -0.765519
      31A     -0.712890    32A     -0.689127    33A     -0.684526
      34A     -0.660964    35A     -0.645682    36A     -0.636853
      37A     -0.616652    38A     -0.603365    39A     -0.599303
      40A     -0.593489    41A     -0.585197    42A     -0.583710
      43A     -0.556344    44A     -0.545543    45A     -0.529323
      46A     -0.519283    47A     -0.514386    48A     -0.507787
      49A     -0.494203    50A     -0.482717    51A     -0.451239
      52A     -0.415962    53A     -0.348694    54A     -0.343422
      55A     -0.334736    56A     -0.302477

  @DF-RHF Final Energy:  -667.27441025142707

   => Energetics <=

    Nuclear Repulsion Energy =            992.8208021820173599
    One-Electron Energy =               -2876.7743590985446644
    Two-Electron Energy =                1216.6791466651002338
    Total Energy =                       -667.2744102514270708
  Basis Set: (AUG-CC-PVTZ AUX)
    Blend: AUG-CC-PVTZ-RI
    Molecular point group: c1

    Geometry (in Angstrom), charge = 0, multiplicity = 1:

       Center              X                  Y                   Z               Mass
    ------------   -----------------  -----------------  -----------------  -----------------
         O           -0.512700029474     2.232253504936    -0.296413788192    15.994914619570
         N           -2.975824029474     1.757911504936     0.828056211808    14.003074004430
         C            1.037930970526     0.467429504936    -0.084025788192    12.000000000000
         C           -1.542949629474     0.052271404936    -0.130059488192    12.000000000000
         C           -0.350691029474     1.005199504936    -0.181432788192    12.000000000000
         C            3.716445970526    -0.376944495064     0.171593211808    12.000000000000
         C           -2.775677029474     0.491558504936     0.299641211808    12.000000000000
         C            1.358347970526    -0.632969495064     0.724387211808    12.000000000000
         C            2.064480970526     1.155223504936    -0.746041788192    12.000000000000
         C            2.686035970526    -1.040286495064     0.850044211808    12.000000000000
         C            3.382562970526     0.724477504936    -0.630288788192    12.000000000000
         C           -1.342036029474    -1.242016495064    -0.646038788192    12.000000000000
         C           -3.824172029474    -0.446207495064     0.311171211808    12.000000000000
         C           -2.401929029474    -2.140331495064    -0.667944788192    12.000000000000
         C            5.140975970526    -0.855717495064     0.269609211808    12.000000000000
         C           -3.648672029474    -1.733067495064    -0.182441788192    12.000000000000
         H            0.575506970526    -1.149282495064     1.274235211808     1.007825032230
         H            1.810832970526     2.026876504936    -1.344108788192     1.007825032230
         H            2.927318970526    -1.883780495064     1.495104211808     1.007825032230
         H            4.170654970526     1.259244504936    -1.158383788192     1.007825032230
         H           -0.372468029474    -1.541973495064    -1.033971788192     1.007825032230
         H           -4.801667029474    -0.133225495064     0.675305211808     1.007825032230
         H           -2.266003029474    -3.138950495064    -1.073892788192     1.007825032230
         H            5.843018970526    -0.021173495064     0.186201211808     1.007825032230
         H            5.322142970526    -1.359457495064     1.223253211808     1.007825032230
         H            5.373895970526    -1.566167495064    -0.531307788192     1.007825032230
         H           -4.487953029474    -2.425179495064    -0.179065788192     1.007825032230
         H           -2.347482029474     2.460358504936     0.451787211808     1.007825032230
         H           -3.945423029474     2.050840504936     0.855976211808     1.007825032230

  Basis Set: AUG-CC-PVTZ
    Blend: AUG-CC-PVTZ
  Basis Set: (AUG-CC-PVTZ AUX)
    Blend: AUG-CC-PVTZ-JKFIT
	 Reference Energy          =    -667.2744102514270708 [Eh]
	 Singles Energy            =      -0.0000000000000000 [Eh]
	 Same-Spin Energy          =      -0.7353034869834359 [Eh]
	 Opposite-Spin Energy      =      -2.2653563538140280 [Eh]
	 Correlation Energy        =      -3.0006598407974638 [Eh]
	 Total Energy              =    -670.2750700922244960 [Eh]

	 ================> DF-SCS-MP2 Energies <==================
	-----------------------------------------------------------
	 SCS Same-Spin Scale       =       0.3333333333333333 [-]
	 SCS Opposite-Spin Scale   =       1.2000000000000000 [-]
	 SCS Same-Spin Energy      =      -0.2451011623278120 [Eh]
	 SCS Opposite-Spin Energy  =      -2.7184276245768335 [Eh]
	 SCS Correlation Energy    =      -2.9635287869046456 [Eh]
	 SCS Total Energy          =    -670.2379390383316604 [Eh]
	-----------------------------------------------------------

  Dipole Moment: [D]
     X:     0.5241      Y:    -1.7896      Z:    -0.1345     Total:     1.8696

*** Psi4 exiting successfully. Buy a developer a beer!
