                               Psi4 1.4a3.dev225

  ==> Input File <==

--------------------------------------------------------------------------
#psi4
#
memory 32 gb

molecule  {
0 1
  O       -0.5498120     2.2556960    -0.2996080
  N       -3.0129360     1.7813540     0.8248620
  C        1.0008190     0.4908720    -0.0872200
  C       -1.5329590     0.0859130    -0.1428360
  C       -0.3878030     1.0286420    -0.1846270
  C        3.6793340    -0.3535020     0.1683990
  C       -2.8127890     0.5150010     0.2964470
  C        1.3212360    -0.6095270     0.7211930
  C        2.0273690     1.1786660    -0.7492360
  C        2.6489240    -1.0168440     0.8468500
  C        3.3454510     0.7479200    -0.6334830
  C       -1.3791480    -1.2185740    -0.6492330
  C       -3.7213967    -0.3995237     0.2756978
  C       -2.4390410    -2.1168890    -0.6711390
  C        5.1038640    -0.8322750     0.2664150
  C       -3.6857840    -1.7096250    -0.1856360
  H        0.5383950    -1.1258400     1.2710410
  H        1.7737210     2.0503190    -1.3473030
  H        2.8902070    -1.8603380     1.4919100
  H        4.1335430     1.2826870    -1.1615780
  H       -0.4095800    -1.5185310    -1.0371660
  H       -4.8387790    -0.1097830     0.6721110
  H       -2.3031150    -3.1155080    -1.0770870
  H        5.8059070     0.0022690     0.1830070
  H        5.2850310    -1.3360150     1.2200590
  H        5.3367840    -1.5427250    -0.5345020
  H       -4.5250650    -2.4017370    -0.1822600
  H       -2.3845940     2.4838010     0.4485930
  H       -3.9825350     2.0742830     0.8527820
units angstrom
no_reorient  #important for SAPT in psi4, default
symmetry c1  #important for SAPT in psi4, default
}

set PROPERTIES_ORIGIN ["COM"]
properties('MP2/aug-cc-pvtz', properties = ['dipole'])
--------------------------------------------------------------------------

    Molecular point group: c1
  Charge       = 0
  Multiplicity = 1
  Basis Set: AUG-CC-PVTZ
    Blend: AUG-CC-PVTZ
  Basis Set: (AUG-CC-PVTZ AUX)
    Blend: AUG-CC-PVTZ-JKFIT

    Orbital Energies [Eh]
    ---------------------

    Doubly Occupied:

       1A    -20.539603     2A    -15.554503     3A    -11.339045
       4A    -11.278644     5A    -11.257757     6A    -11.255514
       7A    -11.252089     8A    -11.251022     9A    -11.246749
      10A    -11.243976    11A    -11.242932    12A    -11.239494
      13A    -11.238207    14A    -11.233560    15A    -11.231968
      16A    -11.229874    17A     -1.372209    18A     -1.230769
      19A     -1.165732    20A     -1.143915    21A     -1.070437
      22A     -1.033967    23A     -1.020804    24A     -1.010766
      25A     -0.955403    26A     -0.886493    27A     -0.838647
      28A     -0.832025    29A     -0.813664    30A     -0.767286
      31A     -0.711874    32A     -0.691857    33A     -0.686342
      34A     -0.662378    35A     -0.643870    36A     -0.637666
      37A     -0.617441    38A     -0.607688    39A     -0.596257
      40A     -0.592562    41A     -0.584808    42A     -0.572409
      43A     -0.560477    44A     -0.549991    45A     -0.541466
      46A     -0.522653    47A     -0.511292    48A     -0.494098
      49A     -0.486848    50A     -0.474129    51A     -0.452079
      52A     -0.419681    53A     -0.349097    54A     -0.342927
      55A     -0.334426    56A     -0.310627

  @DF-RHF Final Energy:  -667.24883165767187

   => Energetics <=

    Nuclear Repulsion Energy =            996.0644338205513577
    One-Electron Energy =               -2883.1625388392180867
    Two-Electron Energy =                1219.8492733609948573
    Total Energy =                       -667.2488316576718717
  Basis Set: (AUG-CC-PVTZ AUX)
    Blend: AUG-CC-PVTZ-RI
    Molecular point group: c1

    Geometry (in Angstrom), charge = 0, multiplicity = 1:

       Center              X                  Y                   Z               Mass
    ------------   -----------------  -----------------  -----------------  -----------------
         O           -0.523329502897     2.230352579575    -0.294034163935    15.994914619570
         N           -2.986453502897     1.756010579575     0.830435836065    14.003074004430
         C            1.027301497103     0.465528579575    -0.081646163935    12.000000000000
         C           -1.506476502897     0.060569579575    -0.137262163935    12.000000000000
         C           -0.361320502897     1.003298579575    -0.179053163935    12.000000000000
         C            3.705816497103    -0.378845420425     0.173972836065    12.000000000000
         C           -2.786306502897     0.489657579575     0.302020836065    12.000000000000
         C            1.347718497103    -0.634870420425     0.726766836065    12.000000000000
         C            2.053851497103     1.153322579575    -0.743662163935    12.000000000000
         C            2.675406497103    -1.042187420425     0.852423836065    12.000000000000
         C            3.371933497103     0.722576579575    -0.627909163935    12.000000000000
         C           -1.352665502897    -1.243917420425    -0.643659163935    12.000000000000
         C           -3.694914202897    -0.424867120425     0.281271636065    12.000000000000
         C           -2.412558502897    -2.142232420425    -0.665565163935    12.000000000000
         C            5.130346497103    -0.857618420425     0.271988836065    12.000000000000
         C           -3.659301502897    -1.734968420425    -0.180062163935    12.000000000000
         H            0.564877497103    -1.151183420425     1.276614836065     1.007825032230
         H            1.800203497103     2.024975579575    -1.341729163935     1.007825032230
         H            2.916689497103    -1.885681420425     1.497483836065     1.007825032230
         H            4.160025497103     1.257343579575    -1.156004163935     1.007825032230
         H           -0.383097502897    -1.543874420425    -1.031592163935     1.007825032230
         H           -4.812296502897    -0.135126420425     0.677684836065     1.007825032230
         H           -2.276632502897    -3.140851420425    -1.071513163935     1.007825032230
         H            5.832389497103    -0.023074420425     0.188580836065     1.007825032230
         H            5.311513497103    -1.361358420425     1.225632836065     1.007825032230
         H            5.363266497103    -1.568068420425    -0.528928163935     1.007825032230
         H           -4.498582502897    -2.427080420425    -0.176686163935     1.007825032230
         H           -2.358111502897     2.458457579575     0.454166836065     1.007825032230
         H           -3.956052502897     2.048939579575     0.858355836065     1.007825032230

  Basis Set: AUG-CC-PVTZ
    Blend: AUG-CC-PVTZ
  Basis Set: (AUG-CC-PVTZ AUX)
    Blend: AUG-CC-PVTZ-JKFIT
	 Reference Energy          =    -667.2488316576718717 [Eh]
	 Singles Energy            =      -0.0000000000000000 [Eh]
	 Same-Spin Energy          =      -0.7367447801747072 [Eh]
	 Opposite-Spin Energy      =      -2.2674404206748608 [Eh]
	 Correlation Energy        =      -3.0041852008495682 [Eh]
	 Total Energy              =    -670.2530168585213914 [Eh]

	 ================> DF-SCS-MP2 Energies <==================
	-----------------------------------------------------------
	 SCS Same-Spin Scale       =       0.3333333333333333 [-]
	 SCS Opposite-Spin Scale   =       1.2000000000000000 [-]
	 SCS Same-Spin Energy      =      -0.2455815933915691 [Eh]
	 SCS Opposite-Spin Energy  =      -2.7209285048098328 [Eh]
	 SCS Correlation Energy    =      -2.9665100982014021 [Eh]
	 SCS Total Energy          =    -670.2153417558732826 [Eh]
	-----------------------------------------------------------

  Dipole Moment: [D]
     X:     0.5422      Y:    -2.0519      Z:    -0.2432     Total:     2.1362

*** Psi4 exiting successfully. Buy a developer a beer!
