                               Psi4 1.4a3.dev225

  ==> Input File <==

--------------------------------------------------------------------------
#psi4
#
memory 32 gb

molecule  {
0 1
  O       -0.5498120     2.2556960    -0.2996080
  N       -3.0129360     1.7813540     0.8248620
  C        1.0008190     0.4908720    -0.0872200
  C       -1.5329590     0.0859130    -0.1428360
  C       -0.3878030     1.0286420    -0.1846270
  C        3.6793340    -0.3535020     0.1683990
  C       -2.8127890     0.5150010     0.2964470
  C        1.3212360    -0.6095270     0.7211930
  C        2.0273690     1.1786660    -0.7492360
  C        2.7514981    -1.1089837     0.8967060
  C        3.3454510     0.7479200    -0.6334830
  C       -1.3791480    -1.2185740    -0.6492330
  C       -3.8612840    -0.4227650     0.3079770
  C       -2.4390410    -2.1168890    -0.6711390
  C        5.1038640    -0.8322750     0.2664150
  C       -3.6857840    -1.7096250    -0.1856360
  H        0.5383950    -1.1258400     1.2710410
  H        1.7737210     2.0503190    -1.3473030
  H        2.8902070    -1.8603380     1.4919100
  H        4.1335430     1.2826870    -1.1615780
  H       -0.4095800    -1.5185310    -1.0371660
  H       -4.8387790    -0.1097830     0.6721110
  H       -2.3031150    -3.1155080    -1.0770870
  H        5.8059070     0.0022690     0.1830070
  H        5.2850310    -1.3360150     1.2200590
  H        5.3367840    -1.5427250    -0.5345020
  H       -4.5250650    -2.4017370    -0.1822600
  H       -2.3845940     2.4838010     0.4485930
  H       -3.9825350     2.0742830     0.8527820
units angstrom
no_reorient  #important for SAPT in psi4, default
symmetry c1  #important for SAPT in psi4, default
}

set PROPERTIES_ORIGIN ["COM"]
properties('MP2/aug-cc-pvtz', properties = ['dipole'])
--------------------------------------------------------------------------

    Molecular point group: c1
  Charge       = 0
  Multiplicity = 1
  Basis Set: AUG-CC-PVTZ
    Blend: AUG-CC-PVTZ
  Basis Set: (AUG-CC-PVTZ AUX)
    Blend: AUG-CC-PVTZ-JKFIT

    Orbital Energies [Eh]
    ---------------------

    Doubly Occupied:

       1A    -20.539021     2A    -15.560280     3A    -11.339904
       4A    -11.297123     5A    -11.265168     6A    -11.259233
       7A    -11.252886     8A    -11.252263     9A    -11.249108
      10A    -11.245266    11A    -11.242322    12A    -11.239395
      13A    -11.238895    14A    -11.232075    15A    -11.228768
      16A    -11.228319    17A     -1.372145    18A     -1.226807
      19A     -1.157241    20A     -1.136956    21A     -1.071549
      22A     -1.036103    23A     -1.010787    24A     -0.996498
      25A     -0.949810    26A     -0.876114    27A     -0.849981
      28A     -0.834363    29A     -0.812635    30A     -0.770844
      31A     -0.714715    32A     -0.691625    33A     -0.687236
      34A     -0.659439    35A     -0.653522    36A     -0.641387
      37A     -0.613869    38A     -0.606576    39A     -0.603111
      40A     -0.592255    41A     -0.584960    42A     -0.581754
      43A     -0.556471    44A     -0.542619    45A     -0.531637
      46A     -0.515913    47A     -0.510905    48A     -0.507506
      49A     -0.487471    50A     -0.477183    51A     -0.452188
      52A     -0.418589    53A     -0.349052    54A     -0.339269
      55A     -0.332513    56A     -0.300523

  @DF-RHF Final Energy:  -667.24757019847505

   => Energetics <=

    Nuclear Repulsion Energy =            990.4015188055740282
    One-Electron Energy =               -2871.8498766129196156
    Two-Electron Energy =                1214.2007876088705416
    Total Energy =                       -667.2475701984749321
  Basis Set: (AUG-CC-PVTZ AUX)
    Blend: AUG-CC-PVTZ-RI
    Molecular point group: c1

    Geometry (in Angstrom), charge = 0, multiplicity = 1:

       Center              X                  Y                   Z               Mass
    ------------   -----------------  -----------------  -----------------  -----------------
         O           -0.521208427547     2.236911432610    -0.298703153680    15.994914619570
         N           -2.984332427547     1.762569432610     0.825766846320    14.003074004430
         C            1.029422572453     0.472087432610    -0.086315153680    12.000000000000
         C           -1.504355427547     0.067128432610    -0.141931153680    12.000000000000
         C           -0.359199427547     1.009857432610    -0.183722153680    12.000000000000
         C            3.707937572453    -0.372286567390     0.169303846320    12.000000000000
         C           -2.784185427547     0.496216432610     0.297351846320    12.000000000000
         C            1.349839572453    -0.628311567390     0.722097846320    12.000000000000
         C            2.055972572453     1.159881432610    -0.748331153680    12.000000000000
         C            2.780101672453    -1.127768267390     0.897610846320    12.000000000000
         C            3.374054572453     0.729135432610    -0.632578153680    12.000000000000
         C           -1.350544427547    -1.237358567390    -0.648328153680    12.000000000000
         C           -3.832680427547    -0.441549567390     0.308881846320    12.000000000000
         C           -2.410437427547    -2.135673567390    -0.670234153680    12.000000000000
         C            5.132467572453    -0.851059567390     0.267319846320    12.000000000000
         C           -3.657180427547    -1.728409567390    -0.184731153680    12.000000000000
         H            0.566998572453    -1.144624567390     1.271945846320     1.007825032230
         H            1.802324572453     2.031534432610    -1.346398153680     1.007825032230
         H            2.918810572453    -1.879122567390     1.492814846320     1.007825032230
         H            4.162146572453     1.263902432610    -1.160673153680     1.007825032230
         H           -0.380976427547    -1.537315567390    -1.036261153680     1.007825032230
         H           -4.810175427547    -0.128567567390     0.673015846320     1.007825032230
         H           -2.274511427547    -3.134292567390    -1.076182153680     1.007825032230
         H            5.834510572453    -0.016515567390     0.183911846320     1.007825032230
         H            5.313634572453    -1.354799567390     1.220963846320     1.007825032230
         H            5.365387572453    -1.561509567390    -0.533597153680     1.007825032230
         H           -4.496461427547    -2.420521567390    -0.181355153680     1.007825032230
         H           -2.355990427547     2.465016432610     0.449497846320     1.007825032230
         H           -3.953931427547     2.055498432610     0.853686846320     1.007825032230

  Basis Set: AUG-CC-PVTZ
    Blend: AUG-CC-PVTZ
  Basis Set: (AUG-CC-PVTZ AUX)
    Blend: AUG-CC-PVTZ-JKFIT
	 Reference Energy          =    -667.2475701984750458 [Eh]
	 Singles Energy            =      -0.0000000000000000 [Eh]
	 Same-Spin Energy          =      -0.7354293743411712 [Eh]
	 Opposite-Spin Energy      =      -2.2674103031005153 [Eh]
	 Correlation Energy        =      -3.0028396774416866 [Eh]
	 Total Energy              =    -670.2504098759167164 [Eh]

	 ================> DF-SCS-MP2 Energies <==================
	-----------------------------------------------------------
	 SCS Same-Spin Scale       =       0.3333333333333333 [-]
	 SCS Opposite-Spin Scale   =       1.2000000000000000 [-]
	 SCS Same-Spin Energy      =      -0.2451431247803904 [Eh]
	 SCS Opposite-Spin Energy  =      -2.7208923637206182 [Eh]
	 SCS Correlation Energy    =      -2.9660354885010087 [Eh]
	 SCS Total Energy          =    -670.2136056869760523 [Eh]
	-----------------------------------------------------------

  Dipole Moment: [D]
     X:     0.2697      Y:    -1.8206      Z:    -0.0848     Total:     1.8424

*** Psi4 exiting successfully. Buy a developer a beer!
