                               Psi4 1.4a3.dev225

  ==> Input File <==

--------------------------------------------------------------------------
#psi4
#
memory 32 gb

molecule  {
0 1
  O       -0.5498120     2.2556960    -0.2996080
  N       -3.0129360     1.7813540     0.8248620
  C        1.0008190     0.4908720    -0.0872200
  C       -1.5329590     0.0859130    -0.1428360
  C       -0.3878030     1.0286420    -0.1846270
  C        3.6793340    -0.3535020     0.1683990
  C       -2.8127890     0.5150010     0.2964470
  C        1.3212360    -0.6095270     0.7211930
  C        2.0273690     1.1786660    -0.7492360
  C        2.6489240    -1.0168440     0.8468500
  C        3.3454510     0.7479200    -0.6334830
  C       -1.3791480    -1.2185740    -0.6492330
  C       -3.8240168    -0.3894335     0.3075672
  C       -2.4390410    -2.1168890    -0.6711390
  C        5.1038640    -0.8322750     0.2664150
  C       -3.6857840    -1.7096250    -0.1856360
  H        0.5383950    -1.1258400     1.2710410
  H        1.7737210     2.0503190    -1.3473030
  H        2.8902070    -1.8603380     1.4919100
  H        4.1335430     1.2826870    -1.1615780
  H       -0.4095800    -1.5185310    -1.0371660
  H       -4.8387790    -0.1097830     0.6721110
  H       -2.3031150    -3.1155080    -1.0770870
  H        5.8059070     0.0022690     0.1830070
  H        5.2850310    -1.3360150     1.2200590
  H        5.3367840    -1.5427250    -0.5345020
  H       -4.5250650    -2.4017370    -0.1822600
  H       -2.3845940     2.4838010     0.4485930
  H       -3.9825350     2.0742830     0.8527820
units angstrom
no_reorient  #important for SAPT in psi4, default
symmetry c1  #important for SAPT in psi4, default
}

set PROPERTIES_ORIGIN ["COM"]
properties('MP2/aug-cc-pvtz', properties = ['dipole'])
--------------------------------------------------------------------------

    Molecular point group: c1
  Charge       = 0
  Multiplicity = 1
  Basis Set: AUG-CC-PVTZ
    Blend: AUG-CC-PVTZ
  Basis Set: (AUG-CC-PVTZ AUX)
    Blend: AUG-CC-PVTZ-JKFIT

    Orbital Energies [Eh]
    ---------------------

    Doubly Occupied:

       1A    -20.538465     2A    -15.555965     3A    -11.338825
       4A    -11.288798     5A    -11.257526     6A    -11.256505
       7A    -11.253203     8A    -11.250780     9A    -11.246516
      10A    -11.243786    11A    -11.240900    12A    -11.239281
      13A    -11.237992    14A    -11.233379    15A    -11.230292
      16A    -11.230034    17A     -1.371387    18A     -1.227138
      19A     -1.165396    20A     -1.137154    21A     -1.069396
      22A     -1.032729    23A     -1.020494    24A     -1.001460
      25A     -0.954694    26A     -0.879959    27A     -0.838554
      28A     -0.835736    29A     -0.812484    30A     -0.766718
      31A     -0.712102    32A     -0.691412    33A     -0.685088
      34A     -0.661247    35A     -0.644510    36A     -0.635742
      37A     -0.613953    38A     -0.607476    39A     -0.598609
      40A     -0.592668    41A     -0.584546    42A     -0.580387
      43A     -0.556771    44A     -0.545643    45A     -0.534850
      46A     -0.519200    47A     -0.513011    48A     -0.501341
      49A     -0.493664    50A     -0.481832    51A     -0.450761
      52A     -0.419708    53A     -0.347298    54A     -0.342207
      55A     -0.334165    56A     -0.304740

  @DF-RHF Final Energy:  -667.27306819822775

   => Energetics <=

    Nuclear Repulsion Energy =            993.7007188344891802
    One-Electron Energy =               -2878.5306156088918215
    Two-Electron Energy =                1217.5568285761748939
    Total Energy =                       -667.2730681982277474
  Basis Set: (AUG-CC-PVTZ AUX)
    Blend: AUG-CC-PVTZ-RI
    Molecular point group: c1

    Geometry (in Angstrom), charge = 0, multiplicity = 1:

       Center              X                  Y                   Z               Mass
    ------------   -----------------  -----------------  -----------------  -----------------
         O           -0.517496045445     2.229779000399    -0.295845785527    15.994914619570
         N           -2.980620045445     1.755437000399     0.828624214473    14.003074004430
         C            1.033134954555     0.464955000399    -0.083457785527    12.000000000000
         C           -1.500643045445     0.059996000399    -0.139073785527    12.000000000000
         C           -0.355487045445     1.002725000399    -0.180864785527    12.000000000000
         C            3.711649954555    -0.379418999601     0.172161214473    12.000000000000
         C           -2.780473045445     0.489084000399     0.300209214473    12.000000000000
         C            1.353551954555    -0.635443999601     0.724955214473    12.000000000000
         C            2.059684954555     1.152749000399    -0.745473785527    12.000000000000
         C            2.681239954555    -1.042760999601     0.850612214473    12.000000000000
         C            3.377766954555     0.722003000399    -0.629720785527    12.000000000000
         C           -1.346832045445    -1.244490999601    -0.645470785527    12.000000000000
         C           -3.791700845445    -0.415350499601     0.311329414473    12.000000000000
         C           -2.406725045445    -2.142805999601    -0.667376785527    12.000000000000
         C            5.136179954555    -0.858191999601     0.270177214473    12.000000000000
         C           -3.653468045445    -1.735541999601    -0.181873785527    12.000000000000
         H            0.570710954555    -1.151756999601     1.274803214473     1.007825032230
         H            1.806036954555     2.024402000399    -1.343540785527     1.007825032230
         H            2.922522954555    -1.886254999601     1.495672214473     1.007825032230
         H            4.165858954555     1.256770000399    -1.157815785527     1.007825032230
         H           -0.377264045445    -1.544447999601    -1.033403785527     1.007825032230
         H           -4.806463045445    -0.135699999601     0.675873214473     1.007825032230
         H           -2.270799045445    -3.141424999601    -1.073324785527     1.007825032230
         H            5.838222954555    -0.023647999601     0.186769214473     1.007825032230
         H            5.317346954555    -1.361931999601     1.223821214473     1.007825032230
         H            5.369099954555    -1.568641999601    -0.530739785527     1.007825032230
         H           -4.492749045445    -2.427653999601    -0.178497785527     1.007825032230
         H           -2.352278045445     2.457884000399     0.452355214473     1.007825032230
         H           -3.950219045445     2.048366000399     0.856544214473     1.007825032230

  Basis Set: AUG-CC-PVTZ
    Blend: AUG-CC-PVTZ
  Basis Set: (AUG-CC-PVTZ AUX)
    Blend: AUG-CC-PVTZ-JKFIT
	 Reference Energy          =    -667.2730681982277474 [Eh]
	 Singles Energy            =      -0.0000000000000000 [Eh]
	 Same-Spin Energy          =      -0.7357896821147860 [Eh]
	 Opposite-Spin Energy      =      -2.2659447244626181 [Eh]
	 Correlation Energy        =      -3.0017344065774041 [Eh]
	 Total Energy              =    -670.2748026048051315 [Eh]

	 ================> DF-SCS-MP2 Energies <==================
	-----------------------------------------------------------
	 SCS Same-Spin Scale       =       0.3333333333333333 [-]
	 SCS Opposite-Spin Scale   =       1.2000000000000000 [-]
	 SCS Same-Spin Energy      =      -0.2452632273715953 [Eh]
	 SCS Opposite-Spin Energy  =      -2.7191336693551418 [Eh]
	 SCS Correlation Energy    =      -2.9643968967267371 [Eh]
	 SCS Total Energy          =    -670.2374650949544730 [Eh]
	-----------------------------------------------------------

  Dipole Moment: [D]
     X:     0.4157      Y:    -1.9177      Z:    -0.1590     Total:     1.9686

*** Psi4 exiting successfully. Buy a developer a beer!
