                               Psi4 1.4a3.dev225

  ==> Input File <==

--------------------------------------------------------------------------
#psi4
#
memory 32 gb

molecule  {
0 1
  O       -0.5498120     2.2556960    -0.2996080
  N       -3.0129360     1.7813540     0.8248620
  C        1.0008190     0.4908720    -0.0872200
  C       -1.5329590     0.0859130    -0.1428360
  C       -0.3878030     1.0286420    -0.1846270
  C        3.6793340    -0.3535020     0.1683990
  C       -2.8127890     0.5150010     0.2964470
  C        1.3212360    -0.6095270     0.7211930
  C        2.0273690     1.1786660    -0.7492360
  C        2.6489240    -1.0168440     0.8468500
  C        3.3454510     0.7479200    -0.6334830
  C       -1.3791480    -1.2185740    -0.6492330
  C       -3.8612840    -0.4227650     0.3079770
  C       -2.4390410    -2.1168890    -0.6711390
  C        5.1038640    -0.8322750     0.2664150
  C       -3.6857840    -1.7096250    -0.1856360
  H        0.5383950    -1.1258400     1.2710410
  H        1.7620548     2.0904095    -1.3748103
  H        2.8902070    -1.8603380     1.4919100
  H        4.1335430     1.2826870    -1.1615780
  H       -0.4095800    -1.5185310    -1.0371660
  H       -4.8387790    -0.1097830     0.6721110
  H       -2.3031150    -3.1155080    -1.0770870
  H        5.8059070     0.0022690     0.1830070
  H        5.2850310    -1.3360150     1.2200590
  H        5.3367840    -1.5427250    -0.5345020
  H       -4.5250650    -2.4017370    -0.1822600
  H       -2.3845940     2.4838010     0.4485930
  H       -3.9825350     2.0742830     0.8527820
units angstrom
no_reorient  #important for SAPT in psi4, default
symmetry c1  #important for SAPT in psi4, default
}

set PROPERTIES_ORIGIN ["COM"]
properties('MP2/aug-cc-pvtz', properties = ['dipole'])
--------------------------------------------------------------------------

    Molecular point group: c1
  Charge       = 0
  Multiplicity = 1
  Basis Set: AUG-CC-PVTZ
    Blend: AUG-CC-PVTZ
  Basis Set: (AUG-CC-PVTZ AUX)
    Blend: AUG-CC-PVTZ-JKFIT

    Orbital Energies [Eh]
    ---------------------

    Doubly Occupied:

       1A    -20.537923     2A    -15.560012     3A    -11.338468
       4A    -11.296894     5A    -11.257547     6A    -11.252723
       7A    -11.252256     8A    -11.251507     9A    -11.250838
      10A    -11.243998    11A    -11.239172    12A    -11.239117
      13A    -11.238092    14A    -11.233345    15A    -11.231961
      16A    -11.228300    17A     -1.370981    18A     -1.226549
      19A     -1.165137    20A     -1.137105    21A     -1.069558
      22A     -1.034190    23A     -1.019695    24A     -0.996546
      25A     -0.954718    26A     -0.876676    27A     -0.837444
      28A     -0.836494    29A     -0.811781    30A     -0.765527
      31A     -0.712627    32A     -0.691274    33A     -0.686169
      34A     -0.660580    35A     -0.643301    36A     -0.634893
      37A     -0.613984    38A     -0.603691    39A     -0.599895
      40A     -0.589178    41A     -0.584693    42A     -0.583798
      43A     -0.555633    44A     -0.544697    45A     -0.531757
      46A     -0.518081    47A     -0.513018    48A     -0.504441
      49A     -0.491207    50A     -0.482111    51A     -0.452290
      52A     -0.418903    53A     -0.349742    54A     -0.343178
      55A     -0.334121    56A     -0.300355

  @DF-RHF Final Energy:  -667.27400187523358

   => Energetics <=

    Nuclear Repulsion Energy =            992.6279174030928516
    One-Electron Energy =               -2876.4074987622698245
    Two-Electron Energy =                1216.5055794839433929
    Total Energy =                       -667.2740018752335800
  Basis Set: (AUG-CC-PVTZ AUX)
    Blend: AUG-CC-PVTZ-RI
    Molecular point group: c1

    Geometry (in Angstrom), charge = 0, multiplicity = 1:

       Center              X                  Y                   Z               Mass
    ------------   -----------------  -----------------  -----------------  -----------------
         O           -0.515321888600     2.231482336627    -0.295737756269    15.994914619570
         N           -2.978445888600     1.757140336627     0.828732243731    14.003074004430
         C            1.035309111400     0.466658336627    -0.083349756269    12.000000000000
         C           -1.498468888600     0.061699336627    -0.138965756269    12.000000000000
         C           -0.353312888600     1.004428336627    -0.180756756269    12.000000000000
         C            3.713824111400    -0.377715663373     0.172269243731    12.000000000000
         C           -2.778298888600     0.490787336627     0.300317243731    12.000000000000
         C            1.355726111400    -0.633740663373     0.725063243731    12.000000000000
         C            2.061859111400     1.154452336627    -0.745365756269    12.000000000000
         C            2.683414111400    -1.041057663373     0.850720243731    12.000000000000
         C            3.379941111400     0.723706336627    -0.629612756269    12.000000000000
         C           -1.344657888600    -1.242787663373    -0.645362756269    12.000000000000
         C           -3.826793888600    -0.446978663373     0.311847243731    12.000000000000
         C           -2.404550888600    -2.141102663373    -0.667268756269    12.000000000000
         C            5.138354111400    -0.856488663373     0.270285243731    12.000000000000
         C           -3.651293888600    -1.733838663373    -0.181765756269    12.000000000000
         H            0.572885111400    -1.150053663373     1.274911243731     1.007825032230
         H            1.796544911400     2.066195836627    -1.370940056269     1.007825032230
         H            2.924697111400    -1.884551663373     1.495780243731     1.007825032230
         H            4.168033111400     1.258473336627    -1.157707756269     1.007825032230
         H           -0.375089888600    -1.542744663373    -1.033295756269     1.007825032230
         H           -4.804288888600    -0.133996663373     0.675981243731     1.007825032230
         H           -2.268624888600    -3.139721663373    -1.073216756269     1.007825032230
         H            5.840397111400    -0.021944663373     0.186877243731     1.007825032230
         H            5.319521111400    -1.360228663373     1.223929243731     1.007825032230
         H            5.371274111400    -1.566938663373    -0.530631756269     1.007825032230
         H           -4.490574888600    -2.425950663373    -0.178389756269     1.007825032230
         H           -2.350103888600     2.459587336627     0.452463243731     1.007825032230
         H           -3.948044888600     2.050069336627     0.856652243731     1.007825032230

  Basis Set: AUG-CC-PVTZ
    Blend: AUG-CC-PVTZ
  Basis Set: (AUG-CC-PVTZ AUX)
    Blend: AUG-CC-PVTZ-JKFIT
	 Reference Energy          =    -667.2740018752335800 [Eh]
	 Singles Energy            =      -0.0000000000000000 [Eh]
	 Same-Spin Energy          =      -0.7356981756230524 [Eh]
	 Opposite-Spin Energy      =      -2.2660263279330279 [Eh]
	 Correlation Energy        =      -3.0017245035560802 [Eh]
	 Total Energy              =    -670.2757263787896136 [Eh]

	 ================> DF-SCS-MP2 Energies <==================
	-----------------------------------------------------------
	 SCS Same-Spin Scale       =       0.3333333333333333 [-]
	 SCS Opposite-Spin Scale   =       1.2000000000000000 [-]
	 SCS Same-Spin Energy      =      -0.2452327252076841 [Eh]
	 SCS Opposite-Spin Energy  =      -2.7192315935196336 [Eh]
	 SCS Correlation Energy    =      -2.9644643187273179 [Eh]
	 SCS Total Energy          =    -670.2384661939609032 [Eh]
	-----------------------------------------------------------

  Dipole Moment: [D]
     X:     0.3512      Y:    -1.8167      Z:    -0.1000     Total:     1.8530

*** Psi4 exiting successfully. Buy a developer a beer!
