                               Psi4 1.4a3.dev225

  ==> Input File <==

--------------------------------------------------------------------------
#psi4
#
memory 32 gb

molecule  {
0 1
  O       -0.5498120     2.2556960    -0.2996080
  N       -3.0129360     1.7813540     0.8248620
  C        1.0008190     0.4908720    -0.0872200
  C       -1.5329590     0.0859130    -0.1428360
  C       -0.3878030     1.0286420    -0.1846270
  C        3.6793340    -0.3535020     0.1683990
  C       -2.8127890     0.5150010     0.2964470
  C        1.3212360    -0.6095270     0.7211930
  C        2.0273690     1.1786660    -0.7492360
  C        2.6489240    -1.0168440     0.8468500
  C        3.3454510     0.7479200    -0.6334830
  C       -1.3791480    -1.2185740    -0.6492330
  C       -3.8612840    -0.4227650     0.3079770
  C       -2.4390410    -2.1168890    -0.6711390
  C        5.1038640    -0.8322750     0.2664150
  C       -3.6857840    -1.7096250    -0.1856360
  H        0.5383950    -1.1258400     1.2710410
  H        1.7737210     2.0503190    -1.3473030
  H        2.8902070    -1.8603380     1.4919100
  H        4.1335430     1.2826870    -1.1615780
  H       -0.4095800    -1.5185310    -1.0371660
  H       -4.8387790    -0.1097830     0.6721110
  H       -2.3031150    -3.1155080    -1.0770870
  H        5.8059070     0.0022690     0.1830070
  H        5.2850310    -1.3360150     1.2200590
  H        5.3367840    -1.5427250    -0.5345020
  H       -4.5250650    -2.4017370    -0.1822600
  H       -2.3845940     2.4838010     0.4485930
  H       -4.0782254     2.1031924     0.8555374
units angstrom
no_reorient  #important for SAPT in psi4, default
symmetry c1  #important for SAPT in psi4, default
}

set PROPERTIES_ORIGIN ["COM"]
properties('MP2/aug-cc-pvtz', properties = ['dipole'])
--------------------------------------------------------------------------

    Molecular point group: c1
  Charge       = 0
  Multiplicity = 1
  Basis Set: AUG-CC-PVTZ
    Blend: AUG-CC-PVTZ
  Basis Set: (AUG-CC-PVTZ AUX)
    Blend: AUG-CC-PVTZ-JKFIT

    Orbital Energies [Eh]
    ---------------------

    Doubly Occupied:

       1A    -20.538008     2A    -15.569430     3A    -11.338454
       4A    -11.296976     5A    -11.257289     6A    -11.252481
       7A    -11.252171     8A    -11.250533     9A    -11.246275
      10A    -11.243503    11A    -11.239169    12A    -11.239049
      13A    -11.237758    14A    -11.233190    15A    -11.231649
      16A    -11.228064    17A     -1.371041    18A     -1.219173
      19A     -1.165074    20A     -1.133958    21A     -1.069497
      22A     -1.034327    23A     -1.020530    24A     -0.993587
      25A     -0.954220    26A     -0.876709    27A     -0.838447
      28A     -0.834397    29A     -0.811773    30A     -0.765998
      31A     -0.710433    32A     -0.689648    33A     -0.675608
      34A     -0.660934    35A     -0.644385    36A     -0.636282
      37A     -0.610316    38A     -0.603375    39A     -0.598128
      40A     -0.592457    41A     -0.584106    42A     -0.579391
      43A     -0.555662    44A     -0.544479    45A     -0.531728
      46A     -0.517805    47A     -0.512721    48A     -0.504593
      49A     -0.493432    50A     -0.481905    51A     -0.451296
      52A     -0.418687    53A     -0.349616    54A     -0.343026
      55A     -0.333922    56A     -0.299666

  @DF-RHF Final Energy:  -667.26624509735211

   => Energetics <=

    Nuclear Repulsion Energy =            992.3069550680318116
    One-Electron Energy =               -2875.8137361581702862
    Two-Electron Energy =                1216.2405359927863628
    Total Energy =                       -667.2662450973521118
  Basis Set: (AUG-CC-PVTZ AUX)
    Blend: AUG-CC-PVTZ-RI
    Molecular point group: c1

    Geometry (in Angstrom), charge = 0, multiplicity = 1:

       Center              X                  Y                   Z               Mass
    ------------   -----------------  -----------------  -----------------  -----------------
         O           -0.514920743139     2.231535717052    -0.295882235416    15.994914619570
         N           -2.978044743139     1.757193717052     0.828587764584    14.003074004430
         C            1.035710256861     0.466711717052    -0.083494235416    12.000000000000
         C           -1.498067743139     0.061752717052    -0.139110235416    12.000000000000
         C           -0.352911743139     1.004481717052    -0.180901235416    12.000000000000
         C            3.714225256861    -0.377662282948     0.172124764584    12.000000000000
         C           -2.777897743139     0.490840717052     0.300172764584    12.000000000000
         C            1.356127256861    -0.633687282948     0.724918764584    12.000000000000
         C            2.062260256861     1.154505717052    -0.745510235416    12.000000000000
         C            2.683815256861    -1.041004282948     0.850575764584    12.000000000000
         C            3.380342256861     0.723759717052    -0.629757235416    12.000000000000
         C           -1.344256743139    -1.242734282948    -0.645507235416    12.000000000000
         C           -3.826392743139    -0.446925282948     0.311702764584    12.000000000000
         C           -2.404149743139    -2.141049282948    -0.667413235416    12.000000000000
         C            5.138755256861    -0.856435282948     0.270140764584    12.000000000000
         C           -3.650892743139    -1.733785282948    -0.181910235416    12.000000000000
         H            0.573286256861    -1.150000282948     1.274766764584     1.007825032230
         H            1.808612256861     2.026158717052    -1.343577235416     1.007825032230
         H            2.925098256861    -1.884498282948     1.495635764584     1.007825032230
         H            4.168434256861     1.258526717052    -1.157852235416     1.007825032230
         H           -0.374688743139    -1.542691282948    -1.033440235416     1.007825032230
         H           -4.803887743139    -0.133943282948     0.675836764584     1.007825032230
         H           -2.268223743139    -3.139668282948    -1.073361235416     1.007825032230
         H            5.840798256861    -0.021891282948     0.186732764584     1.007825032230
         H            5.319922256861    -1.360175282948     1.223784764584     1.007825032230
         H            5.371675256861    -1.566885282948    -0.530776235416     1.007825032230
         H           -4.490173743139    -2.425897282948    -0.178534235416     1.007825032230
         H           -2.349702743139     2.459640717052     0.452318764584     1.007825032230
         H           -4.043334143139     2.079032117052     0.859263164584     1.007825032230

  Basis Set: AUG-CC-PVTZ
    Blend: AUG-CC-PVTZ
  Basis Set: (AUG-CC-PVTZ AUX)
    Blend: AUG-CC-PVTZ-JKFIT
	 Reference Energy          =    -667.2662450973521118 [Eh]
	 Singles Energy            =      -0.0000000000000000 [Eh]
	 Same-Spin Energy          =      -0.7361650915265323 [Eh]
	 Opposite-Spin Energy      =      -2.2674363530328323 [Eh]
	 Correlation Energy        =      -3.0036014445593646 [Eh]
	 Total Energy              =    -670.2698465419114200 [Eh]

	 ================> DF-SCS-MP2 Energies <==================
	-----------------------------------------------------------
	 SCS Same-Spin Scale       =       0.3333333333333333 [-]
	 SCS Opposite-Spin Scale   =       1.2000000000000000 [-]
	 SCS Same-Spin Energy      =      -0.2453883638421774 [Eh]
	 SCS Opposite-Spin Energy  =      -2.7209236236393988 [Eh]
	 SCS Correlation Energy    =      -2.9663119874815762 [Eh]
	 SCS Total Energy          =    -670.2325570848337293 [Eh]
	-----------------------------------------------------------

  Dipole Moment: [D]
     X:     0.2987      Y:    -1.7912      Z:    -0.0984     Total:     1.8186

*** Psi4 exiting successfully. Buy a developer a beer!
