                               Psi4 1.4a3.dev225

  ==> Input File <==

--------------------------------------------------------------------------
#psi4
#
memory 32 gb

molecule  {
0 1
  O       -0.5498120     2.2556960    -0.2996080
  N       -3.0129360     1.7813540     0.8248620
  C        1.0008190     0.4908720    -0.0872200
  C       -1.5329590     0.0859130    -0.1428360
  C       -0.3878030     1.0286420    -0.1846270
  C        3.6793340    -0.3535020     0.1683990
  C       -2.8127890     0.5150010     0.2964470
  C        1.3212360    -0.6095270     0.7211930
  C        2.0273690     1.1786660    -0.7492360
  C        2.6489240    -1.0168440     0.8468500
  C        3.3454510     0.7479200    -0.6334830
  C       -1.3791480    -1.2185740    -0.6492330
  C       -3.8612840    -0.4227650     0.3079770
  C       -2.4390410    -2.1168890    -0.6711390
  C        5.1038640    -0.8322750     0.2664150
  C       -3.6857840    -1.7096250    -0.1856360
  H        0.5383950    -1.1258400     1.2710410
  H        1.7737210     2.0503190    -1.3473030
  H        2.8902070    -1.8603380     1.4919100
  H        4.1335430     1.2826870    -1.1615780
  H       -0.4095800    -1.5185310    -1.0371660
  H       -4.8387790    -0.1097830     0.6721110
  H       -2.3031150    -3.1155080    -1.0770870
  H        5.8059070     0.0022690     0.1830070
  H        5.2850310    -1.3360150     1.2200590
  H        5.3325323    -1.5297565    -0.5198821
  H       -4.5250650    -2.4017370    -0.1822600
  H       -2.3845940     2.4838010     0.4485930
  H       -3.9825350     2.0742830     0.8527820
units angstrom
no_reorient  #important for SAPT in psi4, default
symmetry c1  #important for SAPT in psi4, default
}

set PROPERTIES_ORIGIN ["COM"]
properties('MP2/aug-cc-pvtz', properties = ['dipole'])
--------------------------------------------------------------------------

    Molecular point group: c1
  Charge       = 0
  Multiplicity = 1
  Basis Set: AUG-CC-PVTZ
    Blend: AUG-CC-PVTZ
  Basis Set: (AUG-CC-PVTZ AUX)
    Blend: AUG-CC-PVTZ-JKFIT

    Orbital Energies [Eh]
    ---------------------

    Doubly Occupied:

       1A    -20.537970     2A    -15.560000     3A    -11.338443
       4A    -11.296875     5A    -11.257211     6A    -11.252704
       7A    -11.252233     8A    -11.250541     9A    -11.246280
      10A    -11.243487    11A    -11.239086    12A    -11.239020
      13A    -11.237732    14A    -11.231941    15A    -11.230828
      16A    -11.228279    17A     -1.371032    18A     -1.226536
      19A     -1.165171    20A     -1.137086    21A     -1.069788
      22A     -1.034692    23A     -1.020558    24A     -0.996540
      25A     -0.955743    26A     -0.877220    27A     -0.838795
      28A     -0.836623    29A     -0.813201    30A     -0.766152
      31A     -0.712733    32A     -0.691821    33A     -0.686197
      34A     -0.661266    35A     -0.645196    36A     -0.636452
      37A     -0.614221    38A     -0.603790    39A     -0.599926
      40A     -0.592682    41A     -0.587503    42A     -0.584193
      43A     -0.555741    44A     -0.544553    45A     -0.531863
      46A     -0.517989    47A     -0.513300    48A     -0.505022
      49A     -0.493438    50A     -0.482246    51A     -0.452271
      52A     -0.418882    53A     -0.349698    54A     -0.343041
      55A     -0.334065    56A     -0.300336

  @DF-RHF Final Energy:  -667.27662585500900

   => Energetics <=

    Nuclear Repulsion Energy =            992.9713705641418073
    One-Electron Energy =               -2877.0756104614979449
    Two-Electron Energy =                1216.8276140423472498
    Total Energy =                       -667.2766258550088878
  Basis Set: (AUG-CC-PVTZ AUX)
    Blend: AUG-CC-PVTZ-RI
    Molecular point group: c1

    Geometry (in Angstrom), charge = 0, multiplicity = 1:

       Center              X                  Y                   Z               Mass
    ------------   -----------------  -----------------  -----------------  -----------------
         O           -0.515357286652     2.231611821551    -0.295938878506    15.994914619570
         N           -2.978481286652     1.757269821551     0.828531121494    14.003074004430
         C            1.035273713348     0.466787821551    -0.083550878506    12.000000000000
         C           -1.498504286652     0.061828821551    -0.139166878506    12.000000000000
         C           -0.353348286652     1.004557821551    -0.180957878506    12.000000000000
         C            3.713788713348    -0.377586178449     0.172068121494    12.000000000000
         C           -2.778334286652     0.490916821551     0.300116121494    12.000000000000
         C            1.355690713348    -0.633611178449     0.724862121494    12.000000000000
         C            2.061823713348     1.154581821551    -0.745566878506    12.000000000000
         C            2.683378713348    -1.040928178449     0.850519121494    12.000000000000
         C            3.379905713348     0.723835821551    -0.629813878506    12.000000000000
         C           -1.344693286652    -1.242658178449    -0.645563878506    12.000000000000
         C           -3.826829286652    -0.446849178449     0.311646121494    12.000000000000
         C           -2.404586286652    -2.140973178449    -0.667469878506    12.000000000000
         C            5.138318713348    -0.856359178449     0.270084121494    12.000000000000
         C           -3.651329286652    -1.733709178449    -0.181966878506    12.000000000000
         H            0.572849713348    -1.149924178449     1.274710121494     1.007825032230
         H            1.808175713348     2.026234821551    -1.343633878506     1.007825032230
         H            2.924661713348    -1.884422178449     1.495579121494     1.007825032230
         H            4.167997713348     1.258602821551    -1.157908878506     1.007825032230
         H           -0.375125286652    -1.542615178449    -1.033496878506     1.007825032230
         H           -4.804324286652    -0.133867178449     0.675780121494     1.007825032230
         H           -2.268660286652    -3.139592178449    -1.073417878506     1.007825032230
         H            5.840361713348    -0.021815178449     0.186676121494     1.007825032230
         H            5.319485713348    -1.360099178449     1.223728121494     1.007825032230
         H            5.366987013348    -1.553840678449    -0.516212978506     1.007825032230
         H           -4.490610286652    -2.425821178449    -0.178590878506     1.007825032230
         H           -2.350139286652     2.459716821551     0.452262121494     1.007825032230
         H           -3.948080286652     2.050198821551     0.856451121494     1.007825032230

  Basis Set: AUG-CC-PVTZ
    Blend: AUG-CC-PVTZ
  Basis Set: (AUG-CC-PVTZ AUX)
    Blend: AUG-CC-PVTZ-JKFIT
	 Reference Energy          =    -667.2766258550090015 [Eh]
	 Singles Energy            =      -0.0000000000000000 [Eh]
	 Same-Spin Energy          =      -0.7355232388838430 [Eh]
	 Opposite-Spin Energy      =      -2.2653951216590706 [Eh]
	 Correlation Energy        =      -3.0009183605429137 [Eh]
	 Total Energy              =    -670.2775442155518704 [Eh]

	 ================> DF-SCS-MP2 Energies <==================
	-----------------------------------------------------------
	 SCS Same-Spin Scale       =       0.3333333333333333 [-]
	 SCS Opposite-Spin Scale   =       1.2000000000000000 [-]
	 SCS Same-Spin Energy      =      -0.2451744129612810 [Eh]
	 SCS Opposite-Spin Energy  =      -2.7184741459908848 [Eh]
	 SCS Correlation Energy    =      -2.9636485589521659 [Eh]
	 SCS Total Energy          =    -670.2402744139611741 [Eh]
	-----------------------------------------------------------

  Dipole Moment: [D]
     X:     0.3594      Y:    -1.8203      Z:    -0.1099     Total:     1.8587

*** Psi4 exiting successfully. Buy a developer a beer!
