                               Psi4 1.4a3.dev225

  ==> Input File <==

--------------------------------------------------------------------------
#psi4
#
memory 32 gb

molecule  {
0 1
  O       -0.5498120     2.2556960    -0.2996080
  N       -3.0129360     1.7813540     0.8248620
  C        1.0008190     0.4908720    -0.0872200
  C       -1.5329590     0.0859130    -0.1428360
  C       -0.3878030     1.0286420    -0.1846270
  C        3.6793340    -0.3535020     0.1683990
  C       -2.8127890     0.5150010     0.2964470
  C        1.3212360    -0.6095270     0.7211930
  C        2.0273690     1.1786660    -0.7492360
  C        2.4584975    -0.9584237     0.8288274
  C        3.3454510     0.7479200    -0.6334830
  C       -1.3791480    -1.2185740    -0.6492330
  C       -3.8612840    -0.4227650     0.3079770
  C       -2.4390410    -2.1168890    -0.6711390
  C        5.1038640    -0.8322750     0.2664150
  C       -3.6857840    -1.7096250    -0.1856360
  H        0.5383950    -1.1258400     1.2710410
  H        1.7737210     2.0503190    -1.3473030
  H        2.8902070    -1.8603380     1.4919100
  H        4.1335430     1.2826870    -1.1615780
  H       -0.4095800    -1.5185310    -1.0371660
  H       -4.8387790    -0.1097830     0.6721110
  H       -2.3031150    -3.1155080    -1.0770870
  H        5.8059070     0.0022690     0.1830070
  H        5.2850310    -1.3360150     1.2200590
  H        5.3367840    -1.5427250    -0.5345020
  H       -4.5250650    -2.4017370    -0.1822600
  H       -2.3845940     2.4838010     0.4485930
  H       -3.9825350     2.0742830     0.8527820
units angstrom
no_reorient  #important for SAPT in psi4, default
symmetry c1  #important for SAPT in psi4, default
}

set PROPERTIES_ORIGIN ["COM"]
properties('MP2/aug-cc-pvtz', properties = ['dipole'])
--------------------------------------------------------------------------

    Molecular point group: c1
  Charge       = 0
  Multiplicity = 1
  Basis Set: AUG-CC-PVTZ
    Blend: AUG-CC-PVTZ
  Basis Set: (AUG-CC-PVTZ AUX)
    Blend: AUG-CC-PVTZ-JKFIT

    Orbital Energies [Eh]
    ---------------------

    Doubly Occupied:

       1A    -20.535300     2A    -15.559100     3A    -11.335993
       4A    -11.295937     5A    -11.269353     6A    -11.251939
       7A    -11.251820     8A    -11.247469     9A    -11.240846
      10A    -11.240333    11A    -11.238035    12A    -11.236521
      13A    -11.234917    14A    -11.231297    15A    -11.227827
      16A    -11.219242    17A     -1.368571    18A     -1.225631
      19A     -1.179405    20A     -1.136423    21A     -1.068052
      22A     -1.046237    23A     -1.031219    24A     -0.995923
      25A     -0.958437    26A     -0.876608    27A     -0.839255
      28A     -0.820297    29A     -0.810679    30A     -0.767402
      31A     -0.712395    32A     -0.693478    33A     -0.685300
      34A     -0.669297    35A     -0.646913    36A     -0.631075
      37A     -0.613898    38A     -0.603565    39A     -0.599510
      40A     -0.587113    41A     -0.584212    42A     -0.579862
      43A     -0.556343    44A     -0.550344    45A     -0.532602
      46A     -0.526377    47A     -0.519877    48A     -0.508376
      49A     -0.488604    50A     -0.453909    51A     -0.448180
      52A     -0.417388    53A     -0.373241    54A     -0.347520
      55A     -0.319597    56A     -0.299412

  @DF-RHF Final Energy:  -667.21300399080212

   => Energetics <=

    Nuclear Repulsion Energy =            995.6443643201284885
    One-Electron Energy =               -2882.3378296628056887
    Two-Electron Energy =                1219.4804613518751921
    Total Energy =                       -667.2130039908020080
  Basis Set: (AUG-CC-PVTZ AUX)
    Blend: AUG-CC-PVTZ-RI
    Molecular point group: c1

    Geometry (in Angstrom), charge = 0, multiplicity = 1:

       Center              X                  Y                   Z               Mass
    ------------   -----------------  -----------------  -----------------  -----------------
         O           -0.504552757424     2.228352823195    -0.294844582845    15.994914619570
         N           -2.967676757424     1.754010823195     0.829625417155    14.003074004430
         C            1.046078242576     0.463528823195    -0.082456582845    12.000000000000
         C           -1.487699757424     0.058569823195    -0.138072582845    12.000000000000
         C           -0.342543757424     1.001298823195    -0.179863582845    12.000000000000
         C            3.724593242576    -0.380845176805     0.173162417155    12.000000000000
         C           -2.767529757424     0.487657823195     0.301210417155    12.000000000000
         C            1.366495242576    -0.636870176805     0.725956417155    12.000000000000
         C            2.072628242576     1.151322823195    -0.744472582845    12.000000000000
         C            2.503756742576    -0.985766876805     0.833590817155    12.000000000000
         C            3.390710242576     0.720576823195    -0.628719582845    12.000000000000
         C           -1.333888757424    -1.245917176805    -0.644469582845    12.000000000000
         C           -3.816024757424    -0.450108176805     0.312740417155    12.000000000000
         C           -2.393781757424    -2.144232176805    -0.666375582845    12.000000000000
         C            5.149123242576    -0.859618176805     0.271178417155    12.000000000000
         C           -3.640524757424    -1.736968176805    -0.180872582845    12.000000000000
         H            0.583654242576    -1.153183176805     1.275804417155     1.007825032230
         H            1.818980242576     2.022975823195    -1.342539582845     1.007825032230
         H            2.935466242576    -1.887681176805     1.496673417155     1.007825032230
         H            4.178802242576     1.255343823195    -1.156814582845     1.007825032230
         H           -0.364320757424    -1.545874176805    -1.032402582845     1.007825032230
         H           -4.793519757424    -0.137126176805     0.676874417155     1.007825032230
         H           -2.257855757424    -3.142851176805    -1.072323582845     1.007825032230
         H            5.851166242576    -0.025074176805     0.187770417155     1.007825032230
         H            5.330290242576    -1.363358176805     1.224822417155     1.007825032230
         H            5.382043242576    -1.570068176805    -0.529738582845     1.007825032230
         H           -4.479805757424    -2.429080176805    -0.177496582845     1.007825032230
         H           -2.339334757424     2.456457823195     0.453356417155     1.007825032230
         H           -3.937275757424     2.046939823195     0.857545417155     1.007825032230

  Basis Set: AUG-CC-PVTZ
    Blend: AUG-CC-PVTZ
  Basis Set: (AUG-CC-PVTZ AUX)
    Blend: AUG-CC-PVTZ-JKFIT
	 Reference Energy          =    -667.2130039908021217 [Eh]
	 Singles Energy            =      -0.0000000000000000 [Eh]
	 Same-Spin Energy          =      -0.7353931341183826 [Eh]
	 Opposite-Spin Energy      =      -2.2671496160860531 [Eh]
	 Correlation Energy        =      -3.0025427502044355 [Eh]
	 Total Energy              =    -670.2155467410065057 [Eh]

	 ================> DF-SCS-MP2 Energies <==================
	-----------------------------------------------------------
	 SCS Same-Spin Scale       =       0.3333333333333333 [-]
	 SCS Opposite-Spin Scale   =       1.2000000000000000 [-]
	 SCS Same-Spin Energy      =      -0.2451310447061275 [Eh]
	 SCS Opposite-Spin Energy  =      -2.7205795393032637 [Eh]
	 SCS Correlation Energy    =      -2.9657105840093911 [Eh]
	 SCS Total Energy          =    -670.1787145748114654 [Eh]
	-----------------------------------------------------------

  Dipole Moment: [D]
     X:     0.4970      Y:    -1.7523      Z:    -0.1748     Total:     1.8298

*** Psi4 exiting successfully. Buy a developer a beer!
