                               Psi4 1.4a3.dev225

  ==> Input File <==

--------------------------------------------------------------------------
#psi4
#
memory 32 gb

molecule  {
0 1
  O       -0.5498120     2.2556960    -0.2996080
  N       -3.0129360     1.7813540     0.8248620
  C        1.0008190     0.4908720    -0.0872200
  C       -1.5329590     0.0859130    -0.1428360
  C       -0.3878030     1.0286420    -0.1846270
  C        3.6793340    -0.3535020     0.1683990
  C       -2.8127890     0.5150010     0.2964470
  C        1.3212360    -0.6095270     0.7211930
  C        2.0273690     1.1786660    -0.7492360
  C        2.6489240    -1.0168440     0.8468500
  C        3.3454510     0.7479200    -0.6334830
  C       -1.3791480    -1.2185740    -0.6492330
  C       -3.8985512    -0.4560965     0.3083868
  C       -2.4390410    -2.1168890    -0.6711390
  C        5.1038640    -0.8322750     0.2664150
  C       -3.6857840    -1.7096250    -0.1856360
  H        0.5383950    -1.1258400     1.2710410
  H        1.7737210     2.0503190    -1.3473030
  H        2.8902070    -1.8603380     1.4919100
  H        4.1335430     1.2826870    -1.1615780
  H       -0.4095800    -1.5185310    -1.0371660
  H       -4.8387790    -0.1097830     0.6721110
  H       -2.3031150    -3.1155080    -1.0770870
  H        5.8059070     0.0022690     0.1830070
  H        5.2850310    -1.3360150     1.2200590
  H        5.3367840    -1.5427250    -0.5345020
  H       -4.5250650    -2.4017370    -0.1822600
  H       -2.3845940     2.4838010     0.4485930
  H       -3.9825350     2.0742830     0.8527820
units angstrom
no_reorient  #important for SAPT in psi4, default
symmetry c1  #important for SAPT in psi4, default
}

set PROPERTIES_ORIGIN ["COM"]
properties('MP2/aug-cc-pvtz', properties = ['dipole'])
--------------------------------------------------------------------------

    Molecular point group: c1
  Charge       = 0
  Multiplicity = 1
  Basis Set: AUG-CC-PVTZ
    Blend: AUG-CC-PVTZ
  Basis Set: (AUG-CC-PVTZ AUX)
    Blend: AUG-CC-PVTZ-JKFIT

    Orbital Energies [Eh]
    ---------------------

    Doubly Occupied:

       1A    -20.537478     2A    -15.563774     3A    -11.338079
       4A    -11.303852     5A    -11.257137     6A    -11.251491
       7A    -11.250384     8A    -11.249010     9A    -11.246116
      10A    -11.243304    11A    -11.238917    12A    -11.237616
      13A    -11.237386    14A    -11.233442    15A    -11.233078
      16A    -11.226762    17A     -1.370685    18A     -1.226340
      19A     -1.164988    20A     -1.137097    21A     -1.069821
      22A     -1.036613    23A     -1.020640    24A     -0.992615
      25A     -0.954398    26A     -0.874154    27A     -0.839735
      28A     -0.836852    29A     -0.813041    30A     -0.765776
      31A     -0.713471    32A     -0.692351    33A     -0.686992
      34A     -0.661584    35A     -0.646354    36A     -0.637491
      37A     -0.614641    38A     -0.602232    39A     -0.599717
      40A     -0.592783    41A     -0.586569    42A     -0.583953
      43A     -0.555006    44A     -0.543900    45A     -0.530304
      46A     -0.517871    47A     -0.510786    48A     -0.506154
      49A     -0.493287    50A     -0.482016    51A     -0.453875
      52A     -0.417911    53A     -0.353096    54A     -0.343340
      55A     -0.333767    56A     -0.296534

  @DF-RHF Final Energy:  -667.27404797231634

   => Energetics <=

    Nuclear Repulsion Energy =            992.1028874116658471
    One-Electron Energy =               -2875.3407418065048660
    Two-Electron Energy =                1215.9638064225225662
    Total Energy =                       -667.2740479723163389
  Basis Set: (AUG-CC-PVTZ AUX)
    Blend: AUG-CC-PVTZ-RI
    Molecular point group: c1

    Geometry (in Angstrom), charge = 0, multiplicity = 1:

       Center              X                  Y                   Z               Mass
    ------------   -----------------  -----------------  -----------------  -----------------
         O           -0.513259124500     2.233568470241    -0.295892375832    15.994914619570
         N           -2.976383124500     1.759226470241     0.828577624168    14.003074004430
         C            1.037371875500     0.468744470241    -0.083504375832    12.000000000000
         C           -1.496406124500     0.063785470241    -0.139120375832    12.000000000000
         C           -0.351250124500     1.006514470241    -0.180911375832    12.000000000000
         C            3.715886875500    -0.375629529759     0.172114624168    12.000000000000
         C           -2.776236124500     0.492873470241     0.300162624168    12.000000000000
         C            1.357788875500    -0.631654529759     0.724908624168    12.000000000000
         C            2.063921875500     1.156538470241    -0.745520375832    12.000000000000
         C            2.685476875500    -1.038971529759     0.850565624168    12.000000000000
         C            3.382003875500     0.725792470241    -0.629767375832    12.000000000000
         C           -1.342595124500    -1.240701529759    -0.645517375832    12.000000000000
         C           -3.861998324500    -0.478224029759     0.312102424168    12.000000000000
         C           -2.402488124500    -2.139016529759    -0.667423375832    12.000000000000
         C            5.140416875500    -0.854402529759     0.270130624168    12.000000000000
         C           -3.649231124500    -1.731752529759    -0.181920375832    12.000000000000
         H            0.574947875500    -1.147967529759     1.274756624168     1.007825032230
         H            1.810273875500     2.028191470241    -1.343587375832     1.007825032230
         H            2.926759875500    -1.882465529759     1.495625624168     1.007825032230
         H            4.170095875500     1.260559470241    -1.157862375832     1.007825032230
         H           -0.373027124500    -1.540658529759    -1.033450375832     1.007825032230
         H           -4.802226124500    -0.131910529759     0.675826624168     1.007825032230
         H           -2.266562124500    -3.137635529759    -1.073371375832     1.007825032230
         H            5.842459875500    -0.019858529759     0.186722624168     1.007825032230
         H            5.321583875500    -1.358142529759     1.223774624168     1.007825032230
         H            5.373336875500    -1.564852529759    -0.530786375832     1.007825032230
         H           -4.488512124500    -2.423864529759    -0.178544375832     1.007825032230
         H           -2.348041124500     2.461673470241     0.452308624168     1.007825032230
         H           -3.945982124500     2.052155470241     0.856497624168     1.007825032230

  Basis Set: AUG-CC-PVTZ
    Blend: AUG-CC-PVTZ
  Basis Set: (AUG-CC-PVTZ AUX)
    Blend: AUG-CC-PVTZ-JKFIT
	 Reference Energy          =    -667.2740479723163389 [Eh]
	 Singles Energy            =      -0.0000000000000000 [Eh]
	 Same-Spin Energy          =      -0.7351743409881294 [Eh]
	 Opposite-Spin Energy      =      -2.2652894273742294 [Eh]
	 Correlation Energy        =      -3.0004637683623590 [Eh]
	 Total Energy              =    -670.2745117406786903 [Eh]

	 ================> DF-SCS-MP2 Energies <==================
	-----------------------------------------------------------
	 SCS Same-Spin Scale       =       0.3333333333333333 [-]
	 SCS Opposite-Spin Scale   =       1.2000000000000000 [-]
	 SCS Same-Spin Energy      =      -0.2450581136627098 [Eh]
	 SCS Opposite-Spin Energy  =      -2.7183473128490752 [Eh]
	 SCS Correlation Energy    =      -2.9634054265117848 [Eh]
	 SCS Total Energy          =    -670.2374533988281655 [Eh]
	-----------------------------------------------------------

  Dipole Moment: [D]
     X:     0.2926      Y:    -1.7232      Z:    -0.0576     Total:     1.7488

*** Psi4 exiting successfully. Buy a developer a beer!
