                               Psi4 1.4a3.dev225

  ==> Input File <==

--------------------------------------------------------------------------
#psi4
#
memory 32 gb

molecule  {
0 1
  O       -0.5498120     2.2556960    -0.2996080
  N       -3.0129360     1.7813540     0.8248620
  C        1.0008190     0.4908720    -0.0872200
  C       -1.5329590     0.0859130    -0.1428360
  C       -0.3878030     1.0286420    -0.1846270
  C        3.6793340    -0.3535020     0.1683990
  C       -2.7179848     0.5274004     0.3115050
  C        1.3212360    -0.6095270     0.7211930
  C        2.0273690     1.1786660    -0.7492360
  C        2.6489240    -1.0168440     0.8468500
  C        3.3454510     0.7479200    -0.6334830
  C       -1.3791480    -1.2185740    -0.6492330
  C       -3.8612840    -0.4227650     0.3079770
  C       -2.4390410    -2.1168890    -0.6711390
  C        5.1038640    -0.8322750     0.2664150
  C       -3.6857840    -1.7096250    -0.1856360
  H        0.5383950    -1.1258400     1.2710410
  H        1.7737210     2.0503190    -1.3473030
  H        2.8902070    -1.8603380     1.4919100
  H        4.1335430     1.2826870    -1.1615780
  H       -0.4095800    -1.5185310    -1.0371660
  H       -4.8387790    -0.1097830     0.6721110
  H       -2.3031150    -3.1155080    -1.0770870
  H        5.8059070     0.0022690     0.1830070
  H        5.2850310    -1.3360150     1.2200590
  H        5.3367840    -1.5427250    -0.5345020
  H       -4.5250650    -2.4017370    -0.1822600
  H       -2.3845940     2.4838010     0.4485930
  H       -3.9825350     2.0742830     0.8527820
units angstrom
no_reorient  #important for SAPT in psi4, default
symmetry c1  #important for SAPT in psi4, default
}

set PROPERTIES_ORIGIN ["COM"]
properties('MP2/aug-cc-pvtz', properties = ['dipole'])
--------------------------------------------------------------------------

    Molecular point group: c1
  Charge       = 0
  Multiplicity = 1
  Basis Set: AUG-CC-PVTZ
    Blend: AUG-CC-PVTZ
  Basis Set: (AUG-CC-PVTZ AUX)
    Blend: AUG-CC-PVTZ-JKFIT

    Orbital Energies [Eh]
    ---------------------

    Doubly Occupied:

       1A    -20.539305     2A    -15.560374     3A    -11.338288
       4A    -11.297186     5A    -11.257588     6A    -11.251006
       7A    -11.250728     8A    -11.249047     9A    -11.246544
      10A    -11.243463    11A    -11.240108    12A    -11.239412
      13A    -11.238008    14A    -11.233395    15A    -11.231506
      16A    -11.228707    17A     -1.372524    18A     -1.226429
      19A     -1.165511    20A     -1.137565    21A     -1.069648
      22A     -1.038177    23A     -1.021342    24A     -0.991532
      25A     -0.955964    26A     -0.872664    27A     -0.845274
      28A     -0.838132    29A     -0.810638    30A     -0.765030
      31A     -0.715030    32A     -0.692288    33A     -0.683775
      34A     -0.660738    35A     -0.648402    36A     -0.637175
      37A     -0.624549    38A     -0.600503    39A     -0.593737
      40A     -0.592628    41A     -0.584816    42A     -0.583948
      43A     -0.556222    44A     -0.544894    45A     -0.526408
      46A     -0.518603    47A     -0.512675    48A     -0.508215
      49A     -0.493699    50A     -0.481850    51A     -0.450814
      52A     -0.417127    53A     -0.351712    54A     -0.343940
      55A     -0.334202    56A     -0.299125

  @DF-RHF Final Energy:  -667.26691874567837

   => Energetics <=

    Nuclear Repulsion Energy =            993.8238228786261743
    One-Electron Energy =               -2878.7571343610720760
    Two-Electron Energy =                1217.6663927367674205
    Total Energy =                       -667.2669187456783675
  Basis Set: (AUG-CC-PVTZ AUX)
    Blend: AUG-CC-PVTZ-RI
    Molecular point group: c1

    Geometry (in Angstrom), charge = 0, multiplicity = 1:

       Center              X                  Y                   Z               Mass
    ------------   -----------------  -----------------  -----------------  -----------------
         O           -0.520766746228     2.230968889269    -0.296725055311    15.994914619570
         N           -2.983890746228     1.756626889269     0.827744944689    14.003074004430
         C            1.029864253772     0.466144889269    -0.084337055311    12.000000000000
         C           -1.503913746228     0.061185889269    -0.139953055311    12.000000000000
         C           -0.358757746228     1.003914889269    -0.181744055311    12.000000000000
         C            3.708379253772    -0.378229110731     0.171281944689    12.000000000000
         C           -2.688939546228     0.502673289269     0.314387944689    12.000000000000
         C            1.350281253772    -0.634254110731     0.724075944689    12.000000000000
         C            2.056414253772     1.153938889269    -0.746353055311    12.000000000000
         C            2.677969253772    -1.041571110731     0.849732944689    12.000000000000
         C            3.374496253772     0.723192889269    -0.630600055311    12.000000000000
         C           -1.350102746228    -1.243301110731    -0.646350055311    12.000000000000
         C           -3.832238746228    -0.447492110731     0.310859944689    12.000000000000
         C           -2.409995746228    -2.141616110731    -0.668256055311    12.000000000000
         C            5.132909253772    -0.857002110731     0.269297944689    12.000000000000
         C           -3.656738746228    -1.734352110731    -0.182753055311    12.000000000000
         H            0.567440253772    -1.150567110731     1.273923944689     1.007825032230
         H            1.802766253772     2.025591889269    -1.344420055311     1.007825032230
         H            2.919252253772    -1.885065110731     1.494792944689     1.007825032230
         H            4.162588253772     1.257959889269    -1.158695055311     1.007825032230
         H           -0.380534746228    -1.543258110731    -1.034283055311     1.007825032230
         H           -4.809733746228    -0.134510110731     0.674993944689     1.007825032230
         H           -2.274069746228    -3.140235110731    -1.074204055311     1.007825032230
         H            5.834952253772    -0.022458110731     0.185889944689     1.007825032230
         H            5.314076253772    -1.360742110731     1.222941944689     1.007825032230
         H            5.365829253772    -1.567452110731    -0.531619055311     1.007825032230
         H           -4.496019746228    -2.426464110731    -0.179377055311     1.007825032230
         H           -2.355548746228     2.459073889269     0.451475944689     1.007825032230
         H           -3.953489746228     2.049555889269     0.855664944689     1.007825032230

  Basis Set: AUG-CC-PVTZ
    Blend: AUG-CC-PVTZ
  Basis Set: (AUG-CC-PVTZ AUX)
    Blend: AUG-CC-PVTZ-JKFIT
	 Reference Energy          =    -667.2669187456783675 [Eh]
	 Singles Energy            =      -0.0000000000000000 [Eh]
	 Same-Spin Energy          =      -0.7351309378681261 [Eh]
	 Opposite-Spin Energy      =      -2.2660479120785633 [Eh]
	 Correlation Energy        =      -3.0011788499466894 [Eh]
	 Total Energy              =    -670.2680975956250222 [Eh]

	 ================> DF-SCS-MP2 Energies <==================
	-----------------------------------------------------------
	 SCS Same-Spin Scale       =       0.3333333333333333 [-]
	 SCS Opposite-Spin Scale   =       1.2000000000000000 [-]
	 SCS Same-Spin Energy      =      -0.2450436459560420 [Eh]
	 SCS Opposite-Spin Energy  =      -2.7192574944942760 [Eh]
	 SCS Correlation Energy    =      -2.9643011404503179 [Eh]
	 SCS Total Energy          =    -670.2312198861286561 [Eh]
	-----------------------------------------------------------

  Dipole Moment: [D]
     X:     0.3577      Y:    -1.7665      Z:    -0.0889     Total:     1.8045

*** Psi4 exiting successfully. Buy a developer a beer!
