                               Psi4 1.4a3.dev225

  ==> Input File <==

--------------------------------------------------------------------------
#psi4
#
memory 32 gb

molecule  {
0 1
  O       -0.5498120     2.2556960    -0.2996080
  N       -3.0129360     1.7813540     0.8248620
  C        1.0008190     0.4908720    -0.0872200
  C       -1.5329590     0.0859130    -0.1428360
  C       -0.3878030     1.0286420    -0.1846270
  C        3.6793340    -0.3535020     0.1683990
  C       -2.8127890     0.5150010     0.2964470
  C        1.3212360    -0.6095270     0.7211930
  C        2.0273690     1.1786660    -0.7492360
  C        2.6489240    -1.0168440     0.8468500
  C        3.3454510     0.7479200    -0.6334830
  C       -1.3791480    -1.2185740    -0.6492330
  C       -3.8612840    -0.4227650     0.3079770
  C       -2.4390410    -2.1168890    -0.6711390
  C        5.1038640    -0.8322750     0.2664150
  C       -3.6857840    -1.7096250    -0.1856360
  H        0.5383950    -1.1258400     1.2710410
  H        1.7737210     2.0503190    -1.3473030
  H        2.8902070    -1.8603380     1.4919100
  H        4.1335430     1.2826870    -1.1615780
  H       -0.4095800    -1.5185310    -1.0371660
  H       -4.8387790    -0.1097830     0.6721110
  H       -2.3031150    -3.1155080    -1.0770870
  H        5.7417201    -0.0740323     0.1906329
  H        5.2850310    -1.3360150     1.2200590
  H        5.3367840    -1.5427250    -0.5345020
  H       -4.5250650    -2.4017370    -0.1822600
  H       -2.3845940     2.4838010     0.4485930
  H       -3.9825350     2.0742830     0.8527820
units angstrom
no_reorient  #important for SAPT in psi4, default
symmetry c1  #important for SAPT in psi4, default
}

set PROPERTIES_ORIGIN ["COM"]
properties('MP2/aug-cc-pvtz', properties = ['dipole'])
--------------------------------------------------------------------------

    Molecular point group: c1
  Charge       = 0
  Multiplicity = 1
  Basis Set: AUG-CC-PVTZ
    Blend: AUG-CC-PVTZ
  Basis Set: (AUG-CC-PVTZ AUX)
    Blend: AUG-CC-PVTZ-JKFIT

    Orbital Energies [Eh]
    ---------------------

    Doubly Occupied:

       1A    -20.537846     2A    -15.559917     3A    -11.338318
       4A    -11.296779     5A    -11.256622     6A    -11.252613
       7A    -11.252127     8A    -11.250260     9A    -11.246218
      10A    -11.243289    11A    -11.238980    12A    -11.238481
      13A    -11.237713    14A    -11.231852    15A    -11.228183
      16A    -11.220977    17A     -1.370913    18A     -1.226449
      19A     -1.165117    20A     -1.137005    21A     -1.071053
      22A     -1.035289    23A     -1.020471    24A     -0.996514
      25A     -0.961158    26A     -0.878155    27A     -0.838829
      28A     -0.837639    29A     -0.813447    30A     -0.766116
      31A     -0.712621    32A     -0.691993    33A     -0.686126
      34A     -0.663471    35A     -0.645033    36A     -0.637426
      37A     -0.614633    38A     -0.603560    39A     -0.599945
      40A     -0.592469    41A     -0.590845    42A     -0.584388
      43A     -0.558800    44A     -0.549138    45A     -0.532475
      46A     -0.518705    47A     -0.512954    48A     -0.504519
      49A     -0.493519    50A     -0.482164    51A     -0.452187
      52A     -0.418755    53A     -0.349599    54A     -0.342898
      55A     -0.333822    56A     -0.300245

  @DF-RHF Final Energy:  -667.27063180652931

   => Energetics <=

    Nuclear Repulsion Energy =            993.3563353618967540
    One-Electron Energy =               -2877.8127031367143900
    Two-Electron Energy =                1217.1857359682883271
    Total Energy =                       -667.2706318065293090
  Basis Set: (AUG-CC-PVTZ AUX)
    Blend: AUG-CC-PVTZ-RI
    Molecular point group: c1

    Geometry (in Angstrom), charge = 0, multiplicity = 1:

       Center              X                  Y                   Z               Mass
    ------------   -----------------  -----------------  -----------------  -----------------
         O           -0.515071146071     2.232038010376    -0.295905487991    15.994914619570
         N           -2.978195146071     1.757696010376     0.828564512009    14.003074004430
         C            1.035559853929     0.467214010376    -0.083517487991    12.000000000000
         C           -1.498218146071     0.062255010376    -0.139133487991    12.000000000000
         C           -0.353062146071     1.004984010376    -0.180924487991    12.000000000000
         C            3.714074853929    -0.377159989624     0.172101512009    12.000000000000
         C           -2.778048146071     0.491343010376     0.300149512009    12.000000000000
         C            1.355976853929    -0.633184989624     0.724895512009    12.000000000000
         C            2.062109853929     1.155008010376    -0.745533487991    12.000000000000
         C            2.683664853929    -1.040501989624     0.850552512009    12.000000000000
         C            3.380191853929     0.724262010376    -0.629780487991    12.000000000000
         C           -1.344407146071    -1.242231989624    -0.645530487991    12.000000000000
         C           -3.826543146071    -0.446422989624     0.311679512009    12.000000000000
         C           -2.404300146071    -2.140546989624    -0.667436487991    12.000000000000
         C            5.138604853929    -0.855932989624     0.270117512009    12.000000000000
         C           -3.651043146071    -1.733282989624    -0.181933487991    12.000000000000
         H            0.573135853929    -1.149497989624     1.274743512009     1.007825032230
         H            1.808461853929     2.026661010376    -1.343600487991     1.007825032230
         H            2.924947853929    -1.883995989624     1.495612512009     1.007825032230
         H            4.168283853929     1.259029010376    -1.157875487991     1.007825032230
         H           -0.374839146071    -1.542188989624    -1.033463487991     1.007825032230
         H           -4.804038146071    -0.133440989624     0.675813512009     1.007825032230
         H           -2.268374146071    -3.139165989624    -1.073384487991     1.007825032230
         H            5.776460953929    -0.097690289624     0.194335412009     1.007825032230
         H            5.319771853929    -1.359672989624     1.223761512009     1.007825032230
         H            5.371524853929    -1.566382989624    -0.530799487991     1.007825032230
         H           -4.490324146071    -2.425394989624    -0.178557487991     1.007825032230
         H           -2.349853146071     2.460143010376     0.452295512009     1.007825032230
         H           -3.947794146071     2.050625010376     0.856484512009     1.007825032230

  Basis Set: AUG-CC-PVTZ
    Blend: AUG-CC-PVTZ
  Basis Set: (AUG-CC-PVTZ AUX)
    Blend: AUG-CC-PVTZ-JKFIT
	 Reference Energy          =    -667.2706318065293090 [Eh]
	 Singles Energy            =      -0.0000000000000000 [Eh]
	 Same-Spin Energy          =      -0.7355198639926881 [Eh]
	 Opposite-Spin Energy      =      -2.2649927592332237 [Eh]
	 Correlation Energy        =      -3.0005126232259118 [Eh]
	 Total Energy              =    -670.2711444297551679 [Eh]

	 ================> DF-SCS-MP2 Energies <==================
	-----------------------------------------------------------
	 SCS Same-Spin Scale       =       0.3333333333333333 [-]
	 SCS Opposite-Spin Scale   =       1.2000000000000000 [-]
	 SCS Same-Spin Energy      =      -0.2451732879975627 [Eh]
	 SCS Opposite-Spin Energy  =      -2.7179913110798686 [Eh]
	 SCS Correlation Energy    =      -2.9631645990774311 [Eh]
	 SCS Total Energy          =    -670.2337964056067676 [Eh]
	-----------------------------------------------------------

  Dipole Moment: [D]
     X:     0.4000      Y:    -1.7982      Z:    -0.1074     Total:     1.8452

*** Psi4 exiting successfully. Buy a developer a beer!
