                               Psi4 1.4a3.dev225

  ==> Input File <==

--------------------------------------------------------------------------
#psi4
#
memory 32 gb

molecule  {
0 1
  O       -0.5498120     2.2556960    -0.2996080
  N       -3.0129360     1.7813540     0.8248620
  C        1.0008190     0.4908720    -0.0872200
  C       -1.5329590     0.0859130    -0.1428360
  C       -0.3878030     1.0286420    -0.1846270
  C        3.6793340    -0.3535020     0.1683990
  C       -2.8127890     0.5150010     0.2964470
  C        1.1775183    -0.6213756     0.7486981
  C        2.0273690     1.1786660    -0.7492360
  C        2.6489240    -1.0168440     0.8468500
  C        3.3454510     0.7479200    -0.6334830
  C       -1.3791480    -1.2185740    -0.6492330
  C       -3.8612840    -0.4227650     0.3079770
  C       -2.4390410    -2.1168890    -0.6711390
  C        5.1038640    -0.8322750     0.2664150
  C       -3.6857840    -1.7096250    -0.1856360
  H        0.5383950    -1.1258400     1.2710410
  H        1.7737210     2.0503190    -1.3473030
  H        2.8902070    -1.8603380     1.4919100
  H        4.1335430     1.2826870    -1.1615780
  H       -0.4095800    -1.5185310    -1.0371660
  H       -4.8387790    -0.1097830     0.6721110
  H       -2.3031150    -3.1155080    -1.0770870
  H        5.8059070     0.0022690     0.1830070
  H        5.2850310    -1.3360150     1.2200590
  H        5.3367840    -1.5427250    -0.5345020
  H       -4.5250650    -2.4017370    -0.1822600
  H       -2.3845940     2.4838010     0.4485930
  H       -3.9825350     2.0742830     0.8527820
units angstrom
no_reorient  #important for SAPT in psi4, default
symmetry c1  #important for SAPT in psi4, default
}

set PROPERTIES_ORIGIN ["COM"]
properties('MP2/aug-cc-pvtz', properties = ['dipole'])
--------------------------------------------------------------------------

    Molecular point group: c1
  Charge       = 0
  Multiplicity = 1
  Basis Set: AUG-CC-PVTZ
    Blend: AUG-CC-PVTZ
  Basis Set: (AUG-CC-PVTZ AUX)
    Blend: AUG-CC-PVTZ-JKFIT

    Orbital Energies [Eh]
    ---------------------

    Doubly Occupied:

       1A    -20.536377     2A    -15.559930     3A    -11.335248
       4A    -11.296959     5A    -11.256280     6A    -11.256114
       7A    -11.252824     8A    -11.252140     9A    -11.251908
      10A    -11.249281    11A    -11.246073    12A    -11.241729
      13A    -11.239122    14A    -11.233011    15A    -11.232107
      16A    -11.228436    17A     -1.369843    18A     -1.226529
      19A     -1.157558    20A     -1.136804    21A     -1.072850
      22A     -1.034277    23A     -1.012199    24A     -0.996519
      25A     -0.949679    26A     -0.876786    27A     -0.853235
      28A     -0.836454    29A     -0.812161    30A     -0.763889
      31A     -0.713291    32A     -0.693653    33A     -0.685986
      34A     -0.667799    35A     -0.653426    36A     -0.637951
      37A     -0.612542    38A     -0.605945    39A     -0.602270
      40A     -0.587877    41A     -0.583609    42A     -0.581556
      43A     -0.556930    44A     -0.542845    45A     -0.530985
      46A     -0.516653    47A     -0.512706    48A     -0.506184
      49A     -0.494831    50A     -0.476831    51A     -0.452428
      52A     -0.414041    53A     -0.349682    54A     -0.340483
      55A     -0.329973    56A     -0.300466

  @DF-RHF Final Energy:  -667.24624434542022

   => Energetics <=

    Nuclear Repulsion Energy =            992.2690865234440025
    One-Electron Energy =               -2875.5961252962365506
    Two-Electron Energy =                1216.0807944273724388
    Total Energy =                       -667.2462443454201093
  Basis Set: (AUG-CC-PVTZ AUX)
    Blend: AUG-CC-PVTZ-RI
    Molecular point group: c1

    Geometry (in Angstrom), charge = 0, multiplicity = 1:

       Center              X                  Y                   Z               Mass
    ------------   -----------------  -----------------  -----------------  -----------------
         O           -0.507207927293     2.232347271050    -0.297432612878    15.994914619570
         N           -2.970331927293     1.758005271050     0.827037387122    14.003074004430
         C            1.043423072707     0.467523271050    -0.085044612878    12.000000000000
         C           -1.490354927293     0.062564271050    -0.140660612878    12.000000000000
         C           -0.345198927293     1.005293271050    -0.182451612878    12.000000000000
         C            3.721938072707    -0.376850728950     0.170574387122    12.000000000000
         C           -2.770184927293     0.491652271050     0.298622387122    12.000000000000
         C            1.220122372707    -0.644724328950     0.750873487122    12.000000000000
         C            2.069973072707     1.155317271050    -0.747060612878    12.000000000000
         C            2.691528072707    -1.040192728950     0.849025387122    12.000000000000
         C            3.388055072707     0.724571271050    -0.631307612878    12.000000000000
         C           -1.336543927293    -1.241922728950    -0.647057612878    12.000000000000
         C           -3.818679927293    -0.446113728950     0.310152387122    12.000000000000
         C           -2.396436927293    -2.140237728950    -0.668963612878    12.000000000000
         C            5.146468072707    -0.855623728950     0.268590387122    12.000000000000
         C           -3.643179927293    -1.732973728950    -0.183460612878    12.000000000000
         H            0.580999072707    -1.149188728950     1.273216387122     1.007825032230
         H            1.816325072707     2.026970271050    -1.345127612878     1.007825032230
         H            2.932811072707    -1.883686728950     1.494085387122     1.007825032230
         H            4.176147072707     1.259338271050    -1.159402612878     1.007825032230
         H           -0.366975927293    -1.541879728950    -1.034990612878     1.007825032230
         H           -4.796174927293    -0.133131728950     0.674286387122     1.007825032230
         H           -2.260510927293    -3.138856728950    -1.074911612878     1.007825032230
         H            5.848511072707    -0.021079728950     0.185182387122     1.007825032230
         H            5.327635072707    -1.359363728950     1.222234387122     1.007825032230
         H            5.379388072707    -1.566073728950    -0.532326612878     1.007825032230
         H           -4.482460927293    -2.425085728950    -0.180084612878     1.007825032230
         H           -2.341989927293     2.460452271050     0.450768387122     1.007825032230
         H           -3.939930927293     2.050934271050     0.854957387122     1.007825032230

  Basis Set: AUG-CC-PVTZ
    Blend: AUG-CC-PVTZ
  Basis Set: (AUG-CC-PVTZ AUX)
    Blend: AUG-CC-PVTZ-JKFIT
	 Reference Energy          =    -667.2462443454202230 [Eh]
	 Singles Energy            =      -0.0000000000000000 [Eh]
	 Same-Spin Energy          =      -0.7360160624270584 [Eh]
	 Opposite-Spin Energy      =      -2.2682345024387804 [Eh]
	 Correlation Energy        =      -3.0042505648658389 [Eh]
	 Total Energy              =    -670.2504949102860792 [Eh]

	 ================> DF-SCS-MP2 Energies <==================
	-----------------------------------------------------------
	 SCS Same-Spin Scale       =       0.3333333333333333 [-]
	 SCS Opposite-Spin Scale   =       1.2000000000000000 [-]
	 SCS Same-Spin Energy      =      -0.2453386874756861 [Eh]
	 SCS Opposite-Spin Energy  =      -2.7218814029265364 [Eh]
	 SCS Correlation Energy    =      -2.9672200904022223 [Eh]
	 SCS Total Energy          =    -670.2134644358224023 [Eh]
	-----------------------------------------------------------

  Dipole Moment: [D]
     X:     0.3910      Y:    -1.8117      Z:    -0.1095     Total:     1.8566

*** Psi4 exiting successfully. Buy a developer a beer!
