                               Psi4 1.4a3.dev225

  ==> Input File <==

--------------------------------------------------------------------------
#psi4
#
memory 32 gb

molecule  {
0 1
  O       -0.5498120     2.2556960    -0.2996080
  N       -3.0129360     1.7813540     0.8248620
  C        1.0008190     0.4908720    -0.0872200
  C       -1.5329590     0.0859130    -0.1428360
  C       -0.3878030     1.0286420    -0.1846270
  C        3.6793340    -0.3535020     0.1683990
  C       -2.8127890     0.5150010     0.2964470
  C        1.3212360    -0.6095270     0.7211930
  C        2.0273690     1.1786660    -0.7492360
  C        2.6653589    -1.0323121     0.8562467
  C        3.3454510     0.7479200    -0.6334830
  C       -1.3791480    -1.2185740    -0.6492330
  C       -3.8612840    -0.4227650     0.3079770
  C       -2.4390410    -2.1168890    -0.6711390
  C        5.1038640    -0.8322750     0.2664150
  C       -3.6857840    -1.7096250    -0.1856360
  H        0.5383950    -1.1258400     1.2710410
  H        1.7737210     2.0503190    -1.3473030
  H        2.8902070    -1.8603380     1.4919100
  H        4.1335430     1.2826870    -1.1615780
  H       -0.4095800    -1.5185310    -1.0371660
  H       -4.8387790    -0.1097830     0.6721110
  H       -2.3031150    -3.1155080    -1.0770870
  H        5.8059070     0.0022690     0.1830070
  H        5.2850310    -1.3360150     1.2200590
  H        5.3367840    -1.5427250    -0.5345020
  H       -4.5250650    -2.4017370    -0.1822600
  H       -2.3845940     2.4838010     0.4485930
  H       -3.9825350     2.0742830     0.8527820
units angstrom
no_reorient  #important for SAPT in psi4, default
symmetry c1  #important for SAPT in psi4, default
}

set PROPERTIES_ORIGIN ["COM"]
properties('MP2/aug-cc-pvtz', properties = ['dipole'])
--------------------------------------------------------------------------

    Molecular point group: c1
  Charge       = 0
  Multiplicity = 1
  Basis Set: AUG-CC-PVTZ
    Blend: AUG-CC-PVTZ
  Basis Set: (AUG-CC-PVTZ AUX)
    Blend: AUG-CC-PVTZ-JKFIT

    Orbital Energies [Eh]
    ---------------------

    Doubly Occupied:

       1A    -20.538162     2A    -15.560052     3A    -11.338712
       4A    -11.296921     5A    -11.257433     6A    -11.253211
       7A    -11.252739     8A    -11.252238     9A    -11.246715
      10A    -11.243812    11A    -11.239538    12A    -11.239141
      13A    -11.237919    14A    -11.232449    15A    -11.231966
      16A    -11.228287    17A     -1.371232    18A     -1.226586
      19A     -1.163518    20A     -1.137068    21A     -1.069757
      22A     -1.034780    23A     -1.018600    24A     -0.996536
      25A     -0.953834    26A     -0.876768    27A     -0.840371
      28A     -0.836016    29A     -0.813057    30A     -0.766700
      31A     -0.712934    32A     -0.691627    33A     -0.686311
      34A     -0.659986    35A     -0.645469    36A     -0.637915
      37A     -0.614176    38A     -0.603828    39A     -0.601247
      40A     -0.593419    41A     -0.584704    42A     -0.583497
      43A     -0.555975    44A     -0.544152    45A     -0.531823
      46A     -0.517087    47A     -0.511892    48A     -0.504033
      49A     -0.496530    50A     -0.481156    51A     -0.452280
      52A     -0.418958    53A     -0.349450    54A     -0.341292
      55A     -0.334747    56A     -0.300373

  @DF-RHF Final Energy:  -667.27571944409056

   => Energetics <=

    Nuclear Repulsion Energy =            992.4446020196951395
    One-Electron Energy =               -2876.0226887453218296
    Two-Electron Energy =                1216.3023672815361351
    Total Energy =                       -667.2757194440905550
  Basis Set: (AUG-CC-PVTZ AUX)
    Blend: AUG-CC-PVTZ-RI
    Molecular point group: c1

    Geometry (in Angstrom), charge = 0, multiplicity = 1:

       Center              X                  Y                   Z               Mass
    ------------   -----------------  -----------------  -----------------  -----------------
         O           -0.516311829725     2.232553022158    -0.296403237727    15.994914619570
         N           -2.979435829725     1.758211022158     0.828066762273    14.003074004430
         C            1.034319170275     0.467729022158    -0.084015237727    12.000000000000
         C           -1.499458829725     0.062770022158    -0.139631237727    12.000000000000
         C           -0.354302829725     1.005499022158    -0.181422237727    12.000000000000
         C            3.712834170275    -0.376644977842     0.171603762273    12.000000000000
         C           -2.779288829725     0.491858022158     0.299651762273    12.000000000000
         C            1.354736170275    -0.632669977842     0.724397762273    12.000000000000
         C            2.060869170275     1.155523022158    -0.746031237727    12.000000000000
         C            2.698859070275    -1.055455077842     0.859451462273    12.000000000000
         C            3.378951170275     0.724777022158    -0.630278237727    12.000000000000
         C           -1.345647829725    -1.241716977842    -0.646028237727    12.000000000000
         C           -3.827783829725    -0.445907977842     0.311181762273    12.000000000000
         C           -2.405540829725    -2.140031977842    -0.667934237727    12.000000000000
         C            5.137364170275    -0.855417977842     0.269619762273    12.000000000000
         C           -3.652283829725    -1.732767977842    -0.182431237727    12.000000000000
         H            0.571895170275    -1.148982977842     1.274245762273     1.007825032230
         H            1.807221170275     2.027176022158    -1.344098237727     1.007825032230
         H            2.923707170275    -1.883480977842     1.495114762273     1.007825032230
         H            4.167043170275     1.259544022158    -1.158373237727     1.007825032230
         H           -0.376079829725    -1.541673977842    -1.033961237727     1.007825032230
         H           -4.805278829725    -0.132925977842     0.675315762273     1.007825032230
         H           -2.269614829725    -3.138650977842    -1.073882237727     1.007825032230
         H            5.839407170275    -0.020873977842     0.186211762273     1.007825032230
         H            5.318531170275    -1.359157977842     1.223263762273     1.007825032230
         H            5.370284170275    -1.565867977842    -0.531297237727     1.007825032230
         H           -4.491564829725    -2.424879977842    -0.179055237727     1.007825032230
         H           -2.351093829725     2.460658022158     0.451797762273     1.007825032230
         H           -3.949034829725     2.051140022158     0.855986762273     1.007825032230

  Basis Set: AUG-CC-PVTZ
    Blend: AUG-CC-PVTZ
  Basis Set: (AUG-CC-PVTZ AUX)
    Blend: AUG-CC-PVTZ-JKFIT
	 Reference Energy          =    -667.2757194440905550 [Eh]
	 Singles Energy            =      -0.0000000000000000 [Eh]
	 Same-Spin Energy          =      -0.7354598711854660 [Eh]
	 Opposite-Spin Energy      =      -2.2656029772071689 [Eh]
	 Correlation Energy        =      -3.0010628483926349 [Eh]
	 Total Energy              =    -670.2767822924831762 [Eh]

	 ================> DF-SCS-MP2 Energies <==================
	-----------------------------------------------------------
	 SCS Same-Spin Scale       =       0.3333333333333333 [-]
	 SCS Opposite-Spin Scale   =       1.2000000000000000 [-]
	 SCS Same-Spin Energy      =      -0.2451532903951553 [Eh]
	 SCS Opposite-Spin Energy  =      -2.7187235726486025 [Eh]
	 SCS Correlation Energy    =      -2.9638768630437577 [Eh]
	 SCS Total Energy          =    -670.2395963071343203 [Eh]
	-----------------------------------------------------------

  Dipole Moment: [D]
     X:     0.3407      Y:    -1.8210      Z:    -0.0983     Total:     1.8552

*** Psi4 exiting successfully. Buy a developer a beer!
