                               Psi4 1.4a3.dev225

  ==> Input File <==

--------------------------------------------------------------------------
#psi4
#
memory 32 gb

molecule  {
0 1
  O       -0.5498120     2.2556960    -0.2996080
  N       -3.0129360     1.7813540     0.8248620
  C        1.0008190     0.4908720    -0.0872200
  C       -1.5329590     0.0859130    -0.1428360
  C       -0.3878030     1.0286420    -0.1846270
  C        3.6793340    -0.3535020     0.1683990
  C       -2.8127890     0.5150010     0.2964470
  C        1.3212360    -0.6095270     0.7211930
  C        2.0273690     1.1786660    -0.7492360
  C        2.6489240    -1.0168440     0.8468500
  C        3.3454510     0.7479200    -0.6334830
  C       -1.3511442    -1.2524229    -0.6697866
  C       -3.8612840    -0.4227650     0.3079770
  C       -2.4390410    -2.1168890    -0.6711390
  C        5.1038640    -0.8322750     0.2664150
  C       -3.6857840    -1.7096250    -0.1856360
  H        0.5383950    -1.1258400     1.2710410
  H        1.7737210     2.0503190    -1.3473030
  H        2.8902070    -1.8603380     1.4919100
  H        4.1335430     1.2826870    -1.1615780
  H       -0.4095800    -1.5185310    -1.0371660
  H       -4.8387790    -0.1097830     0.6721110
  H       -2.3031150    -3.1155080    -1.0770870
  H        5.8059070     0.0022690     0.1830070
  H        5.2850310    -1.3360150     1.2200590
  H        5.3367840    -1.5427250    -0.5345020
  H       -4.5250650    -2.4017370    -0.1822600
  H       -2.3845940     2.4838010     0.4485930
  H       -3.9825350     2.0742830     0.8527820
units angstrom
no_reorient  #important for SAPT in psi4, default
symmetry c1  #important for SAPT in psi4, default
}

set PROPERTIES_ORIGIN ["COM"]
properties('MP2/aug-cc-pvtz', properties = ['dipole'])
--------------------------------------------------------------------------

    Molecular point group: c1
  Charge       = 0
  Multiplicity = 1
  Basis Set: AUG-CC-PVTZ
    Blend: AUG-CC-PVTZ
  Basis Set: (AUG-CC-PVTZ AUX)
    Blend: AUG-CC-PVTZ-JKFIT

    Orbital Energies [Eh]
    ---------------------

    Doubly Occupied:

       1A    -20.536359     2A    -15.560055     3A    -11.336937
       4A    -11.297250     5A    -11.257085     6A    -11.253924
       7A    -11.253425     8A    -11.250243     9A    -11.245979
      10A    -11.243161    11A    -11.241704    12A    -11.238932
      13A    -11.237623    14A    -11.234224    15A    -11.233080
      16A    -11.230067    17A     -1.369623    18A     -1.226068
      19A     -1.164826    20A     -1.134002    21A     -1.068922
      22A     -1.031969    23A     -1.019985    24A     -0.998345
      25A     -0.953966    26A     -0.877866    27A     -0.840322
      28A     -0.837259    29A     -0.811680    30A     -0.764342
      31A     -0.713408    32A     -0.694377    33A     -0.684632
      34A     -0.660893    35A     -0.645010    36A     -0.635416
      37A     -0.614605    38A     -0.611009    39A     -0.598898
      40A     -0.592431    41A     -0.584195    42A     -0.581956
      43A     -0.555081    44A     -0.544355    45A     -0.529469
      46A     -0.518220    47A     -0.515883    48A     -0.504222
      49A     -0.493221    50A     -0.481565    51A     -0.451474
      52A     -0.417449    53A     -0.347127    54A     -0.341705
      55A     -0.333813    56A     -0.301824

  @DF-RHF Final Energy:  -667.27296476277309

   => Energetics <=

    Nuclear Repulsion Energy =            992.1322356321568350
    One-Electron Energy =               -2875.4074784814297345
    Two-Electron Energy =                1216.0022780864997003
    Total Energy =                       -667.2729647627731993
  Basis Set: (AUG-CC-PVTZ AUX)
    Blend: AUG-CC-PVTZ-RI
    Molecular point group: c1

    Geometry (in Angstrom), charge = 0, multiplicity = 1:

       Center              X                  Y                   Z               Mass
    ------------   -----------------  -----------------  -----------------  -----------------
         O           -0.516969465860     2.233597881934    -0.294700707709    15.994914619570
         N           -2.980093465860     1.759255881934     0.829769292291    14.003074004430
         C            1.033661534140     0.468773881934    -0.082312707709    12.000000000000
         C           -1.500116465860     0.063814881934    -0.137928707709    12.000000000000
         C           -0.354960465860     1.006543881934    -0.179719707709    12.000000000000
         C            3.712176534140    -0.375600118066     0.173306292291    12.000000000000
         C           -2.779946465860     0.492902881934     0.301354292291    12.000000000000
         C            1.354078534140    -0.631625118066     0.726100292291    12.000000000000
         C            2.060211534140     1.156567881934    -0.744328707709    12.000000000000
         C            2.681766534140    -1.038942118066     0.851757292291    12.000000000000
         C            3.378293534140     0.725821881934    -0.628575707709    12.000000000000
         C           -1.318301665860    -1.274521018066    -0.664879307709    12.000000000000
         C           -3.828441465860    -0.444863118066     0.312884292291    12.000000000000
         C           -2.406198465860    -2.138987118066    -0.666231707709    12.000000000000
         C            5.136706534140    -0.854373118066     0.271322292291    12.000000000000
         C           -3.652941465860    -1.731723118066    -0.180728707709    12.000000000000
         H            0.571237534140    -1.147938118066     1.275948292291     1.007825032230
         H            1.806563534140     2.028220881934    -1.342395707709     1.007825032230
         H            2.923049534140    -1.882436118066     1.496817292291     1.007825032230
         H            4.166385534140     1.260588881934    -1.156670707709     1.007825032230
         H           -0.376737465860    -1.540629118066    -1.032258707709     1.007825032230
         H           -4.805936465860    -0.131881118066     0.677018292291     1.007825032230
         H           -2.270272465860    -3.137606118066    -1.072179707709     1.007825032230
         H            5.838749534140    -0.019829118066     0.187914292291     1.007825032230
         H            5.317873534140    -1.358113118066     1.224966292291     1.007825032230
         H            5.369626534140    -1.564823118066    -0.529594707709     1.007825032230
         H           -4.492222465860    -2.423835118066    -0.177352707709     1.007825032230
         H           -2.351751465860     2.461702881934     0.453500292291     1.007825032230
         H           -3.949692465860     2.052184881934     0.857689292291     1.007825032230

  Basis Set: AUG-CC-PVTZ
    Blend: AUG-CC-PVTZ
  Basis Set: (AUG-CC-PVTZ AUX)
    Blend: AUG-CC-PVTZ-JKFIT
	 Reference Energy          =    -667.2729647627730856 [Eh]
	 Singles Energy            =      -0.0000000000000000 [Eh]
	 Same-Spin Energy          =      -0.7355988676899887 [Eh]
	 Opposite-Spin Energy      =      -2.2659629148889473 [Eh]
	 Correlation Energy        =      -3.0015617825789360 [Eh]
	 Total Energy              =    -670.2745265453520460 [Eh]

	 ================> DF-SCS-MP2 Energies <==================
	-----------------------------------------------------------
	 SCS Same-Spin Scale       =       0.3333333333333333 [-]
	 SCS Opposite-Spin Scale   =       1.2000000000000000 [-]
	 SCS Same-Spin Energy      =      -0.2451996225633296 [Eh]
	 SCS Opposite-Spin Energy  =      -2.7191554978667365 [Eh]
	 SCS Correlation Energy    =      -2.9643551204300662 [Eh]
	 SCS Total Energy          =    -670.2373198832030994 [Eh]
	-----------------------------------------------------------

  Dipole Moment: [D]
     X:     0.2921      Y:    -1.8444      Z:    -0.1022     Total:     1.8702

*** Psi4 exiting successfully. Buy a developer a beer!
