                               Psi4 1.4a3.dev225

  ==> Input File <==

--------------------------------------------------------------------------
#psi4
#
memory 32 gb

molecule  {
0 1
  O       -0.5498120     2.2556960    -0.2996080
  N       -3.0129360     1.7813540     0.8248620
  C        1.0008190     0.4908720    -0.0872200
  C       -1.5329590     0.0859130    -0.1428360
  C       -0.3878030     1.0286420    -0.1846270
  C        3.6793340    -0.3535020     0.1683990
  C       -2.8127890     0.5150010     0.2964470
  C        1.3212360    -0.6095270     0.7211930
  C        2.0273690     1.1786660    -0.7492360
  C        2.6489240    -1.0168440     0.8468500
  C        3.3454510     0.7479200    -0.6334830
  C       -1.3791480    -1.2185740    -0.6492330
  C       -3.8612840    -0.4227650     0.3079770
  C       -2.2864880    -1.9875923    -0.6679860
  C        5.1038640    -0.8322750     0.2664150
  C       -3.6857840    -1.7096250    -0.1856360
  H        0.5383950    -1.1258400     1.2710410
  H        1.7737210     2.0503190    -1.3473030
  H        2.8902070    -1.8603380     1.4919100
  H        4.1335430     1.2826870    -1.1615780
  H       -0.4095800    -1.5185310    -1.0371660
  H       -4.8387790    -0.1097830     0.6721110
  H       -2.3031150    -3.1155080    -1.0770870
  H        5.8059070     0.0022690     0.1830070
  H        5.2850310    -1.3360150     1.2200590
  H        5.3367840    -1.5427250    -0.5345020
  H       -4.5250650    -2.4017370    -0.1822600
  H       -2.3845940     2.4838010     0.4485930
  H       -3.9825350     2.0742830     0.8527820
units angstrom
no_reorient  #important for SAPT in psi4, default
symmetry c1  #important for SAPT in psi4, default
}

set PROPERTIES_ORIGIN ["COM"]
properties('MP2/aug-cc-pvtz', properties = ['dipole'])
--------------------------------------------------------------------------

    Molecular point group: c1
  Charge       = 0
  Multiplicity = 1
  Basis Set: AUG-CC-PVTZ
    Blend: AUG-CC-PVTZ
  Basis Set: (AUG-CC-PVTZ AUX)
    Blend: AUG-CC-PVTZ-JKFIT

    Orbital Energies [Eh]
    ---------------------

    Doubly Occupied:

       1A    -20.532112     2A    -15.563126     3A    -11.332955
       4A    -11.300016     5A    -11.266437     6A    -11.255042
       7A    -11.248308     8A    -11.243727     9A    -11.240883
      10A    -11.240713    11A    -11.237171    12A    -11.235684
      13A    -11.231630    14A    -11.229950    15A    -11.224612
      16A    -11.216376    17A     -1.365842    18A     -1.230044
      19A     -1.164273    20A     -1.154430    21A     -1.066037
      22A     -1.040226    23A     -1.020039    24A     -1.006741
      25A     -0.951554    26A     -0.881583    27A     -0.835917
      28A     -0.832416    29A     -0.804311    30A     -0.761941
      31A     -0.715024    32A     -0.692668    33A     -0.688406
      34A     -0.658328    35A     -0.640971    36A     -0.633024
      37A     -0.618592    38A     -0.609032    39A     -0.595625
      40A     -0.590654    41A     -0.583539    42A     -0.582406
      43A     -0.558843    44A     -0.550826    45A     -0.539183
      46A     -0.518648    47A     -0.508276    48A     -0.491400
      49A     -0.483384    50A     -0.467450    51A     -0.456415
      52A     -0.415092    53A     -0.358680    54A     -0.341648
      55A     -0.331548    56A     -0.304145

  @DF-RHF Final Energy:  -667.21356886549438

   => Energetics <=

    Nuclear Repulsion Energy =            996.3724572531884860
    One-Electron Energy =               -2883.8762516355791377
    Two-Electron Energy =                1220.2902255168962711
    Total Energy =                       -667.2135688654943806
  Basis Set: (AUG-CC-PVTZ AUX)
    Blend: AUG-CC-PVTZ-RI
    Molecular point group: c1

    Geometry (in Angstrom), charge = 0, multiplicity = 1:

       Center              X                  Y                   Z               Mass
    ------------   -----------------  -----------------  -----------------  -----------------
         O           -0.524049486819     2.224323841897    -0.296048313514    15.994914619570
         N           -2.987173486819     1.749981841897     0.828421686486    14.003074004430
         C            1.026581513181     0.459499841897    -0.083660313514    12.000000000000
         C           -1.507196486819     0.054540841897    -0.139276313514    12.000000000000
         C           -0.362040486819     0.997269841897    -0.181067313514    12.000000000000
         C            3.705096513181    -0.384874158103     0.171958686486    12.000000000000
         C           -2.787026486819     0.483628841897     0.300006686486    12.000000000000
         C            1.346998513181    -0.640899158103     0.724752686486    12.000000000000
         C            2.053131513181     1.147293841897    -0.745676313514    12.000000000000
         C            2.674686513181    -1.048216158103     0.850409686486    12.000000000000
         C            3.371213513181     0.716547841897    -0.629923313514    12.000000000000
         C           -1.353385486819    -1.249946158103    -0.645673313514    12.000000000000
         C           -3.835521486819    -0.454137158103     0.311536686486    12.000000000000
         C           -2.260725486819    -2.018964458103    -0.664426313514    12.000000000000
         C            5.129626513181    -0.863647158103     0.269974686486    12.000000000000
         C           -3.660021486819    -1.740997158103    -0.182076313514    12.000000000000
         H            0.564157513181    -1.157212158103     1.274600686486     1.007825032230
         H            1.799483513181     2.018946841897    -1.343743313514     1.007825032230
         H            2.915969513181    -1.891710158103     1.495469686486     1.007825032230
         H            4.159305513181     1.251314841897    -1.158018313514     1.007825032230
         H           -0.383817486819    -1.549903158103    -1.033606313514     1.007825032230
         H           -4.813016486819    -0.141155158103     0.675670686486     1.007825032230
         H           -2.277352486819    -3.146880158103    -1.073527313514     1.007825032230
         H            5.831669513181    -0.029103158103     0.186566686486     1.007825032230
         H            5.310793513181    -1.367387158103     1.223618686486     1.007825032230
         H            5.362546513181    -1.574097158103    -0.530942313514     1.007825032230
         H           -4.499302486819    -2.433109158103    -0.178700313514     1.007825032230
         H           -2.358831486819     2.452428841897     0.452152686486     1.007825032230
         H           -3.956772486819     2.042910841897     0.856341686486     1.007825032230

  Basis Set: AUG-CC-PVTZ
    Blend: AUG-CC-PVTZ
  Basis Set: (AUG-CC-PVTZ AUX)
    Blend: AUG-CC-PVTZ-JKFIT
	 Reference Energy          =    -667.2135688654943806 [Eh]
	 Singles Energy            =      -0.0000000000000000 [Eh]
	 Same-Spin Energy          =      -0.7349350499698104 [Eh]
	 Opposite-Spin Energy      =      -2.2667978573762588 [Eh]
	 Correlation Energy        =      -3.0017329073460690 [Eh]
	 Total Energy              =    -670.2153017728404620 [Eh]

	 ================> DF-SCS-MP2 Energies <==================
	-----------------------------------------------------------
	 SCS Same-Spin Scale       =       0.3333333333333333 [-]
	 SCS Opposite-Spin Scale   =       1.2000000000000000 [-]
	 SCS Same-Spin Energy      =      -0.2449783499899368 [Eh]
	 SCS Opposite-Spin Energy  =      -2.7201574288515107 [Eh]
	 SCS Correlation Energy    =      -2.9651357788414474 [Eh]
	 SCS Total Energy          =    -670.1787046443358804 [Eh]
	-----------------------------------------------------------

  Dipole Moment: [D]
     X:     0.0061      Y:    -1.8220      Z:    -0.0338     Total:     1.8224

*** Psi4 exiting successfully. Buy a developer a beer!
