                               Psi4 1.4a3.dev225

  ==> Input File <==

--------------------------------------------------------------------------
#psi4
#
memory 32 gb

molecule  {
0 1
  O       -0.5498120     2.2556960    -0.2996080
  N       -3.0129360     1.7813540     0.8248620
  C        1.0008190     0.4908720    -0.0872200
  C       -1.5329590     0.0859130    -0.1428360
  C       -0.3878030     1.0286420    -0.1846270
  C        3.6793340    -0.3535020     0.1683990
  C       -2.8127890     0.5150010     0.2964470
  C        1.3212360    -0.6095270     0.7211930
  C        2.0273690     1.1786660    -0.7492360
  C        2.6489240    -1.0168440     0.8468500
  C        3.3454510     0.7479200    -0.6334830
  C       -1.3791480    -1.2185740    -0.6492330
  C       -3.8612840    -0.4227650     0.3079770
  C       -2.4390410    -2.1168890    -0.6711390
  C        5.1038640    -0.8322750     0.2664150
  C       -3.6857840    -1.7096250    -0.1856360
  H        0.5383950    -1.1258400     1.2710410
  H        1.7737210     2.0503190    -1.3473030
  H        2.8902070    -1.8603380     1.4919100
  H        4.1335430     1.2826870    -1.1615780
  H       -0.4095800    -1.5185310    -1.0371660
  H       -4.8387790    -0.1097830     0.6721110
  H       -2.3031150    -3.1155080    -1.0770870
  H        5.8187444     0.0175293     0.1814818
  H        5.2850310    -1.3360150     1.2200590
  H        5.3367840    -1.5427250    -0.5345020
  H       -4.5250650    -2.4017370    -0.1822600
  H       -2.3845940     2.4838010     0.4485930
  H       -3.9825350     2.0742830     0.8527820
units angstrom
no_reorient  #important for SAPT in psi4, default
symmetry c1  #important for SAPT in psi4, default
}

set PROPERTIES_ORIGIN ["COM"]
properties('MP2/aug-cc-pvtz', properties = ['dipole'])
--------------------------------------------------------------------------

    Molecular point group: c1
  Charge       = 0
  Multiplicity = 1
  Basis Set: AUG-CC-PVTZ
    Blend: AUG-CC-PVTZ
  Basis Set: (AUG-CC-PVTZ AUX)
    Blend: AUG-CC-PVTZ-JKFIT

    Orbital Energies [Eh]
    ---------------------

    Doubly Occupied:

       1A    -20.538050     2A    -15.560047     3A    -11.338521
       4A    -11.296926     5A    -11.257503     6A    -11.252751
       7A    -11.252286     8A    -11.250664     9A    -11.246354
      10A    -11.243619    11A    -11.239249    12A    -11.239142
      13A    -11.237840    14A    -11.235621    15A    -11.231987
      16A    -11.228326    17A     -1.371108    18A     -1.226585
      19A     -1.165240    20A     -1.137132    21A     -1.069376
      22A     -1.034479    23A     -1.020646    24A     -0.996566
      25A     -0.953550    26A     -0.876808    27A     -0.838885
      28A     -0.836235    29A     -0.813043    30A     -0.766196
      31A     -0.712774    32A     -0.691761    33A     -0.686234
      34A     -0.660925    35A     -0.645273    36A     -0.636352
      37A     -0.614190    38A     -0.603741    39A     -0.599874
      40A     -0.592721    41A     -0.584783    42A     -0.582827
      43A     -0.555415    44A     -0.543284    45A     -0.531651
      46A     -0.517790    47A     -0.513298    48A     -0.504931
      49A     -0.493475    50A     -0.481999    51A     -0.452317
      52A     -0.418961    53A     -0.349755    54A     -0.343132
      55A     -0.334011    56A     -0.300383

  @DF-RHF Final Energy:  -667.27605997253670

   => Energetics <=

    Nuclear Repulsion Energy =            992.7940524663821407
    One-Electron Energy =               -2876.7270392853774865
    Two-Electron Energy =                1216.6569268464584184
    Total Energy =                       -667.2760599725368138
  Basis Set: (AUG-CC-PVTZ AUX)
    Blend: AUG-CC-PVTZ-RI
    Molecular point group: c1

    Geometry (in Angstrom), charge = 0, multiplicity = 1:

       Center              X                  Y                   Z               Mass
    ------------   -----------------  -----------------  -----------------  -----------------
         O           -0.515438872849     2.231600880118    -0.295861799122    15.994914619570
         N           -2.978562872849     1.757258880118     0.828608200878    14.003074004430
         C            1.035192127151     0.466776880118    -0.083473799122    12.000000000000
         C           -1.498585872849     0.061817880118    -0.139089799122    12.000000000000
         C           -0.353429872849     1.004546880118    -0.180880799122    12.000000000000
         C            3.713707127151    -0.377597119882     0.172145200878    12.000000000000
         C           -2.778415872849     0.490905880118     0.300193200878    12.000000000000
         C            1.355609127151    -0.633622119882     0.724939200878    12.000000000000
         C            2.061742127151     1.154570880118    -0.745489799122    12.000000000000
         C            2.683297127151    -1.040939119882     0.850596200878    12.000000000000
         C            3.379824127151     0.723824880118    -0.629736799122    12.000000000000
         C           -1.344774872849    -1.242669119882    -0.645486799122    12.000000000000
         C           -3.826910872849    -0.446860119882     0.311723200878    12.000000000000
         C           -2.404667872849    -2.140984119882    -0.667392799122    12.000000000000
         C            5.138237127151    -0.856370119882     0.270161200878    12.000000000000
         C           -3.651410872849    -1.733720119882    -0.181889799122    12.000000000000
         H            0.572768127151    -1.149935119882     1.274787200878     1.007825032230
         H            1.808094127151     2.026223880118    -1.343556799122     1.007825032230
         H            2.924580127151    -1.884433119882     1.495656200878     1.007825032230
         H            4.167916127151     1.258591880118    -1.157831799122     1.007825032230
         H           -0.375206872849    -1.542626119882    -1.033419799122     1.007825032230
         H           -4.804405872849    -0.133878119882     0.675857200878     1.007825032230
         H           -2.268741872849    -3.139603119882    -1.073340799122     1.007825032230
         H            5.853117527151    -0.006565819882     0.185228000878     1.007825032230
         H            5.319404127151    -1.360110119882     1.223805200878     1.007825032230
         H            5.371157127151    -1.566820119882    -0.530755799122     1.007825032230
         H           -4.490691872849    -2.425832119882    -0.178513799122     1.007825032230
         H           -2.350220872849     2.459705880118     0.452339200878     1.007825032230
         H           -3.948161872849     2.050187880118     0.856528200878     1.007825032230

  Basis Set: AUG-CC-PVTZ
    Blend: AUG-CC-PVTZ
  Basis Set: (AUG-CC-PVTZ AUX)
    Blend: AUG-CC-PVTZ-JKFIT
	 Reference Energy          =    -667.2760599725367001 [Eh]
	 Singles Energy            =      -0.0000000000000000 [Eh]
	 Same-Spin Energy          =      -0.7355269355269793 [Eh]
	 Opposite-Spin Energy      =      -2.2656471510962306 [Eh]
	 Correlation Energy        =      -3.0011740866232097 [Eh]
	 Total Energy              =    -670.2772340591599232 [Eh]

	 ================> DF-SCS-MP2 Energies <==================
	-----------------------------------------------------------
	 SCS Same-Spin Scale       =       0.3333333333333333 [-]
	 SCS Opposite-Spin Scale   =       1.2000000000000000 [-]
	 SCS Same-Spin Energy      =      -0.2451756451756598 [Eh]
	 SCS Opposite-Spin Energy  =      -2.7187765813154767 [Eh]
	 SCS Correlation Energy    =      -2.9639522264911364 [Eh]
	 SCS Total Energy          =    -670.2400121990278876 [Eh]
	-----------------------------------------------------------

  Dipole Moment: [D]
     X:     0.3408      Y:    -1.8188      Z:    -0.1052     Total:     1.8535

*** Psi4 exiting successfully. Buy a developer a beer!
