                               Psi4 1.4a3.dev225

  ==> Input File <==

--------------------------------------------------------------------------
#psi4
#
memory 32 gb

molecule  {
0 1
  O       -0.5498120     2.2556960    -0.2996080
  N       -3.0129360     1.7813540     0.8248620
  C        1.0008190     0.4908720    -0.0872200
  C       -1.5329590     0.0859130    -0.1428360
  C       -0.3878030     1.0286420    -0.1846270
  C        3.6793340    -0.3535020     0.1683990
  C       -2.8127890     0.5150010     0.2964470
  C        1.3212360    -0.6095270     0.7211930
  C        2.0273690     1.1786660    -0.7492360
  C        2.5018000    -1.1115573     0.9437206
  C        3.3454510     0.7479200    -0.6334830
  C       -1.3791480    -1.2185740    -0.6492330
  C       -3.8612840    -0.4227650     0.3079770
  C       -2.4390410    -2.1168890    -0.6711390
  C        5.1038640    -0.8322750     0.2664150
  C       -3.6857840    -1.7096250    -0.1856360
  H        0.5383950    -1.1258400     1.2710410
  H        1.7737210     2.0503190    -1.3473030
  H        2.8902070    -1.8603380     1.4919100
  H        4.1335430     1.2826870    -1.1615780
  H       -0.4095800    -1.5185310    -1.0371660
  H       -4.8387790    -0.1097830     0.6721110
  H       -2.3031150    -3.1155080    -1.0770870
  H        5.8059070     0.0022690     0.1830070
  H        5.2850310    -1.3360150     1.2200590
  H        5.3367840    -1.5427250    -0.5345020
  H       -4.5250650    -2.4017370    -0.1822600
  H       -2.3845940     2.4838010     0.4485930
  H       -3.9825350     2.0742830     0.8527820
units angstrom
no_reorient  #important for SAPT in psi4, default
symmetry c1  #important for SAPT in psi4, default
}

set PROPERTIES_ORIGIN ["COM"]
properties('MP2/aug-cc-pvtz', properties = ['dipole'])
--------------------------------------------------------------------------

    Molecular point group: c1
  Charge       = 0
  Multiplicity = 1
  Basis Set: AUG-CC-PVTZ
    Blend: AUG-CC-PVTZ
  Basis Set: (AUG-CC-PVTZ AUX)
    Blend: AUG-CC-PVTZ-JKFIT

    Orbital Energies [Eh]
    ---------------------

    Doubly Occupied:

       1A    -20.535062     2A    -15.558552     3A    -11.336874
       4A    -11.295239     5A    -11.275746     6A    -11.252166
       7A    -11.251262     8A    -11.250857     9A    -11.241601
      10A    -11.240960    11A    -11.238465    12A    -11.237263
      13A    -11.236580    14A    -11.236195    15A    -11.230555
      16A    -11.226973    17A     -1.368554    18A     -1.225028
      19A     -1.159225    20A     -1.135056    21A     -1.062336
      22A     -1.036792    23A     -1.031278    24A     -0.995144
      25A     -0.955855    26A     -0.874371    27A     -0.839359
      28A     -0.825527    29A     -0.812365    30A     -0.768499
      31A     -0.711992    32A     -0.692187    33A     -0.685437
      34A     -0.669624    35A     -0.651662    36A     -0.630921
      37A     -0.615324    38A     -0.604145    39A     -0.602123
      40A     -0.596399    41A     -0.583899    42A     -0.582429
      43A     -0.558141    44A     -0.546252    45A     -0.531113
      46A     -0.521161    47A     -0.515016    48A     -0.505914
      49A     -0.480391    50A     -0.459525    51A     -0.449133
      52A     -0.417759    53A     -0.363355    54A     -0.346366
      55A     -0.316739    56A     -0.298701

  @DF-RHF Final Energy:  -667.23602125312482

   => Energetics <=

    Nuclear Repulsion Energy =            991.6491756631553471
    One-Electron Energy =               -2874.4314987251768798
    Two-Electron Energy =                1215.5463018088967146
    Total Energy =                       -667.2360212531248180
  Basis Set: (AUG-CC-PVTZ AUX)
    Blend: AUG-CC-PVTZ-RI
    Molecular point group: c1

    Geometry (in Angstrom), charge = 0, multiplicity = 1:

       Center              X                  Y                   Z               Mass
    ------------   -----------------  -----------------  -----------------  -----------------
         O           -0.507014295576     2.237057729350    -0.301375706803    15.994914619570
         N           -2.970138295576     1.762715729350     0.823094293197    14.003074004430
         C            1.043616704424     0.472233729350    -0.088987706803    12.000000000000
         C           -1.490161295576     0.067274729350    -0.144603706803    12.000000000000
         C           -0.345005295576     1.010003729350    -0.186394706803    12.000000000000
         C            3.722131704424    -0.372140270650     0.166631293197    12.000000000000
         C           -2.769991295576     0.496362729350     0.294679293197    12.000000000000
         C            1.364033704424    -0.628165270650     0.719425293197    12.000000000000
         C            2.070166704424     1.160027729350    -0.751003706803    12.000000000000
         C            2.544597704424    -1.130195570650     0.941952893197    12.000000000000
         C            3.388248704424     0.729281729350    -0.635250706803    12.000000000000
         C           -1.336350295576    -1.237212270650    -0.651000706803    12.000000000000
         C           -3.818486295576    -0.441403270650     0.306209293197    12.000000000000
         C           -2.396243295576    -2.135527270650    -0.672906706803    12.000000000000
         C            5.146661704424    -0.850913270650     0.264647293197    12.000000000000
         C           -3.642986295576    -1.728263270650    -0.187403706803    12.000000000000
         H            0.581192704424    -1.144478270650     1.269273293197     1.007825032230
         H            1.816518704424     2.031680729350    -1.349070706803     1.007825032230
         H            2.933004704424    -1.878976270650     1.490142293197     1.007825032230
         H            4.176340704424     1.264048729350    -1.163345706803     1.007825032230
         H           -0.366782295576    -1.537169270650    -1.038933706803     1.007825032230
         H           -4.795981295576    -0.128421270650     0.670343293197     1.007825032230
         H           -2.260317295576    -3.134146270650    -1.078854706803     1.007825032230
         H            5.848704704424    -0.016369270650     0.181239293197     1.007825032230
         H            5.327828704424    -1.354653270650     1.218291293197     1.007825032230
         H            5.379581704424    -1.561363270650    -0.536269706803     1.007825032230
         H           -4.482267295576    -2.420375270650    -0.184027706803     1.007825032230
         H           -2.341796295576     2.465162729350     0.446825293197     1.007825032230
         H           -3.939737295576     2.055644729350     0.851014293197     1.007825032230

  Basis Set: AUG-CC-PVTZ
    Blend: AUG-CC-PVTZ
  Basis Set: (AUG-CC-PVTZ AUX)
    Blend: AUG-CC-PVTZ-JKFIT
	 Reference Energy          =    -667.2360212531248180 [Eh]
	 Singles Energy            =      -0.0000000000000000 [Eh]
	 Same-Spin Energy          =      -0.7349231839211383 [Eh]
	 Opposite-Spin Energy      =      -2.2672232719973922 [Eh]
	 Correlation Energy        =      -3.0021464559185302 [Eh]
	 Total Energy              =    -670.2381677090432959 [Eh]

	 ================> DF-SCS-MP2 Energies <==================
	-----------------------------------------------------------
	 SCS Same-Spin Scale       =       0.3333333333333333 [-]
	 SCS Opposite-Spin Scale   =       1.2000000000000000 [-]
	 SCS Same-Spin Energy      =      -0.2449743946403794 [Eh]
	 SCS Opposite-Spin Energy  =      -2.7206679263968705 [Eh]
	 SCS Correlation Energy    =      -2.9656423210372500 [Eh]
	 SCS Total Energy          =    -670.2016635741620121 [Eh]
	-----------------------------------------------------------

  Dipole Moment: [D]
     X:     0.5054      Y:    -1.8552      Z:    -0.0876     Total:     1.9248

*** Psi4 exiting successfully. Buy a developer a beer!
