                               Psi4 1.4a3.dev225

  ==> Input File <==

--------------------------------------------------------------------------
#psi4
#
memory 32 gb

molecule  {
0 1
  O       -0.5498120     2.2556960    -0.2996080
  N       -3.0129360     1.7813540     0.8248620
  C        1.0008190     0.4908720    -0.0872200
  C       -1.5329590     0.0859130    -0.1428360
  C       -0.3878030     1.0286420    -0.1846270
  C        3.6793340    -0.3535020     0.1683990
  C       -2.8127890     0.5150010     0.2964470
  C        1.3212360    -0.6095270     0.7211930
  C        2.0273690     1.1786660    -0.7492360
  C        2.6328030    -1.0011739     0.8372467
  C        3.3454510     0.7479200    -0.6334830
  C       -1.3791480    -1.2185740    -0.6492330
  C       -3.8612840    -0.4227650     0.3079770
  C       -2.4390410    -2.1168890    -0.6711390
  C        5.1038640    -0.8322750     0.2664150
  C       -3.6857840    -1.7096250    -0.1856360
  H        0.5383950    -1.1258400     1.2710410
  H        1.7737210     2.0503190    -1.3473030
  H        2.8902070    -1.8603380     1.4919100
  H        4.1335430     1.2826870    -1.1615780
  H       -0.4095800    -1.5185310    -1.0371660
  H       -4.8387790    -0.1097830     0.6721110
  H       -2.3031150    -3.1155080    -1.0770870
  H        5.8059070     0.0022690     0.1830070
  H        5.2850310    -1.3360150     1.2200590
  H        5.3367840    -1.5427250    -0.5345020
  H       -4.5250650    -2.4017370    -0.1822600
  H       -2.3845940     2.4838010     0.4485930
  H       -3.9825350     2.0742830     0.8527820
units angstrom
no_reorient  #important for SAPT in psi4, default
symmetry c1  #important for SAPT in psi4, default
}

set PROPERTIES_ORIGIN ["COM"]
properties('MP2/aug-cc-pvtz', properties = ['dipole'])
--------------------------------------------------------------------------

    Molecular point group: c1
  Charge       = 0
  Multiplicity = 1
  Basis Set: AUG-CC-PVTZ
    Blend: AUG-CC-PVTZ
  Basis Set: (AUG-CC-PVTZ AUX)
    Blend: AUG-CC-PVTZ-JKFIT

    Orbital Energies [Eh]
    ---------------------

    Doubly Occupied:

       1A    -20.537869     2A    -15.559999     3A    -11.338259
       4A    -11.296882     5A    -11.257327     6A    -11.252717
       7A    -11.252282     8A    -11.247944     9A    -11.245962
      10A    -11.243309    11A    -11.239090    12A    -11.238698
      13A    -11.237733    14A    -11.234018    15A    -11.231963
      16A    -11.228317    17A     -1.370919    18A     -1.226538
      19A     -1.167041    20A     -1.137148    21A     -1.069448
      22A     -1.034387    23A     -1.022714    24A     -0.996566
      25A     -0.955340    26A     -0.877260    27A     -0.837747
      28A     -0.836669    29A     -0.813086    30A     -0.765722
      31A     -0.712596    32A     -0.691972    33A     -0.686134
      34A     -0.662575    35A     -0.645214    36A     -0.635312
      37A     -0.614248    38A     -0.603683    39A     -0.598825
      40A     -0.591085    41A     -0.584904    42A     -0.584018
      43A     -0.555618    44A     -0.545266    45A     -0.531989
      46A     -0.519431    47A     -0.514328    48A     -0.505627
      49A     -0.489814    50A     -0.482888    51A     -0.452307
      52A     -0.418857    53A     -0.350203    54A     -0.344750
      55A     -0.333234    56A     -0.300347

  @DF-RHF Final Energy:  -667.27585273537363

   => Energetics <=

    Nuclear Repulsion Energy =            993.3286175772999513
    One-Electron Energy =               -2877.7925893115889266
    Two-Electron Energy =                1217.1881189989153427
    Total Energy =                       -667.2758527353735190
  Basis Set: (AUG-CC-PVTZ AUX)
    Blend: AUG-CC-PVTZ-RI
    Molecular point group: c1

    Geometry (in Angstrom), charge = 0, multiplicity = 1:

       Center              X                  Y                   Z               Mass
    ------------   -----------------  -----------------  -----------------  -----------------
         O           -0.514461183921     2.230782965758    -0.295323179419    15.994914619570
         N           -2.977585183921     1.756440965758     0.829146820581    14.003074004430
         C            1.036169816079     0.465958965758    -0.082935179419    12.000000000000
         C           -1.497608183921     0.060999965758    -0.138551179419    12.000000000000
         C           -0.352452183921     1.003728965758    -0.180342179419    12.000000000000
         C            3.714684816079    -0.378415034242     0.172683820581    12.000000000000
         C           -2.777438183921     0.490087965758     0.300731820581    12.000000000000
         C            1.356586816079    -0.634440034242     0.725477820581    12.000000000000
         C            2.062719816079     1.153752965758    -0.744951179419    12.000000000000
         C            2.668153816079    -1.026086934242     0.841531520581    12.000000000000
         C            3.380801816079     0.723006965758    -0.629198179419    12.000000000000
         C           -1.343797183921    -1.243487034242    -0.644948179419    12.000000000000
         C           -3.825933183921    -0.447678034242     0.312261820581    12.000000000000
         C           -2.403690183921    -2.141802034242    -0.666854179419    12.000000000000
         C            5.139214816079    -0.857188034242     0.270699820581    12.000000000000
         C           -3.650433183921    -1.734538034242    -0.181351179419    12.000000000000
         H            0.573745816079    -1.150753034242     1.275325820581     1.007825032230
         H            1.809071816079     2.025405965758    -1.343018179419     1.007825032230
         H            2.925557816079    -1.885251034242     1.496194820581     1.007825032230
         H            4.168893816079     1.257773965758    -1.157293179419     1.007825032230
         H           -0.374229183921    -1.543444034242    -1.032881179419     1.007825032230
         H           -4.803428183921    -0.134696034242     0.676395820581     1.007825032230
         H           -2.267764183921    -3.140421034242    -1.072802179419     1.007825032230
         H            5.841257816079    -0.022644034242     0.187291820581     1.007825032230
         H            5.320381816079    -1.360928034242     1.224343820581     1.007825032230
         H            5.372134816079    -1.567638034242    -0.530217179419     1.007825032230
         H           -4.489714183921    -2.426650034242    -0.177975179419     1.007825032230
         H           -2.349243183921     2.458887965758     0.452877820581     1.007825032230
         H           -3.947184183921     2.049369965758     0.857066820581     1.007825032230

  Basis Set: AUG-CC-PVTZ
    Blend: AUG-CC-PVTZ
  Basis Set: (AUG-CC-PVTZ AUX)
    Blend: AUG-CC-PVTZ-JKFIT
	 Reference Energy          =    -667.2758527353736326 [Eh]
	 Singles Energy            =      -0.0000000000000000 [Eh]
	 Same-Spin Energy          =      -0.7356022855294055 [Eh]
	 Opposite-Spin Energy      =      -2.2655080627903867 [Eh]
	 Correlation Energy        =      -3.0011103483197923 [Eh]
	 Total Energy              =    -670.2769630836934311 [Eh]

	 ================> DF-SCS-MP2 Energies <==================
	-----------------------------------------------------------
	 SCS Same-Spin Scale       =       0.3333333333333333 [-]
	 SCS Opposite-Spin Scale   =       1.2000000000000000 [-]
	 SCS Same-Spin Energy      =      -0.2452007618431352 [Eh]
	 SCS Opposite-Spin Energy  =      -2.7186096753484641 [Eh]
	 SCS Correlation Energy    =      -2.9638104371915994 [Eh]
	 SCS Total Energy          =    -670.2396631725652014 [Eh]
	-----------------------------------------------------------

  Dipole Moment: [D]
     X:     0.3626      Y:    -1.8059      Z:    -0.1147     Total:     1.8455

*** Psi4 exiting successfully. Buy a developer a beer!
