                               Psi4 1.4a3.dev225

  ==> Input File <==

--------------------------------------------------------------------------
#psi4
#
memory 32 gb

molecule  {
0 1
  O       -0.5498120     2.2556960    -0.2996080
  N       -3.0129360     1.7813540     0.8248620
  C        1.0008190     0.4908720    -0.0872200
  C       -1.5329590     0.0859130    -0.1428360
  C       -0.3878030     1.0286420    -0.1846270
  C        3.6793340    -0.3535020     0.1683990
  C       -2.8127890     0.5150010     0.2964470
  C        1.3212360    -0.6095270     0.7211930
  C        2.0273690     1.1786660    -0.7492360
  C        2.6489240    -1.0168440     0.8468500
  C        3.3454510     0.7479200    -0.6334830
  C       -1.3791480    -1.2185740    -0.6492330
  C       -3.9535679    -0.4461142     0.3265114
  C       -2.4390410    -2.1168890    -0.6711390
  C        5.1038640    -0.8322750     0.2664150
  C       -3.6857840    -1.7096250    -0.1856360
  H        0.5383950    -1.1258400     1.2710410
  H        1.7737210     2.0503190    -1.3473030
  H        2.8902070    -1.8603380     1.4919100
  H        4.1335430     1.2826870    -1.1615780
  H       -0.4095800    -1.5185310    -1.0371660
  H       -4.8387790    -0.1097830     0.6721110
  H       -2.3031150    -3.1155080    -1.0770870
  H        5.8059070     0.0022690     0.1830070
  H        5.2850310    -1.3360150     1.2200590
  H        5.3367840    -1.5427250    -0.5345020
  H       -4.5250650    -2.4017370    -0.1822600
  H       -2.3845940     2.4838010     0.4485930
  H       -3.9825350     2.0742830     0.8527820
units angstrom
no_reorient  #important for SAPT in psi4, default
symmetry c1  #important for SAPT in psi4, default
}

set PROPERTIES_ORIGIN ["COM"]
properties('MP2/aug-cc-pvtz', properties = ['dipole'])
--------------------------------------------------------------------------

    Molecular point group: c1
  Charge       = 0
  Multiplicity = 1
  Basis Set: AUG-CC-PVTZ
    Blend: AUG-CC-PVTZ
  Basis Set: (AUG-CC-PVTZ AUX)
    Blend: AUG-CC-PVTZ-JKFIT

    Orbital Energies [Eh]
    ---------------------

    Doubly Occupied:

       1A    -20.537187     2A    -15.564017     3A    -11.338302
       4A    -11.307899     5A    -11.257225     6A    -11.253052
       7A    -11.252554     8A    -11.250498     9A    -11.246216
      10A    -11.243462    11A    -11.239020    12A    -11.237712
      13A    -11.237282    14A    -11.234474    15A    -11.233141
      16A    -11.226824    17A     -1.370540    18A     -1.225368
      19A     -1.165056    20A     -1.133710    21A     -1.069220
      22A     -1.035443    23A     -1.020668    24A     -0.990903
      25A     -0.954177    26A     -0.871874    27A     -0.843814
      28A     -0.837642    29A     -0.811137    30A     -0.766250
      31A     -0.716208    32A     -0.692799    33A     -0.686239
      34A     -0.662554    35A     -0.648599    36A     -0.638433
      37A     -0.614808    38A     -0.608326    39A     -0.598421
      40A     -0.592901    41A     -0.584928    42A     -0.583661
      43A     -0.554186    44A     -0.542910    45A     -0.528024
      46A     -0.518338    47A     -0.509293    48A     -0.507638
      49A     -0.493392    50A     -0.481749    51A     -0.452747
      52A     -0.417612    53A     -0.351478    54A     -0.343365
      55A     -0.333860    56A     -0.294842

  @DF-RHF Final Energy:  -667.26495978692060

   => Energetics <=

    Nuclear Repulsion Energy =            990.8935635301338607
    One-Electron Energy =               -2872.8930877870511722
    Two-Electron Energy =                1214.7345644699967124
    Total Energy =                       -667.2649597869205991
  Basis Set: (AUG-CC-PVTZ AUX)
    Blend: AUG-CC-PVTZ-RI
    Molecular point group: c1

    Geometry (in Angstrom), charge = 0, multiplicity = 1:

       Center              X                  Y                   Z               Mass
    ------------   -----------------  -----------------  -----------------  -----------------
         O           -0.510131690609     2.233001024660    -0.296922671875    15.994914619570
         N           -2.973255690609     1.758659024660     0.827547328125    14.003074004430
         C            1.040499309391     0.468177024660    -0.084534671875    12.000000000000
         C           -1.493278690609     0.063218024660    -0.140150671875    12.000000000000
         C           -0.348122690609     1.005947024660    -0.181941671875    12.000000000000
         C            3.719014309391    -0.376196975340     0.171084328125    12.000000000000
         C           -2.773108690609     0.492306024660     0.299132328125    12.000000000000
         C            1.360916309391    -0.632221975340     0.723878328125    12.000000000000
         C            2.067049309391     1.155971024660    -0.746550671875    12.000000000000
         C            2.688604309391    -1.039538975340     0.849535328125    12.000000000000
         C            3.385131309391     0.725225024660    -0.630797671875    12.000000000000
         C           -1.339467690609    -1.241268975340    -0.646547671875    12.000000000000
         C           -3.913887590609    -0.468809175340     0.329196728125    12.000000000000
         C           -2.399360690609    -2.139583975340    -0.668453671875    12.000000000000
         C            5.143544309391    -0.854969975340     0.269100328125    12.000000000000
         C           -3.646103690609    -1.732319975340    -0.182950671875    12.000000000000
         H            0.578075309391    -1.148534975340     1.273726328125     1.007825032230
         H            1.813401309391     2.027624024660    -1.344617671875     1.007825032230
         H            2.929887309391    -1.883032975340     1.494595328125     1.007825032230
         H            4.173223309391     1.259992024660    -1.158892671875     1.007825032230
         H           -0.369899690609    -1.541225975340    -1.034480671875     1.007825032230
         H           -4.799098690609    -0.132477975340     0.674796328125     1.007825032230
         H           -2.263434690609    -3.138202975340    -1.074401671875     1.007825032230
         H            5.845587309391    -0.020425975340     0.185692328125     1.007825032230
         H            5.324711309391    -1.358709975340     1.222744328125     1.007825032230
         H            5.376464309391    -1.565419975340    -0.531816671875     1.007825032230
         H           -4.485384690609    -2.424431975340    -0.179574671875     1.007825032230
         H           -2.344913690609     2.461106024660     0.451278328125     1.007825032230
         H           -3.942854690609     2.051588024660     0.855467328125     1.007825032230

  Basis Set: AUG-CC-PVTZ
    Blend: AUG-CC-PVTZ
  Basis Set: (AUG-CC-PVTZ AUX)
    Blend: AUG-CC-PVTZ-JKFIT
	 Reference Energy          =    -667.2649597869205991 [Eh]
	 Singles Energy            =      -0.0000000000000000 [Eh]
	 Same-Spin Energy          =      -0.7349903979348157 [Eh]
	 Opposite-Spin Energy      =      -2.2656828501079480 [Eh]
	 Correlation Energy        =      -3.0006732480427636 [Eh]
	 Total Energy              =    -670.2656330349633436 [Eh]

	 ================> DF-SCS-MP2 Energies <==================
	-----------------------------------------------------------
	 SCS Same-Spin Scale       =       0.3333333333333333 [-]
	 SCS Opposite-Spin Scale   =       1.2000000000000000 [-]
	 SCS Same-Spin Energy      =      -0.2449967993116052 [Eh]
	 SCS Opposite-Spin Energy  =      -2.7188194201295377 [Eh]
	 SCS Correlation Energy    =      -2.9638162194411430 [Eh]
	 SCS Total Energy          =    -670.2287760063617270 [Eh]
	-----------------------------------------------------------

  Dipole Moment: [D]
     X:     0.2860      Y:    -1.6779      Z:    -0.0364     Total:     1.7025

*** Psi4 exiting successfully. Buy a developer a beer!
