                               Psi4 1.4a3.dev225

  ==> Input File <==

--------------------------------------------------------------------------
#psi4
#
memory 32 gb

molecule  {
0 1
  O       -0.5498120     2.2556960    -0.2996080
  N       -3.0129360     1.7813540     0.8248620
  C        1.0008190     0.4908720    -0.0872200
  C       -1.5329590     0.0859130    -0.1428360
  C       -0.3878030     1.0286420    -0.1846270
  C        3.6793340    -0.3535020     0.1683990
  C       -2.8127890     0.5150010     0.2964470
  C        1.3212360    -0.6095270     0.7211930
  C        2.0273690     1.1786660    -0.7492360
  C        2.6489240    -1.0168440     0.8468500
  C        3.3454510     0.7479200    -0.6334830
  C       -1.2991454    -1.3232379    -0.7108736
  C       -3.8612840    -0.4227650     0.3079770
  C       -2.4390410    -2.1168890    -0.6711390
  C        5.1038640    -0.8322750     0.2664150
  C       -3.6857840    -1.7096250    -0.1856360
  H        0.5383950    -1.1258400     1.2710410
  H        1.7737210     2.0503190    -1.3473030
  H        2.8902070    -1.8603380     1.4919100
  H        4.1335430     1.2826870    -1.1615780
  H       -0.4095800    -1.5185310    -1.0371660
  H       -4.8387790    -0.1097830     0.6721110
  H       -2.3031150    -3.1155080    -1.0770870
  H        5.8059070     0.0022690     0.1830070
  H        5.2850310    -1.3360150     1.2200590
  H        5.3367840    -1.5427250    -0.5345020
  H       -4.5250650    -2.4017370    -0.1822600
  H       -2.3845940     2.4838010     0.4485930
  H       -3.9825350     2.0742830     0.8527820
units angstrom
no_reorient  #important for SAPT in psi4, default
symmetry c1  #important for SAPT in psi4, default
}

set PROPERTIES_ORIGIN ["COM"]
properties('MP2/aug-cc-pvtz', properties = ['dipole'])
--------------------------------------------------------------------------

    Molecular point group: c1
  Charge       = 0
  Multiplicity = 1
  Basis Set: AUG-CC-PVTZ
    Blend: AUG-CC-PVTZ
  Basis Set: (AUG-CC-PVTZ AUX)
    Blend: AUG-CC-PVTZ-JKFIT

    Orbital Energies [Eh]
    ---------------------

    Doubly Occupied:

       1A    -20.533434     2A    -15.560296     3A    -11.334180
       4A    -11.298074     5A    -11.256516     6A    -11.256493
       7A    -11.256087     8A    -11.249473     9A    -11.246059
      10A    -11.245221    11A    -11.242326    12A    -11.238950
      13A    -11.238492    14A    -11.237161    15A    -11.234683
      16A    -11.232710    17A     -1.367023    18A     -1.225581
      19A     -1.164063    20A     -1.129365    21A     -1.067726
      22A     -1.028246    23A     -1.018581    24A     -1.001509
      25A     -0.952810    26A     -0.880963    27A     -0.845546
      28A     -0.836977    29A     -0.810492    30A     -0.761612
      31A     -0.717296    32A     -0.699121    33A     -0.682612
      34A     -0.660079    35A     -0.644901    36A     -0.633490
      37A     -0.624325    38A     -0.615155    39A     -0.596907
      40A     -0.591789    41A     -0.583856    42A     -0.577441
      43A     -0.553954    44A     -0.544828    45A     -0.530622
      46A     -0.519080    47A     -0.513449    48A     -0.497458
      49A     -0.492424    50A     -0.479506    51A     -0.450510
      52A     -0.413942    53A     -0.345107    54A     -0.336754
      55A     -0.333366    56A     -0.304713

  @DF-RHF Final Energy:  -667.24772608851140

   => Energetics <=

    Nuclear Repulsion Energy =            990.6561068577929063
    One-Electron Energy =               -2872.4210050920878530
    Two-Electron Energy =                1214.5171721457834337
    Total Energy =                       -667.2477260885113992
  Basis Set: (AUG-CC-PVTZ AUX)
    Blend: AUG-CC-PVTZ-RI
    Molecular point group: c1

    Geometry (in Angstrom), charge = 0, multiplicity = 1:

       Center              X                  Y                   Z               Mass
    ------------   -----------------  -----------------  -----------------  -----------------
         O           -0.519925346699     2.237623372939    -0.292365110040    15.994914619570
         N           -2.983049346699     1.763281372939     0.832104889960    14.003074004430
         C            1.030705653301     0.472799372939    -0.079977110040    12.000000000000
         C           -1.503072346699     0.067840372939    -0.135593110040    12.000000000000
         C           -0.357916346699     1.010569372939    -0.177384110040    12.000000000000
         C            3.709220653301    -0.371574627061     0.175641889960    12.000000000000
         C           -2.782902346699     0.496928372939     0.303689889960    12.000000000000
         C            1.351122653301    -0.627599627061     0.728435889960    12.000000000000
         C            2.057255653301     1.160593372939    -0.741993110040    12.000000000000
         C            2.678810653301    -1.034916627061     0.854092889960    12.000000000000
         C            3.375337653301     0.729847372939    -0.626240110040    12.000000000000
         C           -1.269258746699    -1.341310527061    -0.703630710040    12.000000000000
         C           -3.831397346699    -0.440837627061     0.315219889960    12.000000000000
         C           -2.409154346699    -2.134961627061    -0.663896110040    12.000000000000
         C            5.133750653301    -0.850347627061     0.273657889960    12.000000000000
         C           -3.655897346699    -1.727697627061    -0.178393110040    12.000000000000
         H            0.568281653301    -1.143912627061     1.278283889960     1.007825032230
         H            1.803607653301     2.032246372939    -1.340060110040     1.007825032230
         H            2.920093653301    -1.878410627061     1.499152889960     1.007825032230
         H            4.163429653301     1.264614372939    -1.154335110040     1.007825032230
         H           -0.379693346699    -1.536603627061    -1.029923110040     1.007825032230
         H           -4.808892346699    -0.127855627061     0.679353889960     1.007825032230
         H           -2.273228346699    -3.133580627061    -1.069844110040     1.007825032230
         H            5.835793653301    -0.015803627061     0.190249889960     1.007825032230
         H            5.314917653301    -1.354087627061     1.227301889960     1.007825032230
         H            5.366670653301    -1.560797627061    -0.527259110040     1.007825032230
         H           -4.495178346699    -2.419809627061    -0.175017110040     1.007825032230
         H           -2.354707346699     2.465728372939     0.455835889960     1.007825032230
         H           -3.952648346699     2.056210372939     0.860024889960     1.007825032230

  Basis Set: AUG-CC-PVTZ
    Blend: AUG-CC-PVTZ
  Basis Set: (AUG-CC-PVTZ AUX)
    Blend: AUG-CC-PVTZ-JKFIT
	 Reference Energy          =    -667.2477260885113992 [Eh]
	 Singles Energy            =      -0.0000000000000000 [Eh]
	 Same-Spin Energy          =      -0.7359866265568912 [Eh]
	 Opposite-Spin Energy      =      -2.2679939495240804 [Eh]
	 Correlation Energy        =      -3.0039805760809717 [Eh]
	 Total Energy              =    -670.2517066645923478 [Eh]

	 ================> DF-SCS-MP2 Energies <==================
	-----------------------------------------------------------
	 SCS Same-Spin Scale       =       0.3333333333333333 [-]
	 SCS Opposite-Spin Scale   =       1.2000000000000000 [-]
	 SCS Same-Spin Energy      =      -0.2453288755189637 [Eh]
	 SCS Opposite-Spin Energy  =      -2.7215927394288966 [Eh]
	 SCS Correlation Energy    =      -2.9669216149478603 [Eh]
	 SCS Total Energy          =    -670.2146477034592635 [Eh]
	-----------------------------------------------------------

  Dipole Moment: [D]
     X:     0.1579      Y:    -1.8966      Z:    -0.0899     Total:     1.9053

*** Psi4 exiting successfully. Buy a developer a beer!
