                               Psi4 1.4a3.dev225

  ==> Input File <==

--------------------------------------------------------------------------
#psi4
#
memory 32 gb

molecule  {
0 1
  O       -0.5498120     2.2556960    -0.2996080
  N       -3.0129360     1.7813540     0.8248620
  C        1.0008190     0.4908720    -0.0872200
  C       -1.5329590     0.0859130    -0.1428360
  C       -0.3878030     1.0286420    -0.1846270
  C        3.6319168    -0.3587791     0.1793991
  C       -2.8127890     0.5150010     0.2964470
  C        1.3212360    -0.6095270     0.7211930
  C        2.0273690     1.1786660    -0.7492360
  C        2.6489240    -1.0168440     0.8468500
  C        3.3454510     0.7479200    -0.6334830
  C       -1.3791480    -1.2185740    -0.6492330
  C       -3.8612840    -0.4227650     0.3079770
  C       -2.4390410    -2.1168890    -0.6711390
  C        5.1038640    -0.8322750     0.2664150
  C       -3.6857840    -1.7096250    -0.1856360
  H        0.5383950    -1.1258400     1.2710410
  H        1.7737210     2.0503190    -1.3473030
  H        2.8902070    -1.8603380     1.4919100
  H        4.1335430     1.2826870    -1.1615780
  H       -0.4095800    -1.5185310    -1.0371660
  H       -4.8387790    -0.1097830     0.6721110
  H       -2.3031150    -3.1155080    -1.0770870
  H        5.8059070     0.0022690     0.1830070
  H        5.2850310    -1.3360150     1.2200590
  H        5.3367840    -1.5427250    -0.5345020
  H       -4.5250650    -2.4017370    -0.1822600
  H       -2.3845940     2.4838010     0.4485930
  H       -3.9825350     2.0742830     0.8527820
units angstrom
no_reorient  #important for SAPT in psi4, default
symmetry c1  #important for SAPT in psi4, default
}

set PROPERTIES_ORIGIN ["COM"]
properties('MP2/aug-cc-pvtz', properties = ['dipole'])
--------------------------------------------------------------------------

    Molecular point group: c1
  Charge       = 0
  Multiplicity = 1
  Basis Set: AUG-CC-PVTZ
    Blend: AUG-CC-PVTZ
  Basis Set: (AUG-CC-PVTZ AUX)
    Blend: AUG-CC-PVTZ-JKFIT

    Orbital Energies [Eh]
    ---------------------

    Doubly Occupied:

       1A    -20.538202     2A    -15.560155     3A    -11.338737
       4A    -11.297040     5A    -11.254016     6A    -11.252859
       7A    -11.252391     8A    -11.251417     9A    -11.245891
      10A    -11.243646    11A    -11.239274    12A    -11.237915
      13A    -11.234809    14A    -11.233529    15A    -11.232095
      16A    -11.228430    17A     -1.371286    18A     -1.226696
      19A     -1.168888    20A     -1.137362    21A     -1.067449
      22A     -1.034056    23A     -1.022283    24A     -0.996606
      25A     -0.951125    26A     -0.877061    27A     -0.842771
      28A     -0.837025    29A     -0.812641    30A     -0.767043
      31A     -0.713141    32A     -0.691864    33A     -0.686446
      34A     -0.661643    35A     -0.643780    36A     -0.636150
      37A     -0.614455    38A     -0.603702    39A     -0.600578
      40A     -0.595915    41A     -0.584203    42A     -0.580176
      43A     -0.554783    44A     -0.544112    45A     -0.532139
      46A     -0.518237    47A     -0.510489    48A     -0.502451
      49A     -0.493499    50A     -0.484145    51A     -0.452430
      52A     -0.419093    53A     -0.349847    54A     -0.344436
      55A     -0.337384    56A     -0.300502

  @DF-RHF Final Energy:  -667.27476832873310

   => Energetics <=

    Nuclear Repulsion Energy =            993.5073810482953149
    One-Electron Energy =               -2878.1477074480440024
    Two-Electron Energy =                1217.3655580710153572
    Total Energy =                       -667.2747683287332165
  Basis Set: (AUG-CC-PVTZ AUX)
    Blend: AUG-CC-PVTZ-RI
    Molecular point group: c1

    Geometry (in Angstrom), charge = 0, multiplicity = 1:

       Center              X                  Y                   Z               Mass
    ------------   -----------------  -----------------  -----------------  -----------------
         O           -0.512682145983     2.231973712989    -0.296494383279    15.994914619570
         N           -2.975806145983     1.757631712989     0.827975616721    14.003074004430
         C            1.037948854017     0.467149712989    -0.084106383279    12.000000000000
         C           -1.495829145983     0.062190712989    -0.139722383279    12.000000000000
         C           -0.350673145983     1.004919712989    -0.181513383279    12.000000000000
         C            3.669046654017    -0.382501387011     0.182512716721    12.000000000000
         C           -2.775659145983     0.491278712989     0.299560616721    12.000000000000
         C            1.358365854017    -0.633249287011     0.724306616721    12.000000000000
         C            2.064498854017     1.154943712989    -0.746122383279    12.000000000000
         C            2.686053854017    -1.040566287011     0.849963616721    12.000000000000
         C            3.382580854017     0.724197712989    -0.630369383279    12.000000000000
         C           -1.342018145983    -1.242296287011    -0.646119383279    12.000000000000
         C           -3.824154145983    -0.446487287011     0.311090616721    12.000000000000
         C           -2.401911145983    -2.140611287011    -0.668025383279    12.000000000000
         C            5.140993854017    -0.855997287011     0.269528616721    12.000000000000
         C           -3.648654145983    -1.733347287011    -0.182522383279    12.000000000000
         H            0.575524854017    -1.149562287011     1.274154616721     1.007825032230
         H            1.810850854017     2.026596712989    -1.344189383279     1.007825032230
         H            2.927336854017    -1.884060287011     1.495023616721     1.007825032230
         H            4.170672854017     1.258964712989    -1.158464383279     1.007825032230
         H           -0.372450145983    -1.542253287011    -1.034052383279     1.007825032230
         H           -4.801649145983    -0.133505287011     0.675224616721     1.007825032230
         H           -2.265985145983    -3.139230287011    -1.073973383279     1.007825032230
         H            5.843036854017    -0.021453287011     0.186120616721     1.007825032230
         H            5.322160854017    -1.359737287011     1.223172616721     1.007825032230
         H            5.373913854017    -1.566447287011    -0.531388383279     1.007825032230
         H           -4.487935145983    -2.425459287011    -0.179146383279     1.007825032230
         H           -2.347464145983     2.460078712989     0.451706616721     1.007825032230
         H           -3.945405145983     2.050560712989     0.855895616721     1.007825032230

  Basis Set: AUG-CC-PVTZ
    Blend: AUG-CC-PVTZ
  Basis Set: (AUG-CC-PVTZ AUX)
    Blend: AUG-CC-PVTZ-JKFIT
	 Reference Energy          =    -667.2747683287331029 [Eh]
	 Singles Energy            =      -0.0000000000000000 [Eh]
	 Same-Spin Energy          =      -0.7351482172375405 [Eh]
	 Opposite-Spin Energy      =      -2.2650809314774092 [Eh]
	 Correlation Energy        =      -3.0002291487149497 [Eh]
	 Total Energy              =    -670.2749974774480961 [Eh]

	 ================> DF-SCS-MP2 Energies <==================
	-----------------------------------------------------------
	 SCS Same-Spin Scale       =       0.3333333333333333 [-]
	 SCS Opposite-Spin Scale   =       1.2000000000000000 [-]
	 SCS Same-Spin Energy      =      -0.2450494057458468 [Eh]
	 SCS Opposite-Spin Energy  =      -2.7180971177728908 [Eh]
	 SCS Correlation Energy    =      -2.9631465235187378 [Eh]
	 SCS Total Energy          =    -670.2379148522518335 [Eh]
	-----------------------------------------------------------

  Dipole Moment: [D]
     X:     0.2806      Y:    -1.7830      Z:    -0.1121     Total:     1.8084

*** Psi4 exiting successfully. Buy a developer a beer!
