                               Psi4 1.4a3.dev225

  ==> Input File <==

--------------------------------------------------------------------------
#psi4
#
memory 32 gb

molecule  {
0 1
  O       -0.5498120     2.2556960    -0.2996080
  N       -3.0129360     1.7813540     0.8248620
  C        1.0008190     0.4908720    -0.0872200
  C       -1.5329590     0.0859130    -0.1428360
  C       -0.3878030     1.0286420    -0.1846270
  C        3.6793340    -0.3535020     0.1683990
  C       -2.8127890     0.5150010     0.2964470
  C        1.3212360    -0.6095270     0.7211930
  C        2.0273690     1.1786660    -0.7492360
  C        2.6489240    -1.0168440     0.8468500
  C        3.3710571     0.8217118    -0.6912105
  C       -1.3791480    -1.2185740    -0.6492330
  C       -3.8612840    -0.4227650     0.3079770
  C       -2.4390410    -2.1168890    -0.6711390
  C        5.1038640    -0.8322750     0.2664150
  C       -3.6857840    -1.7096250    -0.1856360
  H        0.5383950    -1.1258400     1.2710410
  H        1.7737210     2.0503190    -1.3473030
  H        2.8902070    -1.8603380     1.4919100
  H        4.1335430     1.2826870    -1.1615780
  H       -0.4095800    -1.5185310    -1.0371660
  H       -4.8387790    -0.1097830     0.6721110
  H       -2.3031150    -3.1155080    -1.0770870
  H        5.8059070     0.0022690     0.1830070
  H        5.2850310    -1.3360150     1.2200590
  H        5.3367840    -1.5427250    -0.5345020
  H       -4.5250650    -2.4017370    -0.1822600
  H       -2.3845940     2.4838010     0.4485930
  H       -3.9825350     2.0742830     0.8527820
units angstrom
no_reorient  #important for SAPT in psi4, default
symmetry c1  #important for SAPT in psi4, default
}

set PROPERTIES_ORIGIN ["COM"]
properties('MP2/aug-cc-pvtz', properties = ['dipole'])
--------------------------------------------------------------------------

    Molecular point group: c1
  Charge       = 0
  Multiplicity = 1
  Basis Set: AUG-CC-PVTZ
    Blend: AUG-CC-PVTZ
  Basis Set: (AUG-CC-PVTZ AUX)
    Blend: AUG-CC-PVTZ-JKFIT

    Orbital Energies [Eh]
    ---------------------

    Doubly Occupied:

       1A    -20.536982     2A    -15.559738     3A    -11.338268
       4A    -11.296679     5A    -11.267319     6A    -11.253522
       7A    -11.252530     8A    -11.252003     9A    -11.246678
      10A    -11.243413    11A    -11.239834    12A    -11.238992
      13A    -11.238682    14A    -11.233356    15A    -11.231791
      16A    -11.228116    17A     -1.370243    18A     -1.226293
      19A     -1.158648    20A     -1.136427    21A     -1.065713
      22A     -1.034249    23A     -1.022495    24A     -0.996342
      25A     -0.953870    26A     -0.874893    27A     -0.843139
      28A     -0.834931    29A     -0.808644    30A     -0.768235
      31A     -0.714796    32A     -0.691895    33A     -0.686415
      34A     -0.661041    35A     -0.646011    36A     -0.639874
      37A     -0.613994    38A     -0.605432    39A     -0.601738
      40A     -0.595306    41A     -0.584617    42A     -0.582765
      43A     -0.555577    44A     -0.547549    45A     -0.531035
      46A     -0.519903    47A     -0.514326    48A     -0.505541
      49A     -0.482687    50A     -0.478617    51A     -0.452093
      52A     -0.418969    53A     -0.349745    54A     -0.344967
      55A     -0.327384    56A     -0.300028

  @DF-RHF Final Energy:  -667.26403384926141

   => Energetics <=

    Nuclear Repulsion Energy =            991.2628762789749999
    One-Electron Energy =               -2873.6451582461272665
    Two-Electron Energy =                1215.1182481178907437
    Total Energy =                       -667.2640338492615228
  Basis Set: (AUG-CC-PVTZ AUX)
    Blend: AUG-CC-PVTZ-RI
    Molecular point group: c1

    Geometry (in Angstrom), charge = 0, multiplicity = 1:

       Center              X                  Y                   Z               Mass
    ------------   -----------------  -----------------  -----------------  -----------------
         O           -0.516833168186     2.227479027601    -0.292587550891    15.994914619570
         N           -2.979957168186     1.753137027601     0.831882449109    14.003074004430
         C            1.033797831814     0.462655027601    -0.080199550891    12.000000000000
         C           -1.499980168186     0.057696027601    -0.135815550891    12.000000000000
         C           -0.354824168186     1.000425027601    -0.177606550891    12.000000000000
         C            3.712312831814    -0.381718972399     0.175419449109    12.000000000000
         C           -2.779810168186     0.486784027601     0.303467449109    12.000000000000
         C            1.354214831814    -0.637743972399     0.728213449109    12.000000000000
         C            2.060347831814     1.150449027601    -0.742215550891    12.000000000000
         C            2.681902831814    -1.045060972399     0.853870449109    12.000000000000
         C            3.404035931814     0.793494827601    -0.684190050891    12.000000000000
         C           -1.346169168186    -1.246790972399    -0.642212550891    12.000000000000
         C           -3.828305168186    -0.450981972399     0.314997449109    12.000000000000
         C           -2.406062168186    -2.145105972399    -0.664118550891    12.000000000000
         C            5.136842831814    -0.860491972399     0.273435449109    12.000000000000
         C           -3.652805168186    -1.737841972399    -0.178615550891    12.000000000000
         H            0.571373831814    -1.154056972399     1.278061449109     1.007825032230
         H            1.806699831814     2.022102027601    -1.340282550891     1.007825032230
         H            2.923185831814    -1.888554972399     1.498930449109     1.007825032230
         H            4.166521831814     1.254470027601    -1.154557550891     1.007825032230
         H           -0.376601168186    -1.546747972399    -1.030145550891     1.007825032230
         H           -4.805800168186    -0.137999972399     0.679131449109     1.007825032230
         H           -2.270136168186    -3.143724972399    -1.070066550891     1.007825032230
         H            5.838885831814    -0.025947972399     0.190027449109     1.007825032230
         H            5.318009831814    -1.364231972399     1.227079449109     1.007825032230
         H            5.369762831814    -1.570941972399    -0.527481550891     1.007825032230
         H           -4.492086168186    -2.429953972399    -0.175239550891     1.007825032230
         H           -2.351615168186     2.455584027601     0.455613449109     1.007825032230
         H           -3.949556168186     2.046066027601     0.859802449109     1.007825032230

  Basis Set: AUG-CC-PVTZ
    Blend: AUG-CC-PVTZ
  Basis Set: (AUG-CC-PVTZ AUX)
    Blend: AUG-CC-PVTZ-JKFIT
	 Reference Energy          =    -667.2640338492614092 [Eh]
	 Singles Energy            =      -0.0000000000000000 [Eh]
	 Same-Spin Energy          =      -0.7353458557467994 [Eh]
	 Opposite-Spin Energy      =      -2.2662602719915452 [Eh]
	 Correlation Energy        =      -3.0016061277383446 [Eh]
	 Total Energy              =    -670.2656399769997506 [Eh]

	 ================> DF-SCS-MP2 Energies <==================
	-----------------------------------------------------------
	 SCS Same-Spin Scale       =       0.3333333333333333 [-]
	 SCS Opposite-Spin Scale   =       1.2000000000000000 [-]
	 SCS Same-Spin Energy      =      -0.2451152852489331 [Eh]
	 SCS Opposite-Spin Energy  =      -2.7195123263898542 [Eh]
	 SCS Correlation Energy    =      -2.9646276116387873 [Eh]
	 SCS Total Energy          =    -670.2286614609001845 [Eh]
	-----------------------------------------------------------

  Dipole Moment: [D]
     X:     0.4036      Y:    -1.8142      Z:    -0.1176     Total:     1.8623

*** Psi4 exiting successfully. Buy a developer a beer!
