                               Psi4 1.4a3.dev225

  ==> Input File <==

--------------------------------------------------------------------------
#psi4
#
memory 32 gb

molecule  {
0 1
  O       -0.5498120     2.2556960    -0.2996080
  N       -3.0129360     1.7813540     0.8248620
  C        1.0008190     0.4908720    -0.0872200
  C       -1.5329590     0.0859130    -0.1428360
  C       -0.3878030     1.0286420    -0.1846270
  C        3.6793340    -0.3535020     0.1683990
  C       -2.8127890     0.5150010     0.2964470
  C        1.3212360    -0.6095270     0.7211930
  C        2.0273690     1.1786660    -0.7492360
  C        2.6489240    -1.0168440     0.8468500
  C        3.3454510     0.7479200    -0.6334830
  C       -1.3791480    -1.2185740    -0.6492330
  C       -3.8612840    -0.4227650     0.3079770
  C       -2.4390410    -2.1168890    -0.6711390
  C        5.1038640    -0.8322750     0.2664150
  C       -3.6857840    -1.7096250    -0.1856360
  H        0.5383950    -1.1258400     1.2710410
  H        1.7737210     2.0503190    -1.3473030
  H        2.8902070    -1.8603380     1.4919100
  H        4.1335430     1.2826870    -1.1615780
  H       -0.4095800    -1.5185310    -1.0371660
  H       -4.8387790    -0.1097830     0.6721110
  H       -2.3031150    -3.1155080    -1.0770870
  H        5.7984540     0.0066186     0.1659795
  H        5.2850310    -1.3360150     1.2200590
  H        5.3367840    -1.5427250    -0.5345020
  H       -4.5250650    -2.4017370    -0.1822600
  H       -2.3845940     2.4838010     0.4485930
  H       -3.9825350     2.0742830     0.8527820
units angstrom
no_reorient  #important for SAPT in psi4, default
symmetry c1  #important for SAPT in psi4, default
}

set PROPERTIES_ORIGIN ["COM"]
properties('MP2/aug-cc-pvtz', properties = ['dipole'])
--------------------------------------------------------------------------

    Molecular point group: c1
  Charge       = 0
  Multiplicity = 1
  Basis Set: AUG-CC-PVTZ
    Blend: AUG-CC-PVTZ
  Basis Set: (AUG-CC-PVTZ AUX)
    Blend: AUG-CC-PVTZ-JKFIT

    Orbital Energies [Eh]
    ---------------------

    Doubly Occupied:

       1A    -20.537985     2A    -15.560011     3A    -11.338461
       4A    -11.296886     5A    -11.257272     6A    -11.252714
       7A    -11.252243     8A    -11.250584     9A    -11.246343
      10A    -11.243514    11A    -11.239098    12A    -11.239039
      13A    -11.237807    14A    -11.233304    15A    -11.231951
      16A    -11.228289    17A     -1.371048    18A     -1.226547
      19A     -1.165202    20A     -1.137096    21A     -1.069619
      22A     -1.034577    23A     -1.020611    24A     -0.996539
      25A     -0.954605    26A     -0.876949    27A     -0.838882
      28A     -0.836431    29A     -0.813048    30A     -0.766157
      31A     -0.712731    32A     -0.691730    33A     -0.686197
      34A     -0.661270    35A     -0.645306    36A     -0.636516
      37A     -0.614260    38A     -0.603699    39A     -0.599789
      40A     -0.592671    41A     -0.584666    42A     -0.582900
      43A     -0.556453    44A     -0.545314    45A     -0.532026
      46A     -0.517825    47A     -0.513173    48A     -0.504856
      49A     -0.493631    50A     -0.481902    51A     -0.452281
      52A     -0.418898    53A     -0.349715    54A     -0.343091
      55A     -0.333857    56A     -0.300345

  @DF-RHF Final Energy:  -667.27655749214398

   => Energetics <=

    Nuclear Repulsion Energy =            992.9023677493762534
    One-Electron Energy =               -2876.9420190009618636
    Two-Electron Energy =                1216.7630937594415172
    Total Energy =                       -667.2765574921440930
  Basis Set: (AUG-CC-PVTZ AUX)
    Blend: AUG-CC-PVTZ-RI
    Molecular point group: c1

    Geometry (in Angstrom), charge = 0, multiplicity = 1:

       Center              X                  Y                   Z               Mass
    ------------   -----------------  -----------------  -----------------  -----------------
         O           -0.515342003115     2.231652969609    -0.295787788572    15.994914619570
         N           -2.978466003115     1.757310969609     0.828682211428    14.003074004430
         C            1.035288996885     0.466828969609    -0.083399788572    12.000000000000
         C           -1.498489003115     0.061869969609    -0.139015788572    12.000000000000
         C           -0.353333003115     1.004598969609    -0.180806788572    12.000000000000
         C            3.713803996885    -0.377545030391     0.172219211428    12.000000000000
         C           -2.778319003115     0.490957969609     0.300267211428    12.000000000000
         C            1.355705996885    -0.633570030391     0.725013211428    12.000000000000
         C            2.061838996885     1.154622969609    -0.745415788572    12.000000000000
         C            2.683393996885    -1.040887030391     0.850670211428    12.000000000000
         C            3.379920996885     0.723876969609    -0.629662788572    12.000000000000
         C           -1.344678003115    -1.242617030391    -0.645412788572    12.000000000000
         C           -3.826814003115    -0.446808030391     0.311797211428    12.000000000000
         C           -2.404571003115    -2.140932030391    -0.667318788572    12.000000000000
         C            5.138333996885    -0.856318030391     0.270235211428    12.000000000000
         C           -3.651314003115    -1.733668030391    -0.181815788572    12.000000000000
         H            0.572864996885    -1.149883030391     1.274861211428     1.007825032230
         H            1.808190996885     2.026275969609    -1.343482788572     1.007825032230
         H            2.924676996885    -1.884381030391     1.495730211428     1.007825032230
         H            4.168012996885     1.258643969609    -1.157757788572     1.007825032230
         H           -0.375110003115    -1.542574030391    -1.033345788572     1.007825032230
         H           -4.804309003115    -0.133826030391     0.675931211428     1.007825032230
         H           -2.268645003115    -3.139551030391    -1.073266788572     1.007825032230
         H            5.832923996885    -0.017424430391     0.169799711428     1.007825032230
         H            5.319500996885    -1.360058030391     1.223879211428     1.007825032230
         H            5.371253996885    -1.566768030391    -0.530681788572     1.007825032230
         H           -4.490595003115    -2.425780030391    -0.178439788572     1.007825032230
         H           -2.350124003115     2.459757969609     0.452413211428     1.007825032230
         H           -3.948065003115     2.050239969609     0.856602211428     1.007825032230

  Basis Set: AUG-CC-PVTZ
    Blend: AUG-CC-PVTZ
  Basis Set: (AUG-CC-PVTZ AUX)
    Blend: AUG-CC-PVTZ-JKFIT
	 Reference Energy          =    -667.2765574921439793 [Eh]
	 Singles Energy            =      -0.0000000000000000 [Eh]
	 Same-Spin Energy          =      -0.7355314988724274 [Eh]
	 Opposite-Spin Energy      =      -2.2655185421029169 [Eh]
	 Correlation Energy        =      -3.0010500409753442 [Eh]
	 Total Energy              =    -670.2776075331192942 [Eh]

	 ================> DF-SCS-MP2 Energies <==================
	-----------------------------------------------------------
	 SCS Same-Spin Scale       =       0.3333333333333333 [-]
	 SCS Opposite-Spin Scale   =       1.2000000000000000 [-]
	 SCS Same-Spin Energy      =      -0.2451771662908091 [Eh]
	 SCS Opposite-Spin Energy  =      -2.7186222505235000 [Eh]
	 SCS Correlation Energy    =      -2.9637994168143091 [Eh]
	 SCS Total Energy          =    -670.2403569089582334 [Eh]
	-----------------------------------------------------------

  Dipole Moment: [D]
     X:     0.3526      Y:    -1.8171      Z:    -0.1104     Total:     1.8543

*** Psi4 exiting successfully. Buy a developer a beer!
