                               Psi4 1.4a3.dev225

  ==> Input File <==

--------------------------------------------------------------------------
#psi4
#
memory 32 gb

molecule  {
0 1
  O       -0.5498120     2.2556960    -0.2996080
  N       -3.0129360     1.7813540     0.8248620
  C        1.0008190     0.4908720    -0.0872200
  C       -1.5329590     0.0859130    -0.1428360
  C       -0.3878030     1.0286420    -0.1846270
  C        3.6793340    -0.3535020     0.1683990
  C       -2.8127890     0.5150010     0.2964470
  C        1.3212360    -0.6095270     0.7211930
  C        2.0273690     1.1786660    -0.7492360
  C        2.6489240    -1.0168440     0.8468500
  C        3.3454510     0.7479200    -0.6334830
  C       -1.3791480    -1.2185740    -0.6492330
  C       -3.8612840    -0.4227650     0.3079770
  C       -2.4390410    -2.1168890    -0.6711390
  C        5.1227817    -0.8386331     0.2677167
  C       -3.6857840    -1.7096250    -0.1856360
  H        0.5383950    -1.1258400     1.2710410
  H        1.7737210     2.0503190    -1.3473030
  H        2.8902070    -1.8603380     1.4919100
  H        4.1335430     1.2826870    -1.1615780
  H       -0.4095800    -1.5185310    -1.0371660
  H       -4.8387790    -0.1097830     0.6721110
  H       -2.3031150    -3.1155080    -1.0770870
  H        5.8059070     0.0022690     0.1830070
  H        5.2850310    -1.3360150     1.2200590
  H        5.3367840    -1.5427250    -0.5345020
  H       -4.5250650    -2.4017370    -0.1822600
  H       -2.3845940     2.4838010     0.4485930
  H       -3.9825350     2.0742830     0.8527820
units angstrom
no_reorient  #important for SAPT in psi4, default
symmetry c1  #important for SAPT in psi4, default
}

set PROPERTIES_ORIGIN ["COM"]
properties('MP2/aug-cc-pvtz', properties = ['dipole'])
--------------------------------------------------------------------------

    Molecular point group: c1
  Charge       = 0
  Multiplicity = 1
  Basis Set: AUG-CC-PVTZ
    Blend: AUG-CC-PVTZ
  Basis Set: (AUG-CC-PVTZ AUX)
    Blend: AUG-CC-PVTZ-JKFIT

    Orbital Energies [Eh]
    ---------------------

    Doubly Occupied:

       1A    -20.537981     2A    -15.560002     3A    -11.338450
       4A    -11.296875     5A    -11.258142     6A    -11.252704
       7A    -11.252230     8A    -11.250533     9A    -11.246269
      10A    -11.243496    11A    -11.239085    12A    -11.239077
      13A    -11.237784    14A    -11.232686    15A    -11.231940
      16A    -11.228277    17A     -1.371040    18A     -1.226537
      19A     -1.164577    20A     -1.137032    21A     -1.068059
      22A     -1.034036    23A     -1.020466    24A     -0.996511
      25A     -0.954825    26A     -0.877284    27A     -0.838574
      28A     -0.836578    29A     -0.813126    30A     -0.766080
      31A     -0.712678    32A     -0.691547    33A     -0.686169
      34A     -0.660662    35A     -0.644419    36A     -0.636017
      37A     -0.614201    38A     -0.603555    39A     -0.599034
      40A     -0.592645    41A     -0.586329    42A     -0.583962
      43A     -0.557267    44A     -0.546390    45A     -0.532244
      46A     -0.517598    47A     -0.511403    48A     -0.503469
      49A     -0.493875    50A     -0.482490    51A     -0.452267
      52A     -0.418865    53A     -0.349693    54A     -0.343005
      55A     -0.334353    56A     -0.300339

  @DF-RHF Final Energy:  -667.27650848537428

   => Energetics <=

    Nuclear Repulsion Energy =            992.5118071445134547
    One-Electron Energy =               -2876.1671723683612072
    Two-Electron Energy =                1216.3788567384733597
    Total Energy =                       -667.2765084853742792
  Basis Set: (AUG-CC-PVTZ AUX)
    Blend: AUG-CC-PVTZ-RI
    Molecular point group: c1

    Geometry (in Angstrom), charge = 0, multiplicity = 1:

       Center              X                  Y                   Z               Mass
    ------------   -----------------  -----------------  -----------------  -----------------
         O           -0.516452964923     2.232035162622    -0.295943076043    15.994914619570
         N           -2.979576964923     1.757693162622     0.828526923957    14.003074004430
         C            1.034178035077     0.467211162622    -0.083555076043    12.000000000000
         C           -1.499599964923     0.062252162622    -0.139171076043    12.000000000000
         C           -0.354443964923     1.004981162622    -0.180962076043    12.000000000000
         C            3.712693035077    -0.377162837378     0.172063923957    12.000000000000
         C           -2.779429964923     0.491340162622     0.300111923957    12.000000000000
         C            1.354595035077    -0.633187837378     0.724857923957    12.000000000000
         C            2.060728035077     1.155005162622    -0.745571076043    12.000000000000
         C            2.682283035077    -1.040504837378     0.850514923957    12.000000000000
         C            3.378810035077     0.724259162622    -0.629818076043    12.000000000000
         C           -1.345788964923    -1.242234837378    -0.645568076043    12.000000000000
         C           -3.827924964923    -0.446425837378     0.311641923957    12.000000000000
         C           -2.405681964923    -2.140549837378    -0.667474076043    12.000000000000
         C            5.156140735077    -0.862293937378     0.271381623957    12.000000000000
         C           -3.652424964923    -1.733285837378    -0.181971076043    12.000000000000
         H            0.571754035077    -1.149500837378     1.274705923957     1.007825032230
         H            1.807080035077     2.026658162622    -1.343638076043     1.007825032230
         H            2.923566035077    -1.883998837378     1.495574923957     1.007825032230
         H            4.166902035077     1.259026162622    -1.157913076043     1.007825032230
         H           -0.376220964923    -1.542191837378    -1.033501076043     1.007825032230
         H           -4.805419964923    -0.133443837378     0.675775923957     1.007825032230
         H           -2.269755964923    -3.139168837378    -1.073422076043     1.007825032230
         H            5.839266035077    -0.021391837378     0.186671923957     1.007825032230
         H            5.318390035077    -1.359675837378     1.223723923957     1.007825032230
         H            5.370143035077    -1.566385837378    -0.530837076043     1.007825032230
         H           -4.491705964923    -2.425397837378    -0.178595076043     1.007825032230
         H           -2.351234964923     2.460140162622     0.452257923957     1.007825032230
         H           -3.949175964923     2.050622162622     0.856446923957     1.007825032230

  Basis Set: AUG-CC-PVTZ
    Blend: AUG-CC-PVTZ
  Basis Set: (AUG-CC-PVTZ AUX)
    Blend: AUG-CC-PVTZ-JKFIT
	 Reference Energy          =    -667.2765084853742792 [Eh]
	 Singles Energy            =      -0.0000000000000000 [Eh]
	 Same-Spin Energy          =      -0.7353655812910856 [Eh]
	 Opposite-Spin Energy      =      -2.2653869320865287 [Eh]
	 Correlation Energy        =      -3.0007525133776145 [Eh]
	 Total Energy              =    -670.2772609987518990 [Eh]

	 ================> DF-SCS-MP2 Energies <==================
	-----------------------------------------------------------
	 SCS Same-Spin Scale       =       0.3333333333333333 [-]
	 SCS Opposite-Spin Scale   =       1.2000000000000000 [-]
	 SCS Same-Spin Energy      =      -0.2451218604303619 [Eh]
	 SCS Opposite-Spin Energy  =      -2.7184643185038344 [Eh]
	 SCS Correlation Energy    =      -2.9635861789341962 [Eh]
	 SCS Total Energy          =    -670.2400946643084581 [Eh]
	-----------------------------------------------------------

  Dipole Moment: [D]
     X:     0.3481      Y:    -1.8129      Z:    -0.1052     Total:     1.8490

*** Psi4 exiting successfully. Buy a developer a beer!
