                               Psi4 1.4a3.dev225

  ==> Input File <==

--------------------------------------------------------------------------
#psi4
#
memory 32 gb

molecule  {
0 1
  O       -0.5498120     2.2556960    -0.2996080
  N       -3.0129360     1.7813540     0.8248620
  C        1.0008190     0.4908720    -0.0872200
  C       -1.5329590     0.0859130    -0.1428360
  C       -0.3878030     1.0286420    -0.1846270
  C        3.5841505    -0.3627080     0.1894089
  C       -2.8127890     0.5150010     0.2964470
  C        1.3212360    -0.6095270     0.7211930
  C        2.0273690     1.1786660    -0.7492360
  C        2.6489240    -1.0168440     0.8468500
  C        3.3454510     0.7479200    -0.6334830
  C       -1.3791480    -1.2185740    -0.6492330
  C       -3.8612840    -0.4227650     0.3079770
  C       -2.4390410    -2.1168890    -0.6711390
  C        5.1038640    -0.8322750     0.2664150
  C       -3.6857840    -1.7096250    -0.1856360
  H        0.5383950    -1.1258400     1.2710410
  H        1.7737210     2.0503190    -1.3473030
  H        2.8902070    -1.8603380     1.4919100
  H        4.1335430     1.2826870    -1.1615780
  H       -0.4095800    -1.5185310    -1.0371660
  H       -4.8387790    -0.1097830     0.6721110
  H       -2.3031150    -3.1155080    -1.0770870
  H        5.8059070     0.0022690     0.1830070
  H        5.2850310    -1.3360150     1.2200590
  H        5.3367840    -1.5427250    -0.5345020
  H       -4.5250650    -2.4017370    -0.1822600
  H       -2.3845940     2.4838010     0.4485930
  H       -3.9825350     2.0742830     0.8527820
units angstrom
no_reorient  #important for SAPT in psi4, default
symmetry c1  #important for SAPT in psi4, default
}

set PROPERTIES_ORIGIN ["COM"]
properties('MP2/aug-cc-pvtz', properties = ['dipole'])
--------------------------------------------------------------------------

    Molecular point group: c1
  Charge       = 0
  Multiplicity = 1
  Basis Set: AUG-CC-PVTZ
    Blend: AUG-CC-PVTZ
  Basis Set: (AUG-CC-PVTZ AUX)
    Blend: AUG-CC-PVTZ-JKFIT

    Orbital Energies [Eh]
    ---------------------

    Doubly Occupied:

       1A    -20.538382     2A    -15.560289     3A    -11.338994
       4A    -11.297182     5A    -11.252994     6A    -11.252532
       7A    -11.252302     8A    -11.250810     9A    -11.245564
      10A    -11.243715    11A    -11.239438    12A    -11.238224
      13A    -11.233560    14A    -11.232231    15A    -11.230319
      16A    -11.228565    17A     -1.371495    18A     -1.226834
      19A     -1.173331    20A     -1.137625    21A     -1.066454
      22A     -1.034829    23A     -1.022997    24A     -0.996667
      25A     -0.947257    26A     -0.877251    27A     -0.847307
      28A     -0.836723    29A     -0.812108    30A     -0.767955
      31A     -0.713557    32A     -0.692035    33A     -0.686691
      34A     -0.662415    35A     -0.642764    36A     -0.635986
      37A     -0.614760    38A     -0.603846    39A     -0.603453
      40A     -0.597265    41A     -0.584028    42A     -0.576682
      43A     -0.554006    44A     -0.543291    45A     -0.532566
      46A     -0.519255    47A     -0.510847    48A     -0.505915
      49A     -0.487863    50A     -0.479499    51A     -0.452528
      52A     -0.419183    53A     -0.350564    54A     -0.347862
      55A     -0.338352    56A     -0.300644

  @DF-RHF Final Energy:  -667.26669315323954

   => Energetics <=

    Nuclear Repulsion Energy =            994.1784493528898565
    One-Electron Energy =               -2879.4707081118576752
    Two-Electron Energy =                1218.0255656057283886
    Total Energy =                       -667.2666931532394301
  Basis Set: (AUG-CC-PVTZ AUX)
    Blend: AUG-CC-PVTZ-RI
    Molecular point group: c1

    Geometry (in Angstrom), charge = 0, multiplicity = 1:

       Center              X                  Y                   Z               Mass
    ------------   -----------------  -----------------  -----------------  -----------------
         O           -0.509966862342     2.232197051993    -0.297063392103    15.994914619570
         N           -2.973090862342     1.757855051993     0.827406607897    14.003074004430
         C            1.040664137658     0.467373051993    -0.084675392103    12.000000000000
         C           -1.493113862342     0.062414051993    -0.140291392103    12.000000000000
         C           -0.347957862342     1.005143051993    -0.182082392103    12.000000000000
         C            3.623995637658    -0.386206948007     0.191953507897    12.000000000000
         C           -2.772943862342     0.491502051993     0.298991607897    12.000000000000
         C            1.361081137658    -0.633025948007     0.723737607897    12.000000000000
         C            2.067214137658     1.155167051993    -0.746691392103    12.000000000000
         C            2.688769137658    -1.040342948007     0.849394607897    12.000000000000
         C            3.385296137658     0.724421051993    -0.630938392103    12.000000000000
         C           -1.339302862342    -1.242072948007    -0.646688392103    12.000000000000
         C           -3.821438862342    -0.446263948007     0.310521607897    12.000000000000
         C           -2.399195862342    -2.140387948007    -0.668594392103    12.000000000000
         C            5.143709137658    -0.855773948007     0.268959607897    12.000000000000
         C           -3.645938862342    -1.733123948007    -0.183091392103    12.000000000000
         H            0.578240137658    -1.149338948007     1.273585607897     1.007825032230
         H            1.813566137658     2.026820051993    -1.344758392103     1.007825032230
         H            2.930052137658    -1.883836948007     1.494454607897     1.007825032230
         H            4.173388137658     1.259188051993    -1.159033392103     1.007825032230
         H           -0.369734862342    -1.542029948007    -1.034621392103     1.007825032230
         H           -4.798933862342    -0.133281948007     0.674655607897     1.007825032230
         H           -2.263269862342    -3.139006948007    -1.074542392103     1.007825032230
         H            5.845752137658    -0.021229948007     0.185551607897     1.007825032230
         H            5.324876137658    -1.359513948007     1.222603607897     1.007825032230
         H            5.376629137658    -1.566223948007    -0.531957392103     1.007825032230
         H           -4.485219862342    -2.425235948007    -0.179715392103     1.007825032230
         H           -2.344748862342     2.460302051993     0.451137607897     1.007825032230
         H           -3.942689862342     2.050784051993     0.855326607897     1.007825032230

  Basis Set: AUG-CC-PVTZ
    Blend: AUG-CC-PVTZ
  Basis Set: (AUG-CC-PVTZ AUX)
    Blend: AUG-CC-PVTZ-JKFIT
	 Reference Energy          =    -667.2666931532395438 [Eh]
	 Singles Energy            =      -0.0000000000000000 [Eh]
	 Same-Spin Energy          =      -0.7349200700133861 [Eh]
	 Opposite-Spin Energy      =      -2.2650240810824958 [Eh]
	 Correlation Energy        =      -2.9999441510958818 [Eh]
	 Total Energy              =    -670.2666373043354042 [Eh]

	 ================> DF-SCS-MP2 Energies <==================
	-----------------------------------------------------------
	 SCS Same-Spin Scale       =       0.3333333333333333 [-]
	 SCS Opposite-Spin Scale   =       1.2000000000000000 [-]
	 SCS Same-Spin Energy      =      -0.2449733566711287 [Eh]
	 SCS Opposite-Spin Energy  =      -2.7180288972989950 [Eh]
	 SCS Correlation Energy    =      -2.9630022539701235 [Eh]
	 SCS Total Energy          =    -670.2296954072096469 [Eh]
	-----------------------------------------------------------

  Dipole Moment: [D]
     X:     0.2064      Y:    -1.7519      Z:    -0.1184     Total:     1.7679

*** Psi4 exiting successfully. Buy a developer a beer!
