                               Psi4 1.4a3.dev225

  ==> Input File <==

--------------------------------------------------------------------------
#psi4
#
memory 32 gb

molecule  {
0 1
  O       -0.5498120     2.2556960    -0.2996080
  N       -3.0129360     1.7813540     0.8248620
  C        1.0008190     0.4908720    -0.0872200
  C       -1.5329590     0.0859130    -0.1428360
  C       -0.3878030     1.0286420    -0.1846270
  C        3.6793340    -0.3535020     0.1683990
  C       -2.8127890     0.5150010     0.2964470
  C        1.3212360    -0.6095270     0.7211930
  C        2.0273690     1.1786660    -0.7492360
  C        2.6489240    -1.0168440     0.8468500
  C        3.3454510     0.7479200    -0.6334830
  C       -1.3791480    -1.2185740    -0.6492330
  C       -3.8612840    -0.4227650     0.3079770
  C       -2.4390410    -2.1168890    -0.6711390
  C        5.1038640    -0.8322750     0.2664150
  C       -3.6857840    -1.7096250    -0.1856360
  H        0.5383950    -1.1258400     1.2710410
  H        1.7737210     2.0503190    -1.3473030
  H        2.8902070    -1.8603380     1.4919100
  H        4.1335430     1.2826870    -1.1615780
  H       -0.4095800    -1.5185310    -1.0371660
  H       -4.8387790    -0.1097830     0.6721110
  H       -2.3031150    -3.1155080    -1.0770870
  H        5.7930696    -0.0129913     0.1845322
  H        5.2850310    -1.3360150     1.2200590
  H        5.3367840    -1.5427250    -0.5345020
  H       -4.5250650    -2.4017370    -0.1822600
  H       -2.3845940     2.4838010     0.4485930
  H       -3.9825350     2.0742830     0.8527820
units angstrom
no_reorient  #important for SAPT in psi4, default
symmetry c1  #important for SAPT in psi4, default
}

set PROPERTIES_ORIGIN ["COM"]
properties('MP2/aug-cc-pvtz', properties = ['dipole'])
--------------------------------------------------------------------------

    Molecular point group: c1
  Charge       = 0
  Multiplicity = 1
  Basis Set: AUG-CC-PVTZ
    Blend: AUG-CC-PVTZ
  Basis Set: (AUG-CC-PVTZ AUX)
    Blend: AUG-CC-PVTZ-JKFIT

    Orbital Energies [Eh]
    ---------------------

    Doubly Occupied:

       1A    -20.537970     2A    -15.559997     3A    -11.338442
       4A    -11.296869     5A    -11.257179     6A    -11.252698
       7A    -11.252224     8A    -11.250514     9A    -11.246297
      10A    -11.243490    11A    -11.239080    12A    -11.238962
      13A    -11.237780    14A    -11.231935    15A    -11.230815
      16A    -11.228271    17A     -1.371032    18A     -1.226532
      19A     -1.165165    20A     -1.137079    21A     -1.069786
      22A     -1.034674    23A     -1.020568    24A     -0.996534
      25A     -0.955734    26A     -0.877197    27A     -0.838817
      28A     -0.836683    29A     -0.813155    30A     -0.766151
      31A     -0.712710    32A     -0.691795    33A     -0.686187
      34A     -0.661583    35A     -0.645164    36A     -0.636637
      37A     -0.614270    38A     -0.603669    39A     -0.599808
      40A     -0.592597    41A     -0.585171    42A     -0.584490
      43A     -0.556297    44A     -0.545918    45A     -0.532078
      46A     -0.518239    47A     -0.513174    48A     -0.504780
      49A     -0.493506    50A     -0.482080    51A     -0.452267
      52A     -0.418881    53A     -0.349694    54A     -0.343041
      55A     -0.333932    56A     -0.300330

  @DF-RHF Final Energy:  -667.27663955245657

   => Energetics <=

    Nuclear Repulsion Energy =            992.9723307105158483
    One-Electron Energy =               -2877.0780858764455843
    Two-Electron Energy =                1216.8291156134730500
    Total Energy =                       -667.2766395524565723
  Basis Set: (AUG-CC-PVTZ AUX)
    Blend: AUG-CC-PVTZ-RI
    Molecular point group: c1

    Geometry (in Angstrom), charge = 0, multiplicity = 1:

       Center              X                  Y                   Z               Mass
    ------------   -----------------  -----------------  -----------------  -----------------
         O           -0.515316297097     2.231746590523    -0.295876362237    15.994914619570
         N           -2.978440297097     1.757404590523     0.828593637763    14.003074004430
         C            1.035314702903     0.466922590523    -0.083488362237    12.000000000000
         C           -1.498463297097     0.061963590523    -0.139104362237    12.000000000000
         C           -0.353307297097     1.004692590523    -0.180895362237    12.000000000000
         C            3.713829702903    -0.377451409477     0.172130637763    12.000000000000
         C           -2.778293297097     0.491051590523     0.300178637763    12.000000000000
         C            1.355731702903    -0.633476409477     0.724924637763    12.000000000000
         C            2.061864702903     1.154716590523    -0.745504362237    12.000000000000
         C            2.683419702903    -1.040793409477     0.850581637763    12.000000000000
         C            3.379946702903     0.723970590523    -0.629751362237    12.000000000000
         C           -1.344652297097    -1.242523409477    -0.645501362237    12.000000000000
         C           -3.826788297097    -0.446714409477     0.311708637763    12.000000000000
         C           -2.404545297097    -2.140838409477    -0.667407362237    12.000000000000
         C            5.138359702903    -0.856224409477     0.270146637763    12.000000000000
         C           -3.651288297097    -1.733574409477    -0.181904362237    12.000000000000
         H            0.572890702903    -1.149789409477     1.274772637763     1.007825032230
         H            1.808216702903     2.026369590523    -1.343571362237     1.007825032230
         H            2.924702702903    -1.884287409477     1.495641637763     1.007825032230
         H            4.168038702903     1.258737590523    -1.157846362237     1.007825032230
         H           -0.375084297097    -1.542480409477    -1.033434362237     1.007825032230
         H           -4.804283297097    -0.133732409477     0.675842637763     1.007825032230
         H           -2.268619297097    -3.139457409477    -1.073355362237     1.007825032230
         H            5.827565302903    -0.036940709477     0.188263837763     1.007825032230
         H            5.319526702903    -1.359964409477     1.223790637763     1.007825032230
         H            5.371279702903    -1.566674409477    -0.530770362237     1.007825032230
         H           -4.490569297097    -2.425686409477    -0.178528362237     1.007825032230
         H           -2.350098297097     2.459851590523     0.452324637763     1.007825032230
         H           -3.948039297097     2.050333590523     0.856513637763     1.007825032230

  Basis Set: AUG-CC-PVTZ
    Blend: AUG-CC-PVTZ
  Basis Set: (AUG-CC-PVTZ AUX)
    Blend: AUG-CC-PVTZ-JKFIT
	 Reference Energy          =    -667.2766395524565723 [Eh]
	 Singles Energy            =      -0.0000000000000000 [Eh]
	 Same-Spin Energy          =      -0.7355180704185753 [Eh]
	 Opposite-Spin Energy      =      -2.2653827796716137 [Eh]
	 Correlation Energy        =      -3.0009008500901890 [Eh]
	 Total Energy              =    -670.2775404025467196 [Eh]

	 ================> DF-SCS-MP2 Energies <==================
	-----------------------------------------------------------
	 SCS Same-Spin Scale       =       0.3333333333333333 [-]
	 SCS Opposite-Spin Scale   =       1.2000000000000000 [-]
	 SCS Same-Spin Energy      =      -0.2451726901395251 [Eh]
	 SCS Opposite-Spin Energy  =      -2.7184593356059366 [Eh]
	 SCS Correlation Energy    =      -2.9636320257454618 [Eh]
	 SCS Total Energy          =    -670.2402715782020550 [Eh]
	-----------------------------------------------------------

  Dipole Moment: [D]
     X:     0.3632      Y:    -1.8108      Z:    -0.1059     Total:     1.8499

*** Psi4 exiting successfully. Buy a developer a beer!
