                               Psi4 1.4a3.dev225

  ==> Input File <==

--------------------------------------------------------------------------
#psi4
#
memory 32 gb

molecule  {
0 1
  O       -0.5498120     2.2556960    -0.2996080
  N       -3.0129360     1.7813540     0.8248620
  C        1.0008190     0.4908720    -0.0872200
  C       -1.5329590     0.0859130    -0.1428360
  C       -0.3878030     1.0286420    -0.1846270
  C        3.6793340    -0.3535020     0.1683990
  C       -2.8127890     0.5150010     0.2964470
  C        1.3212360    -0.6095270     0.7211930
  C        2.0273690     1.1786660    -0.7492360
  C        2.6489240    -1.0168440     0.8468500
  C        3.3454510     0.7479200    -0.6334830
  C       -1.3791480    -1.2185740    -0.6492330
  C       -3.9358184    -0.4894280     0.3087966
  C       -2.4390410    -2.1168890    -0.6711390
  C        5.1038640    -0.8322750     0.2664150
  C       -3.6857840    -1.7096250    -0.1856360
  H        0.5383950    -1.1258400     1.2710410
  H        1.7737210     2.0503190    -1.3473030
  H        2.8902070    -1.8603380     1.4919100
  H        4.1335430     1.2826870    -1.1615780
  H       -0.4095800    -1.5185310    -1.0371660
  H       -4.8387790    -0.1097830     0.6721110
  H       -2.3031150    -3.1155080    -1.0770870
  H        5.8059070     0.0022690     0.1830070
  H        5.2850310    -1.3360150     1.2200590
  H        5.3367840    -1.5427250    -0.5345020
  H       -4.5250650    -2.4017370    -0.1822600
  H       -2.3845940     2.4838010     0.4485930
  H       -3.9825350     2.0742830     0.8527820
units angstrom
no_reorient  #important for SAPT in psi4, default
symmetry c1  #important for SAPT in psi4, default
}

set PROPERTIES_ORIGIN ["COM"]
properties('MP2/aug-cc-pvtz', properties = ['dipole'])
--------------------------------------------------------------------------

    Molecular point group: c1
  Charge       = 0
  Multiplicity = 1
  Basis Set: AUG-CC-PVTZ
    Blend: AUG-CC-PVTZ
  Basis Set: (AUG-CC-PVTZ AUX)
    Blend: AUG-CC-PVTZ-JKFIT

    Orbital Energies [Eh]
    ---------------------

    Doubly Occupied:

       1A    -20.536872     2A    -15.567140     3A    -11.337613
       4A    -11.309586     5A    -11.256924     6A    -11.250937
       7A    -11.250167     8A    -11.245888     9A    -11.245528
      10A    -11.243037    11A    -11.238726    12A    -11.237416
      13A    -11.235722    14A    -11.234853    15A    -11.232919
      16A    -11.225435    17A     -1.370230    18A     -1.226302
      19A     -1.164762    20A     -1.137163    21A     -1.070180
      22A     -1.038785    23A     -1.020612    24A     -0.989588
      25A     -0.954092    26A     -0.871538    27A     -0.841093
      28A     -0.836898    29A     -0.812552    30A     -0.765566
      31A     -0.714276    32A     -0.693284    33A     -0.687415
      34A     -0.662569    35A     -0.647925    36A     -0.638449
      37A     -0.614956    38A     -0.605286    39A     -0.596822
      40A     -0.592792    41A     -0.586627    42A     -0.583589
      43A     -0.554289    44A     -0.543254    45A     -0.530465
      46A     -0.517731    47A     -0.508089    48A     -0.503538
      49A     -0.493040    50A     -0.481869    51A     -0.455473
      52A     -0.416612    53A     -0.356934    54A     -0.343344
      55A     -0.333553    56A     -0.293263

  @DF-RHF Final Energy:  -667.26628569062018

   => Energetics <=

    Nuclear Repulsion Energy =            991.3567681164886380
    One-Electron Energy =               -2873.8389739004787771
    Two-Electron Energy =                1215.2159200933699594
    Total Energy =                       -667.2662856906201796
  Basis Set: (AUG-CC-PVTZ AUX)
    Blend: AUG-CC-PVTZ-RI
    Molecular point group: c1

    Geometry (in Angstrom), charge = 0, multiplicity = 1:

       Center              X                  Y                   Z               Mass
    ------------   -----------------  -----------------  -----------------  -----------------
         O           -0.511140664027     2.235463205162    -0.295915670984    15.994914619570
         N           -2.974264664027     1.761121205162     0.828554329016    14.003074004430
         C            1.039490335973     0.470639205162    -0.083527670984    12.000000000000
         C           -1.494287664027     0.065680205162    -0.139143670984    12.000000000000
         C           -0.349131664027     1.008409205162    -0.180934670984    12.000000000000
         C            3.718005335973    -0.373734794838     0.172091329016    12.000000000000
         C           -2.774117664027     0.494768205162     0.300139329016    12.000000000000
         C            1.359907335973    -0.629759794838     0.724885329016    12.000000000000
         C            2.066040335973     1.158433205162    -0.745543670984    12.000000000000
         C            2.687595335973    -1.037076794838     0.850542329016    12.000000000000
         C            3.384122335973     0.727687205162    -0.629790670984    12.000000000000
         C           -1.340476664027    -1.238806794838    -0.645540670984    12.000000000000
         C           -3.897147064027    -0.509660794838     0.312488929016    12.000000000000
         C           -2.400369664027    -2.137121794838    -0.667446670984    12.000000000000
         C            5.142535335973    -0.852507794838     0.270107329016    12.000000000000
         C           -3.647112664027    -1.729857794838    -0.181943670984    12.000000000000
         H            0.577066335973    -1.146072794838     1.274733329016     1.007825032230
         H            1.812392335973     2.030086205162    -1.343610670984     1.007825032230
         H            2.928878335973    -1.880570794838     1.495602329016     1.007825032230
         H            4.172214335973     1.262454205162    -1.157885670984     1.007825032230
         H           -0.370908664027    -1.538763794838    -1.033473670984     1.007825032230
         H           -4.800107664027    -0.130015794838     0.675803329016     1.007825032230
         H           -2.264443664027    -3.135740794838    -1.073394670984     1.007825032230
         H            5.844578335973    -0.017963794838     0.186699329016     1.007825032230
         H            5.323702335973    -1.356247794838     1.223751329016     1.007825032230
         H            5.375455335973    -1.562957794838    -0.530809670984     1.007825032230
         H           -4.486393664027    -2.421969794838    -0.178567670984     1.007825032230
         H           -2.345922664027     2.463568205162     0.452285329016     1.007825032230
         H           -3.943863664027     2.054050205162     0.856474329016     1.007825032230

  Basis Set: AUG-CC-PVTZ
    Blend: AUG-CC-PVTZ
  Basis Set: (AUG-CC-PVTZ AUX)
    Blend: AUG-CC-PVTZ-JKFIT
	 Reference Energy          =    -667.2662856906201796 [Eh]
	 Singles Energy            =      -0.0000000000000000 [Eh]
	 Same-Spin Energy          =      -0.7347950381403563 [Eh]
	 Opposite-Spin Energy      =      -2.2652958019682155 [Eh]
	 Correlation Energy        =      -3.0000908401085717 [Eh]
	 Total Energy              =    -670.2663765307287349 [Eh]

	 ================> DF-SCS-MP2 Energies <==================
	-----------------------------------------------------------
	 SCS Same-Spin Scale       =       0.3333333333333333 [-]
	 SCS Opposite-Spin Scale   =       1.2000000000000000 [-]
	 SCS Same-Spin Energy      =      -0.2449316793801188 [Eh]
	 SCS Opposite-Spin Energy  =      -2.7183549623618584 [Eh]
	 SCS Correlation Energy    =      -2.9632866417419770 [Eh]
	 SCS Total Energy          =    -670.2295723323621814 [Eh]
	-----------------------------------------------------------

  Dipole Moment: [D]
     X:     0.2349      Y:    -1.6423      Z:    -0.0143     Total:     1.6590

*** Psi4 exiting successfully. Buy a developer a beer!
