                               Psi4 1.4a3.dev225

  ==> Input File <==

--------------------------------------------------------------------------
#psi4
#
memory 32 gb

molecule  {
0 1
  O       -0.5498120     2.2556960    -0.2996080
  N       -3.0129360     1.7813540     0.8248620
  C        1.0008190     0.4908720    -0.0872200
  C       -1.5329590     0.0859130    -0.1428360
  C       -0.3878030     1.0286420    -0.1846270
  C        3.6793340    -0.3535020     0.1683990
  C       -2.7652360     0.5204326     0.3036585
  C        1.3212360    -0.6095270     0.7211930
  C        2.0273690     1.1786660    -0.7492360
  C        2.6489240    -1.0168440     0.8468500
  C        3.3454510     0.7479200    -0.6334830
  C       -1.3791480    -1.2185740    -0.6492330
  C       -3.8612840    -0.4227650     0.3079770
  C       -2.4390410    -2.1168890    -0.6711390
  C        5.1038640    -0.8322750     0.2664150
  C       -3.6857840    -1.7096250    -0.1856360
  H        0.5383950    -1.1258400     1.2710410
  H        1.7737210     2.0503190    -1.3473030
  H        2.8902070    -1.8603380     1.4919100
  H        4.1335430     1.2826870    -1.1615780
  H       -0.4095800    -1.5185310    -1.0371660
  H       -4.8387790    -0.1097830     0.6721110
  H       -2.3031150    -3.1155080    -1.0770870
  H        5.8059070     0.0022690     0.1830070
  H        5.2850310    -1.3360150     1.2200590
  H        5.3367840    -1.5427250    -0.5345020
  H       -4.5250650    -2.4017370    -0.1822600
  H       -2.3845940     2.4838010     0.4485930
  H       -3.9825350     2.0742830     0.8527820
units angstrom
no_reorient  #important for SAPT in psi4, default
symmetry c1  #important for SAPT in psi4, default
}

set PROPERTIES_ORIGIN ["COM"]
properties('MP2/aug-cc-pvtz', properties = ['dipole'])
--------------------------------------------------------------------------

    Molecular point group: c1
  Charge       = 0
  Multiplicity = 1
  Basis Set: AUG-CC-PVTZ
    Blend: AUG-CC-PVTZ
  Basis Set: (AUG-CC-PVTZ AUX)
    Blend: AUG-CC-PVTZ-JKFIT

    Orbital Energies [Eh]
    ---------------------

    Doubly Occupied:

       1A    -20.538647     2A    -15.560263     3A    -11.338389
       4A    -11.297313     5A    -11.257462     6A    -11.251492
       7A    -11.250892     8A    -11.250795     9A    -11.246433
      10A    -11.243509    11A    -11.239254    12A    -11.237907
      13A    -11.236215    14A    -11.235353    15A    -11.233311
      16A    -11.228331    17A     -1.371770    18A     -1.226499
      19A     -1.165351    20A     -1.137199    21A     -1.069566
      22A     -1.035904    23A     -1.020942    24A     -0.994063
      25A     -0.955302    26A     -0.874734    27A     -0.841676
      28A     -0.837827    29A     -0.812056    30A     -0.765692
      31A     -0.713800    32A     -0.691867    33A     -0.685101
      34A     -0.660837    35A     -0.646489    36A     -0.636698
      37A     -0.619937    38A     -0.600322    39A     -0.598148
      40A     -0.592782    41A     -0.584927    42A     -0.583977
      43A     -0.556003    44A     -0.544719    45A     -0.528894
      46A     -0.517990    47A     -0.513820    48A     -0.507115
      49A     -0.493604    50A     -0.481986    51A     -0.451604
      52A     -0.418250    53A     -0.350329    54A     -0.343489
      55A     -0.334086    56A     -0.299783

  @DF-RHF Final Energy:  -667.27438688163420

   => Energetics <=

    Nuclear Repulsion Energy =            993.3495249067653958
    One-Electron Energy =               -2877.8264144667737128
    Two-Electron Energy =                1217.2025026783740032
    Total Energy =                       -667.2743868816342001
  Basis Set: (AUG-CC-PVTZ AUX)
    Blend: AUG-CC-PVTZ-RI
    Molecular point group: c1

    Geometry (in Angstrom), charge = 0, multiplicity = 1:

       Center              X                  Y                   Z               Mass
    ------------   -----------------  -----------------  -----------------  -----------------
         O           -0.518080743537     2.231364975073    -0.296279019653    15.994914619570
         N           -2.981204743537     1.757022975073     0.828190980347    14.003074004430
         C            1.032550256463     0.466540975073    -0.083891019653    12.000000000000
         C           -1.501227743537     0.061581975073    -0.139507019653    12.000000000000
         C           -0.356071743537     1.004310975073    -0.181298019653    12.000000000000
         C            3.711065256463    -0.377833024927     0.171727980347    12.000000000000
         C           -2.733504743537     0.496101575073     0.306987480347    12.000000000000
         C            1.352967256463    -0.633858024927     0.724521980347    12.000000000000
         C            2.059100256463     1.154334975073    -0.745907019653    12.000000000000
         C            2.680655256463    -1.041175024927     0.850178980347    12.000000000000
         C            3.377182256463     0.723588975073    -0.630154019653    12.000000000000
         C           -1.347416743537    -1.242905024927    -0.645904019653    12.000000000000
         C           -3.829552743537    -0.447096024927     0.311305980347    12.000000000000
         C           -2.407309743537    -2.141220024927    -0.667810019653    12.000000000000
         C            5.135595256463    -0.856606024927     0.269743980347    12.000000000000
         C           -3.654052743537    -1.733956024927    -0.182307019653    12.000000000000
         H            0.570126256463    -1.150171024927     1.274369980347     1.007825032230
         H            1.805452256463     2.025987975073    -1.343974019653     1.007825032230
         H            2.921938256463    -1.884669024927     1.495238980347     1.007825032230
         H            4.165274256463     1.258355975073    -1.158249019653     1.007825032230
         H           -0.377848743537    -1.542862024927    -1.033837019653     1.007825032230
         H           -4.807047743537    -0.134114024927     0.675439980347     1.007825032230
         H           -2.271383743537    -3.139839024927    -1.073758019653     1.007825032230
         H            5.837638256463    -0.022062024927     0.186335980347     1.007825032230
         H            5.316762256463    -1.360346024927     1.223387980347     1.007825032230
         H            5.368515256463    -1.567056024927    -0.531173019653     1.007825032230
         H           -4.493333743537    -2.426068024927    -0.178931019653     1.007825032230
         H           -2.352862743537     2.459469975073     0.451921980347     1.007825032230
         H           -3.950803743537     2.049951975073     0.856110980347     1.007825032230

  Basis Set: AUG-CC-PVTZ
    Blend: AUG-CC-PVTZ
  Basis Set: (AUG-CC-PVTZ AUX)
    Blend: AUG-CC-PVTZ-JKFIT
	 Reference Energy          =    -667.2743868816342001 [Eh]
	 Singles Energy            =      -0.0000000000000000 [Eh]
	 Same-Spin Energy          =      -0.7353472975505363 [Eh]
	 Opposite-Spin Energy      =      -2.2656378013675864 [Eh]
	 Correlation Energy        =      -3.0009850989181226 [Eh]
	 Total Energy              =    -670.2753719805523360 [Eh]

	 ================> DF-SCS-MP2 Energies <==================
	-----------------------------------------------------------
	 SCS Same-Spin Scale       =       0.3333333333333333 [-]
	 SCS Opposite-Spin Scale   =       1.2000000000000000 [-]
	 SCS Same-Spin Energy      =      -0.2451157658501787 [Eh]
	 SCS Opposite-Spin Energy  =      -2.7187653616411036 [Eh]
	 SCS Correlation Energy    =      -2.9638811274912822 [Eh]
	 SCS Total Energy          =    -670.2382680091254770 [Eh]
	-----------------------------------------------------------

  Dipole Moment: [D]
     X:     0.3516      Y:    -1.7887      Z:    -0.0956     Total:     1.8255

*** Psi4 exiting successfully. Buy a developer a beer!
