                               Psi4 1.4a3.dev225

  ==> Input File <==

--------------------------------------------------------------------------
#psi4
#
memory 32 gb

molecule  {
0 1
  O       -0.5498120     2.2556960    -0.2996080
  N       -3.0129360     1.7813540     0.8248620
  C        1.0008190     0.4908720    -0.0872200
  C       -1.5329590     0.0859130    -0.1428360
  C       -0.3878030     1.0286420    -0.1846270
  C        3.6793340    -0.3535020     0.1683990
  C       -2.8127890     0.5150010     0.2964470
  C        1.3212360    -0.6095270     0.7211930
  C        2.0273690     1.1786660    -0.7492360
  C        2.6489240    -1.0168440     0.8468500
  C        3.3454510     0.7479200    -0.6334830
  C       -1.3791480    -1.2185740    -0.6492330
  C       -3.8612840    -0.4227650     0.3079770
  C       -2.4390410    -2.1168890    -0.6711390
  C        5.1038640    -0.8322750     0.2664150
  C       -3.6857840    -1.7096250    -0.1856360
  H        0.5383950    -1.1258400     1.2710410
  H        1.7737210     2.0503190    -1.3473030
  H        2.8902070    -1.8603380     1.4919100
  H        4.1335430     1.2826870    -1.1615780
  H       -0.4095800    -1.5185310    -1.0371660
  H       -4.7939010    -0.1241524     0.6553932
  H       -2.3031150    -3.1155080    -1.0770870
  H        5.8059070     0.0022690     0.1830070
  H        5.2850310    -1.3360150     1.2200590
  H        5.3367840    -1.5427250    -0.5345020
  H       -4.5250650    -2.4017370    -0.1822600
  H       -2.3845940     2.4838010     0.4485930
  H       -3.9825350     2.0742830     0.8527820
units angstrom
no_reorient  #important for SAPT in psi4, default
symmetry c1  #important for SAPT in psi4, default
}

set PROPERTIES_ORIGIN ["COM"]
properties('MP2/aug-cc-pvtz', properties = ['dipole'])
--------------------------------------------------------------------------

    Molecular point group: c1
  Charge       = 0
  Multiplicity = 1
  Basis Set: AUG-CC-PVTZ
    Blend: AUG-CC-PVTZ
  Basis Set: (AUG-CC-PVTZ AUX)
    Blend: AUG-CC-PVTZ-JKFIT

    Orbital Energies [Eh]
    ---------------------

    Doubly Occupied:

       1A    -20.537865     2A    -15.560104     3A    -11.338294
       4A    -11.296411     5A    -11.257254     6A    -11.252271
       7A    -11.252071     8A    -11.250491     9A    -11.246230
      10A    -11.243439    11A    -11.239021    12A    -11.238751
      13A    -11.237729    14A    -11.233171    15A    -11.227951
      16A    -11.225963    17A     -1.370932    18A     -1.226680
      19A     -1.165105    20A     -1.136975    21A     -1.069592
      22A     -1.035176    23A     -1.020599    24A     -0.997381
      25A     -0.954516    26A     -0.876883    27A     -0.840245
      28A     -0.837442    29A     -0.813161    30A     -0.766602
      31A     -0.714983    32A     -0.691923    33A     -0.686422
      34A     -0.661436    35A     -0.646008    36A     -0.637100
      37A     -0.614119    38A     -0.606628    39A     -0.600578
      40A     -0.592733    41A     -0.585345    42A     -0.584092
      43A     -0.555670    44A     -0.544533    45A     -0.531606
      46A     -0.517924    47A     -0.514358    48A     -0.505793
      49A     -0.493421    50A     -0.482011    51A     -0.452166
      52A     -0.418795    53A     -0.349501    54A     -0.342973
      55A     -0.333878    56A     -0.300154

  @DF-RHF Final Energy:  -667.27587358632047

   => Energetics <=

    Nuclear Repulsion Energy =            993.1658700048387800
    One-Electron Energy =               -2877.4585801150742554
    Two-Electron Energy =                1217.0168365239151171
    Total Energy =                       -667.2758735863203583
  Basis Set: (AUG-CC-PVTZ AUX)
    Blend: AUG-CC-PVTZ-RI
    Molecular point group: c1

    Geometry (in Angstrom), charge = 0, multiplicity = 1:

       Center              X                  Y                   Z               Mass
    ------------   -----------------  -----------------  -----------------  -----------------
         O           -0.515591839985     2.231742337218    -0.295789267131    15.994914619570
         N           -2.978715839985     1.757400337218     0.828680732869    14.003074004430
         C            1.035039160015     0.466918337218    -0.083401267131    12.000000000000
         C           -1.498738839985     0.061959337218    -0.139017267131    12.000000000000
         C           -0.353582839985     1.004688337218    -0.180808267131    12.000000000000
         C            3.713554160015    -0.377455662782     0.172217732869    12.000000000000
         C           -2.778568839985     0.491047337218     0.300265732869    12.000000000000
         C            1.355456160015    -0.633480662782     0.725011732869    12.000000000000
         C            2.061589160015     1.154712337218    -0.745417267131    12.000000000000
         C            2.683144160015    -1.040797662782     0.850668732869    12.000000000000
         C            3.379671160015     0.723966337218    -0.629664267131    12.000000000000
         C           -1.344927839985    -1.242527662782    -0.645414267131    12.000000000000
         C           -3.827063839985    -0.446718662782     0.311795732869    12.000000000000
         C           -2.404820839985    -2.140842662782    -0.667320267131    12.000000000000
         C            5.138084160015    -0.856228662782     0.270233732869    12.000000000000
         C           -3.651563839985    -1.733578662782    -0.181817267131    12.000000000000
         H            0.572615160015    -1.149793662782     1.274859732869     1.007825032230
         H            1.807941160015     2.026365337218    -1.343484267131     1.007825032230
         H            2.924427160015    -1.884291662782     1.495728732869     1.007825032230
         H            4.167763160015     1.258733337218    -1.157759267131     1.007825032230
         H           -0.375359839985    -1.542484662782    -1.033347267131     1.007825032230
         H           -4.759680839985    -0.148106062782     0.659211932869     1.007825032230
         H           -2.268894839985    -3.139461662782    -1.073268267131     1.007825032230
         H            5.840127160015    -0.021684662782     0.186825732869     1.007825032230
         H            5.319251160015    -1.359968662782     1.223877732869     1.007825032230
         H            5.371004160015    -1.566678662782    -0.530683267131     1.007825032230
         H           -4.490844839985    -2.425690662782    -0.178441267131     1.007825032230
         H           -2.350373839985     2.459847337218     0.452411732869     1.007825032230
         H           -3.948314839985     2.050329337218     0.856600732869     1.007825032230

  Basis Set: AUG-CC-PVTZ
    Blend: AUG-CC-PVTZ
  Basis Set: (AUG-CC-PVTZ AUX)
    Blend: AUG-CC-PVTZ-JKFIT
	 Reference Energy          =    -667.2758735863204720 [Eh]
	 Singles Energy            =      -0.0000000000000000 [Eh]
	 Same-Spin Energy          =      -0.7354153233290157 [Eh]
	 Opposite-Spin Energy      =      -2.2651802602514692 [Eh]
	 Correlation Energy        =      -3.0005955835804849 [Eh]
	 Total Energy              =    -670.2764691699009063 [Eh]

	 ================> DF-SCS-MP2 Energies <==================
	-----------------------------------------------------------
	 SCS Same-Spin Scale       =       0.3333333333333333 [-]
	 SCS Opposite-Spin Scale   =       1.2000000000000000 [-]
	 SCS Same-Spin Energy      =      -0.2451384411096719 [Eh]
	 SCS Opposite-Spin Energy  =      -2.7182163123017631 [Eh]
	 SCS Correlation Energy    =      -2.9633547534114348 [Eh]
	 SCS Total Energy          =    -670.2392283397318806 [Eh]
	-----------------------------------------------------------

  Dipole Moment: [D]
     X:     0.3322      Y:    -1.8085      Z:    -0.0996     Total:     1.8415

*** Psi4 exiting successfully. Buy a developer a beer!
