                               Psi4 1.4a3.dev225

  ==> Input File <==

--------------------------------------------------------------------------
#psi4
#
memory 32 gb

molecule  {
0 1
  O       -0.5498120     2.2556960    -0.2996080
  N       -3.0129360     1.7813540     0.8248620
  C        1.0008190     0.4908720    -0.0872200
  C       -1.5329590     0.0859130    -0.1428360
  C       -0.3878030     1.0286420    -0.1846270
  C        3.6793340    -0.3535020     0.1683990
  C       -2.8127890     0.5150010     0.2964470
  C        1.3212360    -0.6095270     0.7211930
  C        2.0273690     1.1786660    -0.7492360
  C        2.6821026    -1.0475734     0.8654338
  C        3.3454510     0.7479200    -0.6334830
  C       -1.3791480    -1.2185740    -0.6492330
  C       -3.8612840    -0.4227650     0.3079770
  C       -2.4390410    -2.1168890    -0.6711390
  C        5.1038640    -0.8322750     0.2664150
  C       -3.6857840    -1.7096250    -0.1856360
  H        0.5383950    -1.1258400     1.2710410
  H        1.7737210     2.0503190    -1.3473030
  H        2.8902070    -1.8603380     1.4919100
  H        4.1335430     1.2826870    -1.1615780
  H       -0.4095800    -1.5185310    -1.0371660
  H       -4.8387790    -0.1097830     0.6721110
  H       -2.3031150    -3.1155080    -1.0770870
  H        5.8059070     0.0022690     0.1830070
  H        5.2850310    -1.3360150     1.2200590
  H        5.3367840    -1.5427250    -0.5345020
  H       -4.5250650    -2.4017370    -0.1822600
  H       -2.3845940     2.4838010     0.4485930
  H       -3.9825350     2.0742830     0.8527820
units angstrom
no_reorient  #important for SAPT in psi4, default
symmetry c1  #important for SAPT in psi4, default
}

set PROPERTIES_ORIGIN ["COM"]
properties('MP2/aug-cc-pvtz', properties = ['dipole'])
--------------------------------------------------------------------------

    Molecular point group: c1
  Charge       = 0
  Multiplicity = 1
  Basis Set: AUG-CC-PVTZ
    Blend: AUG-CC-PVTZ
  Basis Set: (AUG-CC-PVTZ AUX)
    Blend: AUG-CC-PVTZ-JKFIT

    Orbital Energies [Eh]
    ---------------------

    Doubly Occupied:

       1A    -20.538325     2A    -15.560089     3A    -11.338951
       4A    -11.296953     5A    -11.257614     6A    -11.255784
       7A    -11.252760     8A    -11.252231     9A    -11.247135
      10A    -11.244089    11A    -11.240011    12A    -11.239181
      13A    -11.238061    14A    -11.231979    15A    -11.231678
      16A    -11.228284    17A     -1.371406    18A     -1.226622
      19A     -1.161991    20A     -1.137038    21A     -1.070014
      22A     -1.035015    23A     -1.016726    24A     -0.996528
      25A     -0.953045    26A     -0.876578    27A     -0.842063
      28A     -0.835600    29A     -0.812985    30A     -0.767318
      31A     -0.713178    32A     -0.691531    33A     -0.686440
      34A     -0.658861    35A     -0.646234    36A     -0.639375
      37A     -0.614101    38A     -0.604259    39A     -0.602440
      40A     -0.593627    41A     -0.584716    42A     -0.583144
      43A     -0.556108    44A     -0.543714    45A     -0.531767
      46A     -0.516507    47A     -0.510532    48A     -0.503775
      49A     -0.498114    50A     -0.480284    51A     -0.452270
      52A     -0.418969    53A     -0.349287    54A     -0.339478
      55A     -0.335557    56A     -0.300396

  @DF-RHF Final Energy:  -667.27323495714586

   => Energetics <=

    Nuclear Repulsion Energy =            992.0162052382731872
    One-Electron Energy =               -2875.1574432593565689
    Two-Electron Energy =                1215.8680030639375218
    Total Energy =                       -667.2732349571458599
  Basis Set: (AUG-CC-PVTZ AUX)
    Blend: AUG-CC-PVTZ-RI
    Molecular point group: c1

    Geometry (in Angstrom), charge = 0, multiplicity = 1:

       Center              X                  Y                   Z               Mass
    ------------   -----------------  -----------------  -----------------  -----------------
         O           -0.517263628267     2.233420553414    -0.296925480026    15.994914619570
         N           -2.980387628267     1.759078553414     0.827544519974    14.003074004430
         C            1.033367371733     0.468596553414    -0.084537480026    12.000000000000
         C           -1.500410628267     0.063637553414    -0.140153480026    12.000000000000
         C           -0.355254628267     1.006366553414    -0.181944480026    12.000000000000
         C            3.711882371733    -0.375777446586     0.171081519974    12.000000000000
         C           -2.780240628267     0.492725553414     0.299129519974    12.000000000000
         C            1.353784371733    -0.631802446586     0.723875519974    12.000000000000
         C            2.059917371733     1.156390553414    -0.746553480026    12.000000000000
         C            2.714650971733    -1.069848846586     0.868116319974    12.000000000000
         C            3.377999371733     0.725644553414    -0.630800480026    12.000000000000
         C           -1.346599628267    -1.240849446586    -0.646550480026    12.000000000000
         C           -3.828735628267    -0.445040446586     0.310659519974    12.000000000000
         C           -2.406492628267    -2.139164446586    -0.668456480026    12.000000000000
         C            5.136412371733    -0.854550446586     0.269097519974    12.000000000000
         C           -3.653235628267    -1.731900446586    -0.182953480026    12.000000000000
         H            0.570943371733    -1.148115446586     1.273723519974     1.007825032230
         H            1.806269371733     2.028043553414    -1.344620480026     1.007825032230
         H            2.922755371733    -1.882613446586     1.494592519974     1.007825032230
         H            4.166091371733     1.260411553414    -1.158895480026     1.007825032230
         H           -0.377031628267    -1.540806446586    -1.034483480026     1.007825032230
         H           -4.806230628267    -0.132058446586     0.674793519974     1.007825032230
         H           -2.270566628267    -3.137783446586    -1.074404480026     1.007825032230
         H            5.838455371733    -0.020006446586     0.185689519974     1.007825032230
         H            5.317579371733    -1.358290446586     1.222741519974     1.007825032230
         H            5.369332371733    -1.565000446586    -0.531819480026     1.007825032230
         H           -4.492516628267    -2.424012446586    -0.179577480026     1.007825032230
         H           -2.352045628267     2.461525553414     0.451275519974     1.007825032230
         H           -3.949986628267     2.052007553414     0.855464519974     1.007825032230

  Basis Set: AUG-CC-PVTZ
    Blend: AUG-CC-PVTZ
  Basis Set: (AUG-CC-PVTZ AUX)
    Blend: AUG-CC-PVTZ-JKFIT
	 Reference Energy          =    -667.2732349571458599 [Eh]
	 Singles Energy            =      -0.0000000000000000 [Eh]
	 Same-Spin Energy          =      -0.7354160913451917 [Eh]
	 Opposite-Spin Energy      =      -2.2657875894199933 [Eh]
	 Correlation Energy        =      -3.0012036807651850 [Eh]
	 Total Energy              =    -670.2744386379110892 [Eh]

	 ================> DF-SCS-MP2 Energies <==================
	-----------------------------------------------------------
	 SCS Same-Spin Scale       =       0.3333333333333333 [-]
	 SCS Opposite-Spin Scale   =       1.2000000000000000 [-]
	 SCS Same-Spin Energy      =      -0.2451386971150639 [Eh]
	 SCS Opposite-Spin Energy  =      -2.7189451073039916 [Eh]
	 SCS Correlation Energy    =      -2.9640838044190554 [Eh]
	 SCS Total Energy          =    -670.2373187615648931 [Eh]
	-----------------------------------------------------------

  Dipole Moment: [D]
     X:     0.3280      Y:    -1.8250      Z:    -0.0928     Total:     1.8566

*** Psi4 exiting successfully. Buy a developer a beer!
