                               Psi4 1.4a3.dev225

  ==> Input File <==

--------------------------------------------------------------------------
#psi4
#
memory 32 gb

molecule  {
0 1
  O       -0.5498120     2.2556960    -0.2996080
  N       -3.0129360     1.7813540     0.8248620
  C        1.0008190     0.4908720    -0.0872200
  C       -1.5329590     0.0859130    -0.1428360
  C       -0.3878030     1.0286420    -0.1846270
  C        3.6793340    -0.3535020     0.1683990
  C       -2.8127890     0.5150010     0.2964470
  C        1.3212360    -0.6095270     0.7211930
  C        2.0273690     1.1786660    -0.7492360
  C        2.6489240    -1.0168440     0.8468500
  C        3.3454510     0.7479200    -0.6334830
  C       -1.3791480    -1.2185740    -0.6492330
  C       -3.8612840    -0.4227650     0.3079770
  C       -2.4390410    -2.1168890    -0.6711390
  C        5.1038640    -0.8322750     0.2664150
  C       -3.7795132    -1.7259603    -0.1668474
  H        0.5383950    -1.1258400     1.2710410
  H        1.7737210     2.0503190    -1.3473030
  H        2.8902070    -1.8603380     1.4919100
  H        4.1335430     1.2826870    -1.1615780
  H       -0.4095800    -1.5185310    -1.0371660
  H       -4.8387790    -0.1097830     0.6721110
  H       -2.3031150    -3.1155080    -1.0770870
  H        5.8059070     0.0022690     0.1830070
  H        5.2850310    -1.3360150     1.2200590
  H        5.3367840    -1.5427250    -0.5345020
  H       -4.5250650    -2.4017370    -0.1822600
  H       -2.3845940     2.4838010     0.4485930
  H       -3.9825350     2.0742830     0.8527820
units angstrom
no_reorient  #important for SAPT in psi4, default
symmetry c1  #important for SAPT in psi4, default
}

set PROPERTIES_ORIGIN ["COM"]
properties('MP2/aug-cc-pvtz', properties = ['dipole'])
--------------------------------------------------------------------------

    Molecular point group: c1
  Charge       = 0
  Multiplicity = 1
  Basis Set: AUG-CC-PVTZ
    Blend: AUG-CC-PVTZ
  Basis Set: (AUG-CC-PVTZ AUX)
    Blend: AUG-CC-PVTZ-JKFIT

    Orbital Energies [Eh]
    ---------------------

    Doubly Occupied:

       1A    -20.537647     2A    -15.561761     3A    -11.337914
       4A    -11.299554     5A    -11.257001     6A    -11.256619
       7A    -11.250217     8A    -11.250020     9A    -11.245983
      10A    -11.243166    11A    -11.238755    12A    -11.238413
      13A    -11.237466    14A    -11.236365    15A    -11.236002
      16A    -11.232959    17A     -1.370694    18A     -1.227286
      19A     -1.164767    20A     -1.129852    21A     -1.068631
      22A     -1.035399    23A     -1.020456    24A     -0.990926
      25A     -0.954649    26A     -0.881882    27A     -0.837970
      28A     -0.834431    29A     -0.813424    30A     -0.766032
      31A     -0.712269    32A     -0.703017    33A     -0.687110
      34A     -0.660884    35A     -0.644141    36A     -0.635296
      37A     -0.615488    38A     -0.605123    39A     -0.599091
      40A     -0.592035    41A     -0.583940    42A     -0.580827
      43A     -0.555692    44A     -0.551534    45A     -0.540179
      46A     -0.517859    47A     -0.510700    48A     -0.494166
      49A     -0.492984    50A     -0.480093    51A     -0.447134
      52A     -0.418967    53A     -0.351158    54A     -0.342996
      55A     -0.333639    56A     -0.296183

  @DF-RHF Final Energy:  -667.26320016410568

   => Energetics <=

    Nuclear Repulsion Energy =            991.1052210295960094
    One-Electron Energy =               -2873.3193463317934402
    Two-Electron Energy =                1214.9509251380916339
    Total Energy =                       -667.2632001641056831
  Basis Set: (AUG-CC-PVTZ AUX)
    Blend: AUG-CC-PVTZ-RI
    Molecular point group: c1

    Geometry (in Angstrom), charge = 0, multiplicity = 1:

       Center              X                  Y                   Z               Mass
    ------------   -----------------  -----------------  -----------------  -----------------
         O           -0.510049532279     2.232602318293    -0.296937121918    15.994914619570
         N           -2.973173532279     1.758260318293     0.827532878082    14.003074004430
         C            1.040581467721     0.467778318293    -0.084549121918    12.000000000000
         C           -1.493196532279     0.062819318293    -0.140165121918    12.000000000000
         C           -0.348040532279     1.005548318293    -0.181956121918    12.000000000000
         C            3.719096467721    -0.376595681707     0.171069878082    12.000000000000
         C           -2.773026532279     0.491907318293     0.299117878082    12.000000000000
         C            1.360998467721    -0.632620681707     0.723863878082    12.000000000000
         C            2.067131467721     1.155572318293    -0.746565121918    12.000000000000
         C            2.688686467721    -1.039937681707     0.849520878082    12.000000000000
         C            3.385213467721     0.724826318293    -0.630812121918    12.000000000000
         C           -1.339385532279    -1.241667681707    -0.646562121918    12.000000000000
         C           -3.821521532279    -0.445858681707     0.310647878082    12.000000000000
         C           -2.399278532279    -2.139982681707    -0.668468121918    12.000000000000
         C            5.143626467721    -0.855368681707     0.269085878082    12.000000000000
         C           -3.739750732279    -1.749053981707    -0.164176521918    12.000000000000
         H            0.578157467721    -1.148933681707     1.273711878082     1.007825032230
         H            1.813483467721     2.027225318293    -1.344632121918     1.007825032230
         H            2.929969467721    -1.883431681707     1.494580878082     1.007825032230
         H            4.173305467721     1.259593318293    -1.158907121918     1.007825032230
         H           -0.369817532279    -1.541624681707    -1.034495121918     1.007825032230
         H           -4.799016532279    -0.132876681707     0.674781878082     1.007825032230
         H           -2.263352532279    -3.138601681707    -1.074416121918     1.007825032230
         H            5.845669467721    -0.020824681707     0.185677878082     1.007825032230
         H            5.324793467721    -1.359108681707     1.222729878082     1.007825032230
         H            5.376546467721    -1.565818681707    -0.531831121918     1.007825032230
         H           -4.485302532279    -2.424830681707    -0.179589121918     1.007825032230
         H           -2.344831532279     2.460707318293     0.451263878082     1.007825032230
         H           -3.942772532279     2.051189318293     0.855452878082     1.007825032230

  Basis Set: AUG-CC-PVTZ
    Blend: AUG-CC-PVTZ
  Basis Set: (AUG-CC-PVTZ AUX)
    Blend: AUG-CC-PVTZ-JKFIT
	 Reference Energy          =    -667.2632001641056831 [Eh]
	 Singles Energy            =      -0.0000000000000000 [Eh]
	 Same-Spin Energy          =      -0.7356469554228968 [Eh]
	 Opposite-Spin Energy      =      -2.2668744403923498 [Eh]
	 Correlation Energy        =      -3.0025213958152466 [Eh]
	 Total Energy              =    -670.2657215599209621 [Eh]

	 ================> DF-SCS-MP2 Energies <==================
	-----------------------------------------------------------
	 SCS Same-Spin Scale       =       0.3333333333333333 [-]
	 SCS Opposite-Spin Scale   =       1.2000000000000000 [-]
	 SCS Same-Spin Energy      =      -0.2452156518076323 [Eh]
	 SCS Opposite-Spin Energy  =      -2.7202493284708198 [Eh]
	 SCS Correlation Energy    =      -2.9654649802784521 [Eh]
	 SCS Total Energy          =    -670.2286651443840810 [Eh]
	-----------------------------------------------------------

  Dipole Moment: [D]
     X:     0.3019      Y:    -1.8112      Z:    -0.0859     Total:     1.8382

*** Psi4 exiting successfully. Buy a developer a beer!
