                               Psi4 1.4a3.dev225

  ==> Input File <==

--------------------------------------------------------------------------
#psi4
#
memory 32 gb

molecule  {
0 1
  O       -0.5498120     2.2556960    -0.2996080
  N       -3.0129360     1.7813540     0.8248620
  C        1.0008190     0.4908720    -0.0872200
  C       -1.5329590     0.0859130    -0.1428360
  C       -0.3878030     1.0286420    -0.1846270
  C        3.6793340    -0.3535020     0.1683990
  C       -2.8127890     0.5150010     0.2964470
  C        1.3212360    -0.6095270     0.7211930
  C        2.0273690     1.1786660    -0.7492360
  C        2.6489240    -1.0168440     0.8468500
  C        3.3454510     0.7479200    -0.6334830
  C       -1.3791480    -1.2185740    -0.6492330
  C       -3.8612840    -0.4227650     0.3079770
  C       -2.4237857    -2.1039593    -0.6708237
  C        5.1038640    -0.8322750     0.2664150
  C       -3.6857840    -1.7096250    -0.1856360
  H        0.5383950    -1.1258400     1.2710410
  H        1.7737210     2.0503190    -1.3473030
  H        2.8902070    -1.8603380     1.4919100
  H        4.1335430     1.2826870    -1.1615780
  H       -0.4095800    -1.5185310    -1.0371660
  H       -4.8387790    -0.1097830     0.6721110
  H       -2.3031150    -3.1155080    -1.0770870
  H        5.8059070     0.0022690     0.1830070
  H        5.2850310    -1.3360150     1.2200590
  H        5.3367840    -1.5427250    -0.5345020
  H       -4.5250650    -2.4017370    -0.1822600
  H       -2.3845940     2.4838010     0.4485930
  H       -3.9825350     2.0742830     0.8527820
units angstrom
no_reorient  #important for SAPT in psi4, default
symmetry c1  #important for SAPT in psi4, default
}

set PROPERTIES_ORIGIN ["COM"]
properties('MP2/aug-cc-pvtz', properties = ['dipole'])
--------------------------------------------------------------------------

    Molecular point group: c1
  Charge       = 0
  Multiplicity = 1
  Basis Set: AUG-CC-PVTZ
    Blend: AUG-CC-PVTZ
  Basis Set: (AUG-CC-PVTZ AUX)
    Blend: AUG-CC-PVTZ-JKFIT

    Orbital Energies [Eh]
    ---------------------

    Doubly Occupied:

       1A    -20.537443     2A    -15.560258     3A    -11.337935
       4A    -11.297147     5A    -11.257100     6A    -11.254211
       7A    -11.250345     8A    -11.249208     9A    -11.246059
      10A    -11.243258    11A    -11.238895    12A    -11.238137
      13A    -11.237585    14A    -11.233063    15A    -11.232897
      16A    -11.228031    17A     -1.370558    18A     -1.226822
      19A     -1.164981    20A     -1.138280    21A     -1.069186
      22A     -1.034264    23A     -1.020397    24A     -0.998000
      25A     -0.954332    26A     -0.877525    27A     -0.838423
      28A     -0.835993    29A     -0.812624    30A     -0.765780
      31A     -0.712687    32A     -0.691754    33A     -0.686624
      34A     -0.660916    35A     -0.644647    36A     -0.635945
      37A     -0.613454    38A     -0.605281    39A     -0.599497
      40A     -0.592441    41A     -0.584571    42A     -0.583623
      43A     -0.555772    44A     -0.545193    45A     -0.532767
      46A     -0.518187    47A     -0.512570    48A     -0.502799
      49A     -0.493273    50A     -0.481476    51A     -0.453212
      52A     -0.418646    53A     -0.349780    54A     -0.342905
      55A     -0.333735    56A     -0.301041

  @DF-RHF Final Energy:  -667.27619204976577

   => Energetics <=

    Nuclear Repulsion Energy =            993.1972330444222052
    One-Electron Energy =               -2877.5437811279266498
    Two-Electron Energy =                1217.0703560337385625
    Total Energy =                       -667.2761920497657684
  Basis Set: (AUG-CC-PVTZ AUX)
    Blend: AUG-CC-PVTZ-RI
    Molecular point group: c1

    Geometry (in Angstrom), charge = 0, multiplicity = 1:

       Center              X                  Y                   Z               Mass
    ------------   -----------------  -----------------  -----------------  -----------------
         O           -0.516244775157     2.230938744273    -0.295887003963    15.994914619570
         N           -2.979368775157     1.756596744273     0.828582996037    14.003074004430
         C            1.034386224843     0.466114744273    -0.083499003963    12.000000000000
         C           -1.499391775157     0.061155744273    -0.139115003963    12.000000000000
         C           -0.354235775157     1.003884744273    -0.180906003963    12.000000000000
         C            3.712901224843    -0.378259255727     0.172119996037    12.000000000000
         C           -2.779221775157     0.490243744273     0.300167996037    12.000000000000
         C            1.354803224843    -0.634284255727     0.724913996037    12.000000000000
         C            2.060936224843     1.153908744273    -0.745515003963    12.000000000000
         C            2.682491224843    -1.041601255727     0.850570996037    12.000000000000
         C            3.379018224843     0.723162744273    -0.629762003963    12.000000000000
         C           -1.345580775157    -1.243331255727    -0.645512003963    12.000000000000
         C           -3.827716775157    -0.447522255727     0.311697996037    12.000000000000
         C           -2.390218475157    -2.128716555727    -0.667102703963    12.000000000000
         C            5.137431224843    -0.857032255727     0.270135996037    12.000000000000
         C           -3.652216775157    -1.734382255727    -0.181915003963    12.000000000000
         H            0.571962224843    -1.150597255727     1.274761996037     1.007825032230
         H            1.807288224843     2.025561744273    -1.343582003963     1.007825032230
         H            2.923774224843    -1.885095255727     1.495630996037     1.007825032230
         H            4.167110224843     1.257929744273    -1.157857003963     1.007825032230
         H           -0.376012775157    -1.543288255727    -1.033445003963     1.007825032230
         H           -4.805211775157    -0.134540255727     0.675831996037     1.007825032230
         H           -2.269547775157    -3.140265255727    -1.073366003963     1.007825032230
         H            5.839474224843    -0.022488255727     0.186727996037     1.007825032230
         H            5.318598224843    -1.360772255727     1.223779996037     1.007825032230
         H            5.370351224843    -1.567482255727    -0.530781003963     1.007825032230
         H           -4.491497775157    -2.426494255727    -0.178539003963     1.007825032230
         H           -2.351026775157     2.459043744273     0.452313996037     1.007825032230
         H           -3.948967775157     2.049525744273     0.856502996037     1.007825032230

  Basis Set: AUG-CC-PVTZ
    Blend: AUG-CC-PVTZ
  Basis Set: (AUG-CC-PVTZ AUX)
    Blend: AUG-CC-PVTZ-JKFIT
	 Reference Energy          =    -667.2761920497657684 [Eh]
	 Singles Energy            =      -0.0000000000000000 [Eh]
	 Same-Spin Energy          =      -0.7355110634999540 [Eh]
	 Opposite-Spin Energy      =      -2.2654861523320000 [Eh]
	 Correlation Energy        =      -3.0009972158319540 [Eh]
	 Total Energy              =    -670.2771892655977126 [Eh]

	 ================> DF-SCS-MP2 Energies <==================
	-----------------------------------------------------------
	 SCS Same-Spin Scale       =       0.3333333333333333 [-]
	 SCS Opposite-Spin Scale   =       1.2000000000000000 [-]
	 SCS Same-Spin Energy      =      -0.2451703544999846 [Eh]
	 SCS Opposite-Spin Energy  =      -2.7185833827983998 [Eh]
	 SCS Correlation Energy    =      -2.9637537372983846 [Eh]
	 SCS Total Energy          =    -670.2399457870641299 [Eh]
	-----------------------------------------------------------

  Dipole Moment: [D]
     X:     0.3181      Y:    -1.8190      Z:    -0.0998     Total:     1.8493

*** Psi4 exiting successfully. Buy a developer a beer!
