                               Psi4 1.4a3.dev225

  ==> Input File <==

--------------------------------------------------------------------------
#psi4
#
memory 32 gb

molecule  {
0 1
  O       -0.5498120     2.2556960    -0.2996080
  N       -3.0129360     1.7813540     0.8248620
  C        1.0008190     0.4908720    -0.0872200
  C       -1.5329590     0.0859130    -0.1428360
  C       -0.3878030     1.0286420    -0.1846270
  C        3.6793340    -0.3535020     0.1683990
  C       -2.8127890     0.5150010     0.2964470
  C        1.3212360    -0.6095270     0.7211930
  C        2.0273690     1.1786660    -0.7492360
  C        2.6171894    -0.9844635     0.8285501
  C        3.3454510     0.7479200    -0.6334830
  C       -1.3791480    -1.2185740    -0.6492330
  C       -3.8612840    -0.4227650     0.3079770
  C       -2.4390410    -2.1168890    -0.6711390
  C        5.1038640    -0.8322750     0.2664150
  C       -3.6857840    -1.7096250    -0.1856360
  H        0.5383950    -1.1258400     1.2710410
  H        1.7737210     2.0503190    -1.3473030
  H        2.8902070    -1.8603380     1.4919100
  H        4.1335430     1.2826870    -1.1615780
  H       -0.4095800    -1.5185310    -1.0371660
  H       -4.8387790    -0.1097830     0.6721110
  H       -2.3031150    -3.1155080    -1.0770870
  H        5.8059070     0.0022690     0.1830070
  H        5.2850310    -1.3360150     1.2200590
  H        5.3367840    -1.5427250    -0.5345020
  H       -4.5250650    -2.4017370    -0.1822600
  H       -2.3845940     2.4838010     0.4485930
  H       -3.9825350     2.0742830     0.8527820
units angstrom
no_reorient  #important for SAPT in psi4, default
symmetry c1  #important for SAPT in psi4, default
}

set PROPERTIES_ORIGIN ["COM"]
properties('MP2/aug-cc-pvtz', properties = ['dipole'])
--------------------------------------------------------------------------

    Molecular point group: c1
  Charge       = 0
  Multiplicity = 1
  Basis Set: AUG-CC-PVTZ
    Blend: AUG-CC-PVTZ
  Basis Set: (AUG-CC-PVTZ AUX)
    Blend: AUG-CC-PVTZ-JKFIT

    Orbital Energies [Eh]
    ---------------------

    Doubly Occupied:

       1A    -20.537748     2A    -15.559986     3A    -11.338054
       4A    -11.296877     5A    -11.257401     6A    -11.252719
       7A    -11.252324     8A    -11.245696     9A    -11.245289
      10A    -11.243050    11A    -11.239083    12A    -11.238327
      13A    -11.237695    14A    -11.234809    15A    -11.231976
      16A    -11.228349    17A     -1.370787    18A     -1.226528
      19A     -1.169053    20A     -1.137200    21A     -1.069418
      22A     -1.034252    23A     -1.024891    24A     -0.996592
      25A     -0.956052    26A     -0.877568    27A     -0.837904
      28A     -0.835839    29A     -0.813018    30A     -0.765344
      31A     -0.712500    32A     -0.692230    33A     -0.686085
      34A     -0.663986    35A     -0.645344    36A     -0.634438
      37A     -0.614256    38A     -0.603709    39A     -0.598373
      40A     -0.588855    41A     -0.585100    42A     -0.584133
      43A     -0.555377    44A     -0.545944    45A     -0.532114
      46A     -0.521114    47A     -0.515168    48A     -0.506291
      49A     -0.486217    50A     -0.483136    51A     -0.452326
      52A     -0.418773    53A     -0.351042    54A     -0.346124
      55A     -0.332550    56A     -0.300347

  @DF-RHF Final Energy:  -667.27349188604364

   => Energetics <=

    Nuclear Repulsion Energy =            993.7817105052254192
    One-Electron Energy =               -2878.6916826143365142
    Two-Electron Energy =                1217.6364802230673376
    Total Energy =                       -667.2734918860437574
  Basis Set: (AUG-CC-PVTZ AUX)
    Blend: AUG-CC-PVTZ-RI
    Molecular point group: c1

    Geometry (in Angstrom), charge = 0, multiplicity = 1:

       Center              X                  Y                   Z               Mass
    ------------   -----------------  -----------------  -----------------  -----------------
         O           -0.513573626110     2.229833060160    -0.294828819678    15.994914619570
         N           -2.976697626110     1.755491060160     0.829641180322    14.003074004430
         C            1.037057373890     0.465009060160    -0.082440819678    12.000000000000
         C           -1.496720626110     0.060050060160    -0.138056819678    12.000000000000
         C           -0.351564626110     1.002779060160    -0.179847819678    12.000000000000
         C            3.715572373890    -0.379364939840     0.173178180322    12.000000000000
         C           -2.776550626110     0.489138060160     0.301226180322    12.000000000000
         C            1.357474373890    -0.635389939840     0.725972180322    12.000000000000
         C            2.063607373890     1.152803060160    -0.744456819678    12.000000000000
         C            2.653427773890    -1.010326439840     0.833329280322    12.000000000000
         C            3.381689373890     0.722057060160    -0.628703819678    12.000000000000
         C           -1.342909626110    -1.244436939840    -0.644453819678    12.000000000000
         C           -3.825045626110    -0.448627939840     0.312756180322    12.000000000000
         C           -2.402802626110    -2.142751939840    -0.666359819678    12.000000000000
         C            5.140102373890    -0.858137939840     0.271194180322    12.000000000000
         C           -3.649545626110    -1.735487939840    -0.180856819678    12.000000000000
         H            0.574633373890    -1.151702939840     1.275820180322     1.007825032230
         H            1.809959373890     2.024456060160    -1.342523819678     1.007825032230
         H            2.926445373890    -1.886200939840     1.496689180322     1.007825032230
         H            4.169781373890     1.256824060160    -1.156798819678     1.007825032230
         H           -0.373341626110    -1.544393939840    -1.032386819678     1.007825032230
         H           -4.802540626110    -0.135645939840     0.676890180322     1.007825032230
         H           -2.266876626110    -3.141370939840    -1.072307819678     1.007825032230
         H            5.842145373890    -0.023593939840     0.187786180322     1.007825032230
         H            5.321269373890    -1.361877939840     1.224838180322     1.007825032230
         H            5.373022373890    -1.568587939840    -0.529722819678     1.007825032230
         H           -4.488826626110    -2.427599939840    -0.177480819678     1.007825032230
         H           -2.348355626110     2.457938060160     0.453372180322     1.007825032230
         H           -3.946296626110     2.048420060160     0.857561180322     1.007825032230

  Basis Set: AUG-CC-PVTZ
    Blend: AUG-CC-PVTZ
  Basis Set: (AUG-CC-PVTZ AUX)
    Blend: AUG-CC-PVTZ-JKFIT
	 Reference Energy          =    -667.2734918860436437 [Eh]
	 Singles Energy            =      -0.0000000000000000 [Eh]
	 Same-Spin Energy          =      -0.7357009256326842 [Eh]
	 Opposite-Spin Energy      =      -2.2655951840767754 [Eh]
	 Correlation Energy        =      -3.0012961097094597 [Eh]
	 Total Energy              =    -670.2747879957530586 [Eh]

	 ================> DF-SCS-MP2 Energies <==================
	-----------------------------------------------------------
	 SCS Same-Spin Scale       =       0.3333333333333333 [-]
	 SCS Opposite-Spin Scale   =       1.2000000000000000 [-]
	 SCS Same-Spin Energy      =      -0.2452336418775614 [Eh]
	 SCS Opposite-Spin Energy  =      -2.7187142208921302 [Eh]
	 SCS Correlation Energy    =      -2.9639478627696918 [Eh]
	 SCS Total Energy          =    -670.2374397488133582 [Eh]
	-----------------------------------------------------------

  Dipole Moment: [D]
     X:     0.3714      Y:    -1.7950      Z:    -0.1264     Total:     1.8373

*** Psi4 exiting successfully. Buy a developer a beer!
