                               Psi4 1.4a3.dev225

  ==> Input File <==

--------------------------------------------------------------------------
#psi4
#
memory 32 gb

molecule  {
0 1
  O       -0.5498120     2.2556960    -0.2996080
  N       -3.0129360     1.7813540     0.8248620
  C        1.0008190     0.4908720    -0.0872200
  C       -1.5329590     0.0859130    -0.1428360
  C       -0.3878030     1.0286420    -0.1846270
  C        3.6793340    -0.3535020     0.1683990
  C       -2.8127890     0.5150010     0.2964470
  C        1.2257177    -0.6187764     0.7405345
  C        2.0273690     1.1786660    -0.7492360
  C        2.6489240    -1.0168440     0.8468500
  C        3.3454510     0.7479200    -0.6334830
  C       -1.3791480    -1.2185740    -0.6492330
  C       -3.8612840    -0.4227650     0.3079770
  C       -2.4390410    -2.1168890    -0.6711390
  C        5.1038640    -0.8322750     0.2664150
  C       -3.6857840    -1.7096250    -0.1856360
  H        0.5383950    -1.1258400     1.2710410
  H        1.7737210     2.0503190    -1.3473030
  H        2.8902070    -1.8603380     1.4919100
  H        4.1335430     1.2826870    -1.1615780
  H       -0.4095800    -1.5185310    -1.0371660
  H       -4.8387790    -0.1097830     0.6721110
  H       -2.3031150    -3.1155080    -1.0770870
  H        5.8059070     0.0022690     0.1830070
  H        5.2850310    -1.3360150     1.2200590
  H        5.3367840    -1.5427250    -0.5345020
  H       -4.5250650    -2.4017370    -0.1822600
  H       -2.3845940     2.4838010     0.4485930
  H       -3.9825350     2.0742830     0.8527820
units angstrom
no_reorient  #important for SAPT in psi4, default
symmetry c1  #important for SAPT in psi4, default
}

set PROPERTIES_ORIGIN ["COM"]
properties('MP2/aug-cc-pvtz', properties = ['dipole'])
--------------------------------------------------------------------------

    Molecular point group: c1
  Charge       = 0
  Multiplicity = 1
  Basis Set: AUG-CC-PVTZ
    Blend: AUG-CC-PVTZ
  Basis Set: (AUG-CC-PVTZ AUX)
    Blend: AUG-CC-PVTZ-JKFIT

    Orbital Energies [Eh]
    ---------------------

    Doubly Occupied:

       1A    -20.536952     2A    -15.559977     3A    -11.336294
       4A    -11.296953     5A    -11.256461     6A    -11.254276
       7A    -11.252808     8A    -11.252192     9A    -11.248005
      10A    -11.247282    11A    -11.245809    12A    -11.240350
      13A    -11.239125    14A    -11.233054    15A    -11.232078
      16A    -11.228414    17A     -1.370261    18A     -1.226554
      19A     -1.159553    20A     -1.136932    21A     -1.071626
      22A     -1.034338    23A     -1.014243    24A     -0.996553
      25A     -0.951371    26A     -0.876797    27A     -0.847915
      28A     -0.836585    29A     -0.812301    30A     -0.764245
      31A     -0.712895    32A     -0.692601    33A     -0.686047
      34A     -0.661367    35A     -0.653254    36A     -0.638614
      37A     -0.612971    38A     -0.604961    39A     -0.601602
      40A     -0.589871    41A     -0.584047    42A     -0.582602
      43A     -0.556670    44A     -0.543451    45A     -0.531201
      46A     -0.516920    47A     -0.512416    48A     -0.504747
      49A     -0.498152    50A     -0.478422    51A     -0.452447
      52A     -0.415896    53A     -0.349570    54A     -0.339223
      55A     -0.333137    56A     -0.300453

  @DF-RHF Final Energy:  -667.26258915384744

   => Energetics <=

    Nuclear Repulsion Energy =            992.4212756516355967
    One-Electron Energy =               -2875.9420476447025976
    Two-Electron Energy =                1216.2581828392194438
    Total Energy =                       -667.2625891538475571
  Basis Set: (AUG-CC-PVTZ AUX)
    Blend: AUG-CC-PVTZ-RI
    Molecular point group: c1

    Geometry (in Angstrom), charge = 0, multiplicity = 1:

       Center              X                  Y                   Z               Mass
    ------------   -----------------  -----------------  -----------------  -----------------
         O           -0.509947830578     2.232199519074    -0.296968551615    15.994914619570
         N           -2.973071830578     1.757857519074     0.827501448385    14.003074004430
         C            1.040683169422     0.467375519074    -0.084580551615    12.000000000000
         C           -1.493094830578     0.062416519074    -0.140196551615    12.000000000000
         C           -0.347938830578     1.005145519074    -0.181987551615    12.000000000000
         C            3.719198169422    -0.376998480926     0.171038448385    12.000000000000
         C           -2.772924830578     0.491504519074     0.299086448385    12.000000000000
         C            1.265581869422    -0.642272880926     0.743173948385    12.000000000000
         C            2.067233169422     1.155169519074    -0.746596551615    12.000000000000
         C            2.688788169422    -1.040340480926     0.849489448385    12.000000000000
         C            3.385315169422     0.724423519074    -0.630843551615    12.000000000000
         C           -1.339283830578    -1.242070480926    -0.646593551615    12.000000000000
         C           -3.821419830578    -0.446261480926     0.310616448385    12.000000000000
         C           -2.399176830578    -2.140385480926    -0.668499551615    12.000000000000
         C            5.143728169422    -0.855771480926     0.269054448385    12.000000000000
         C           -3.645919830578    -1.733121480926    -0.182996551615    12.000000000000
         H            0.578259169422    -1.149336480926     1.273680448385     1.007825032230
         H            1.813585169422     2.026822519074    -1.344663551615     1.007825032230
         H            2.930071169422    -1.883834480926     1.494549448385     1.007825032230
         H            4.173407169422     1.259190519074    -1.158938551615     1.007825032230
         H           -0.369715830578    -1.542027480926    -1.034526551615     1.007825032230
         H           -4.798914830578    -0.133279480926     0.674750448385     1.007825032230
         H           -2.263250830578    -3.139004480926    -1.074447551615     1.007825032230
         H            5.845771169422    -0.021227480926     0.185646448385     1.007825032230
         H            5.324895169422    -1.359511480926     1.222698448385     1.007825032230
         H            5.376648169422    -1.566221480926    -0.531862551615     1.007825032230
         H           -4.485200830578    -2.425233480926    -0.179620551615     1.007825032230
         H           -2.344729830578     2.460304519074     0.451232448385     1.007825032230
         H           -3.942670830578     2.050786519074     0.855421448385     1.007825032230

  Basis Set: AUG-CC-PVTZ
    Blend: AUG-CC-PVTZ
  Basis Set: (AUG-CC-PVTZ AUX)
    Blend: AUG-CC-PVTZ-JKFIT
	 Reference Energy          =    -667.2625891538474434 [Eh]
	 Singles Energy            =      -0.0000000000000000 [Eh]
	 Same-Spin Energy          =      -0.7357612793506759 [Eh]
	 Opposite-Spin Energy      =      -2.2669524375068000 [Eh]
	 Correlation Energy        =      -3.0027137168574760 [Eh]
	 Total Energy              =    -670.2653028707048861 [Eh]

	 ================> DF-SCS-MP2 Energies <==================
	-----------------------------------------------------------
	 SCS Same-Spin Scale       =       0.3333333333333333 [-]
	 SCS Opposite-Spin Scale   =       1.2000000000000000 [-]
	 SCS Same-Spin Energy      =      -0.2452537597835586 [Eh]
	 SCS Opposite-Spin Energy  =      -2.7203429250081599 [Eh]
	 SCS Correlation Energy    =      -2.9655966847917186 [Eh]
	 SCS Total Energy          =    -670.2281858386392059 [Eh]
	-----------------------------------------------------------

  Dipole Moment: [D]
     X:     0.3752      Y:    -1.8163      Z:    -0.1034     Total:     1.8576

*** Psi4 exiting successfully. Buy a developer a beer!
