                               Psi4 1.4a3.dev225

  ==> Input File <==

--------------------------------------------------------------------------
#psi4
#
memory 32 gb

molecule  {
0 1
  O       -0.5498120     2.2556960    -0.2996080
  N       -3.0129360     1.7813540     0.8248620
  C        1.0958274     0.4975573    -0.1098497
  C       -1.5329590     0.0859130    -0.1428360
  C       -0.3878030     1.0286420    -0.1846270
  C        3.6793340    -0.3535020     0.1683990
  C       -2.8127890     0.5150010     0.2964470
  C        1.3212360    -0.6095270     0.7211930
  C        2.0273690     1.1786660    -0.7492360
  C        2.6489240    -1.0168440     0.8468500
  C        3.3454510     0.7479200    -0.6334830
  C       -1.3791480    -1.2185740    -0.6492330
  C       -3.8612840    -0.4227650     0.3079770
  C       -2.4390410    -2.1168890    -0.6711390
  C        5.1038640    -0.8322750     0.2664150
  C       -3.6857840    -1.7096250    -0.1856360
  H        0.5383950    -1.1258400     1.2710410
  H        1.7737210     2.0503190    -1.3473030
  H        2.8902070    -1.8603380     1.4919100
  H        4.1335430     1.2826870    -1.1615780
  H       -0.4095800    -1.5185310    -1.0371660
  H       -4.8387790    -0.1097830     0.6721110
  H       -2.3031150    -3.1155080    -1.0770870
  H        5.8059070     0.0022690     0.1830070
  H        5.2850310    -1.3360150     1.2200590
  H        5.3367840    -1.5427250    -0.5345020
  H       -4.5250650    -2.4017370    -0.1822600
  H       -2.3845940     2.4838010     0.4485930
  H       -3.9825350     2.0742830     0.8527820
units angstrom
no_reorient  #important for SAPT in psi4, default
symmetry c1  #important for SAPT in psi4, default
}

set PROPERTIES_ORIGIN ["COM"]
properties('MP2/aug-cc-pvtz', properties = ['dipole'])
--------------------------------------------------------------------------

    Molecular point group: c1
  Charge       = 0
  Multiplicity = 1
  Basis Set: AUG-CC-PVTZ
    Blend: AUG-CC-PVTZ
  Basis Set: (AUG-CC-PVTZ AUX)
    Blend: AUG-CC-PVTZ-JKFIT

    Orbital Energies [Eh]
    ---------------------

    Doubly Occupied:

       1A    -20.540127     2A    -15.560888     3A    -11.341952
       4A    -11.298121     5A    -11.253619     6A    -11.253281
       7A    -11.252174     8A    -11.246891     9A    -11.241252
      10A    -11.240903    11A    -11.238663    12A    -11.236999
      13A    -11.233158    14A    -11.232830    15A    -11.230868
      16A    -11.229123    17A     -1.370656    18A     -1.227470
      19A     -1.171282    20A     -1.137843    21A     -1.066391
      22A     -1.038497    23A     -1.022384    24A     -0.997283
      25A     -0.947439    26A     -0.875426    27A     -0.842594
      28A     -0.833039    29A     -0.809441    30A     -0.766811
      31A     -0.711714    32A     -0.692858    33A     -0.686403
      34A     -0.658957    35A     -0.647438    36A     -0.634951
      37A     -0.614604    38A     -0.604344    39A     -0.601730
      40A     -0.594400    41A     -0.582348    42A     -0.581468
      43A     -0.554056    44A     -0.544819    45A     -0.532252
      46A     -0.518583    47A     -0.512334    48A     -0.504949
      49A     -0.496675    50A     -0.486361    51A     -0.453105
      52A     -0.410570    53A     -0.350458    54A     -0.345834
      55A     -0.333929    56A     -0.301344

  @DF-RHF Final Energy:  -667.26637225440959

   => Energetics <=

    Nuclear Repulsion Energy =            992.7354380774107767
    One-Electron Energy =               -2876.6158371143933437
    Two-Electron Energy =                1216.6140267825728642
    Total Energy =                       -667.2663722544095890
  Basis Set: (AUG-CC-PVTZ AUX)
    Blend: AUG-CC-PVTZ-RI
    Molecular point group: c1

    Geometry (in Angstrom), charge = 0, multiplicity = 1:

       Center              X                  Y                   Z               Mass
    ------------   -----------------  -----------------  -----------------  -----------------
         O           -0.520778354013     2.231293708278    -0.294582691443    15.994914619570
         N           -2.983902354013     1.756951708278     0.829887308557    14.003074004430
         C            1.124861045987     0.473155008278    -0.104824391443    12.000000000000
         C           -1.503925354013     0.061510708278    -0.137810691443    12.000000000000
         C           -0.358769354013     1.004239708278    -0.179601691443    12.000000000000
         C            3.708367645987    -0.377904291722     0.173424308557    12.000000000000
         C           -2.783755354013     0.490598708278     0.301472308557    12.000000000000
         C            1.350269645987    -0.633929291722     0.726218308557    12.000000000000
         C            2.056402645987     1.154263708278    -0.744210691443    12.000000000000
         C            2.677957645987    -1.041246291722     0.851875308557    12.000000000000
         C            3.374484645987     0.723517708278    -0.628457691443    12.000000000000
         C           -1.350114354013    -1.242976291722    -0.644207691443    12.000000000000
         C           -3.832250354013    -0.447167291722     0.313002308557    12.000000000000
         C           -2.410007354013    -2.141291291722    -0.666113691443    12.000000000000
         C            5.132897645987    -0.856677291722     0.271440308557    12.000000000000
         C           -3.656750354013    -1.734027291722    -0.180610691443    12.000000000000
         H            0.567428645987    -1.150242291722     1.276066308557     1.007825032230
         H            1.802754645987     2.025916708278    -1.342277691443     1.007825032230
         H            2.919240645987    -1.884740291722     1.496935308557     1.007825032230
         H            4.162576645987     1.258284708278    -1.156552691443     1.007825032230
         H           -0.380546354013    -1.542933291722    -1.032140691443     1.007825032230
         H           -4.809745354013    -0.134185291722     0.677136308557     1.007825032230
         H           -2.274081354013    -3.139910291722    -1.072061691443     1.007825032230
         H            5.834940645987    -0.022133291722     0.188032308557     1.007825032230
         H            5.314064645987    -1.360417291722     1.225084308557     1.007825032230
         H            5.365817645987    -1.567127291722    -0.529476691443     1.007825032230
         H           -4.496031354013    -2.426139291722    -0.177234691443     1.007825032230
         H           -2.355560354013     2.459398708278     0.453618308557     1.007825032230
         H           -3.953501354013     2.049880708278     0.857807308557     1.007825032230

  Basis Set: AUG-CC-PVTZ
    Blend: AUG-CC-PVTZ
  Basis Set: (AUG-CC-PVTZ AUX)
    Blend: AUG-CC-PVTZ-JKFIT
	 Reference Energy          =    -667.2663722544095890 [Eh]
	 Singles Energy            =      -0.0000000000000000 [Eh]
	 Same-Spin Energy          =      -0.7351776943726632 [Eh]
	 Opposite-Spin Energy      =      -2.2651710227848572 [Eh]
	 Correlation Energy        =      -3.0003487171575203 [Eh]
	 Total Energy              =    -670.2667209715671106 [Eh]

	 ================> DF-SCS-MP2 Energies <==================
	-----------------------------------------------------------
	 SCS Same-Spin Scale       =       0.3333333333333333 [-]
	 SCS Opposite-Spin Scale   =       1.2000000000000000 [-]
	 SCS Same-Spin Energy      =      -0.2450592314575544 [Eh]
	 SCS Opposite-Spin Energy  =      -2.7182052273418287 [Eh]
	 SCS Correlation Energy    =      -2.9632644587993830 [Eh]
	 SCS Total Energy          =    -670.2296367132089472 [Eh]
	-----------------------------------------------------------

  Dipole Moment: [D]
     X:     0.0938      Y:    -1.7505      Z:    -0.1255     Total:     1.7575

*** Psi4 exiting successfully. Buy a developer a beer!
