                               Psi4 1.4a3.dev225

  ==> Input File <==

--------------------------------------------------------------------------
#psi4
#
memory 32 gb

molecule  {
0 1
  O       -0.5498120     2.2556960    -0.2996080
  N       -3.0129360     1.7813540     0.8248620
  C        1.0008190     0.4908720    -0.0872200
  C       -1.5329590     0.0859130    -0.1428360
  C       -0.3878030     1.0286420    -0.1846270
  C        3.6793340    -0.3535020     0.1683990
  C       -2.8127890     0.5150010     0.2964470
  C        1.3212360    -0.6095270     0.7211930
  C        2.0273690     1.1786660    -0.7492360
  C        2.5576393    -0.9174366     0.7895608
  C        3.3454510     0.7479200    -0.6334830
  C       -1.3791480    -1.2185740    -0.6492330
  C       -3.8612840    -0.4227650     0.3079770
  C       -2.4390410    -2.1168890    -0.6711390
  C        5.1038640    -0.8322750     0.2664150
  C       -3.6857840    -1.7096250    -0.1856360
  H        0.5383950    -1.1258400     1.2710410
  H        1.7737210     2.0503190    -1.3473030
  H        2.8902070    -1.8603380     1.4919100
  H        4.1335430     1.2826870    -1.1615780
  H       -0.4095800    -1.5185310    -1.0371660
  H       -4.8387790    -0.1097830     0.6721110
  H       -2.3031150    -3.1155080    -1.0770870
  H        5.8059070     0.0022690     0.1830070
  H        5.2850310    -1.3360150     1.2200590
  H        5.3367840    -1.5427250    -0.5345020
  H       -4.5250650    -2.4017370    -0.1822600
  H       -2.3845940     2.4838010     0.4485930
  H       -3.9825350     2.0742830     0.8527820
units angstrom
no_reorient  #important for SAPT in psi4, default
symmetry c1  #important for SAPT in psi4, default
}

set PROPERTIES_ORIGIN ["COM"]
properties('MP2/aug-cc-pvtz', properties = ['dipole'])
--------------------------------------------------------------------------

    Molecular point group: c1
  Charge       = 0
  Multiplicity = 1
  Basis Set: AUG-CC-PVTZ
    Blend: AUG-CC-PVTZ
  Basis Set: (AUG-CC-PVTZ AUX)
    Blend: AUG-CC-PVTZ-JKFIT

    Orbital Energies [Eh]
    ---------------------

    Doubly Occupied:

       1A    -20.537489     2A    -15.560065     3A    -11.337446
       4A    -11.297003     5A    -11.258565     6A    -11.252855
       7A    -11.252649     8A    -11.244749     9A    -11.242991
      10A    -11.239223    11A    -11.238047    12A    -11.237987
      13A    -11.237942    14A    -11.234060    15A    -11.232156
      16A    -11.228603    17A     -1.370485    18A     -1.226626
      19A     -1.178987    20A     -1.137524    21A     -1.070487
      22A     -1.035989    23A     -1.031916    24A     -0.996812
      25A     -0.958644    26A     -0.879287    27A     -0.840839
      28A     -0.832334    29A     -0.812041    30A     -0.764360
      31A     -0.712584    32A     -0.693978    33A     -0.686150
      34A     -0.669922    35A     -0.646399    36A     -0.633027
      37A     -0.614345    38A     -0.604095    39A     -0.598985
      40A     -0.587424    41A     -0.584423    42A     -0.577996
      43A     -0.554058    44A     -0.549055    45A     -0.533117
      46A     -0.527246    47A     -0.518478    48A     -0.508486
      49A     -0.488432    50A     -0.462945    51A     -0.452387
      52A     -0.418060    53A     -0.358383    54A     -0.348276
      55A     -0.330386    56A     -0.300480

  @DF-RHF Final Energy:  -667.24779663147194

   => Energetics <=

    Nuclear Repulsion Energy =            995.6769481827068375
    One-Electron Energy =               -2882.3949341758270748
    Two-Electron Energy =                1219.4701893616484085
    Total Energy =                       -667.2477966314718287
  Basis Set: (AUG-CC-PVTZ AUX)
    Blend: AUG-CC-PVTZ-RI
    Molecular point group: c1

    Geometry (in Angstrom), charge = 0, multiplicity = 1:

       Center              X                  Y                   Z               Mass
    ------------   -----------------  -----------------  -----------------  -----------------
         O           -0.510188490307     2.226022904359    -0.292612466131    15.994914619570
         N           -2.973312490307     1.751680904359     0.831857533869    14.003074004430
         C            1.040442509693     0.461198904359    -0.080224466131    12.000000000000
         C           -1.493335490307     0.056239904359    -0.135840466131    12.000000000000
         C           -0.348179490307     0.998968904359    -0.177631466131    12.000000000000
         C            3.718957509693    -0.383175095641     0.175394533869    12.000000000000
         C           -2.773165490307     0.485327904359     0.303442533869    12.000000000000
         C            1.360859509693    -0.639200095641     0.728188533869    12.000000000000
         C            2.066992509693     1.148992904359    -0.742240466131    12.000000000000
         C            2.597262809693    -0.947109695641     0.796556333869    12.000000000000
         C            3.385074509693     0.718246904359    -0.626487466131    12.000000000000
         C           -1.339524490307    -1.248247095641    -0.642237466131    12.000000000000
         C           -3.821660490307    -0.452438095641     0.314972533869    12.000000000000
         C           -2.399417490307    -2.146562095641    -0.664143466131    12.000000000000
         C            5.143487509693    -0.861948095641     0.273410533869    12.000000000000
         C           -3.646160490307    -1.739298095641    -0.178640466131    12.000000000000
         H            0.578018509693    -1.155513095641     1.278036533869     1.007825032230
         H            1.813344509693     2.020645904359    -1.340307466131     1.007825032230
         H            2.929830509693    -1.890011095641     1.498905533869     1.007825032230
         H            4.173166509693     1.253013904359    -1.154582466131     1.007825032230
         H           -0.369956490307    -1.548204095641    -1.030170466131     1.007825032230
         H           -4.799155490307    -0.139456095641     0.679106533869     1.007825032230
         H           -2.263491490307    -3.145181095641    -1.070091466131     1.007825032230
         H            5.845530509693    -0.027404095641     0.190002533869     1.007825032230
         H            5.324654509693    -1.365688095641     1.227054533869     1.007825032230
         H            5.376407509693    -1.572398095641    -0.527506466131     1.007825032230
         H           -4.485441490307    -2.431410095641    -0.175264466131     1.007825032230
         H           -2.344970490307     2.454127904359     0.455588533869     1.007825032230
         H           -3.942911490307     2.044609904359     0.859777533869     1.007825032230

  Basis Set: AUG-CC-PVTZ
    Blend: AUG-CC-PVTZ
  Basis Set: (AUG-CC-PVTZ AUX)
    Blend: AUG-CC-PVTZ-JKFIT
	 Reference Energy          =    -667.2477966314719424 [Eh]
	 Singles Energy            =      -0.0000000000000000 [Eh]
	 Same-Spin Energy          =      -0.7362889437318816 [Eh]
	 Opposite-Spin Energy      =      -2.2667693709768231 [Eh]
	 Correlation Energy        =      -3.0030583147087047 [Eh]
	 Total Energy              =    -670.2508549461806524 [Eh]

	 ================> DF-SCS-MP2 Energies <==================
	-----------------------------------------------------------
	 SCS Same-Spin Scale       =       0.3333333333333333 [-]
	 SCS Opposite-Spin Scale   =       1.2000000000000000 [-]
	 SCS Same-Spin Energy      =      -0.2454296479106272 [Eh]
	 SCS Opposite-Spin Energy  =      -2.7201232451721875 [Eh]
	 SCS Correlation Energy    =      -2.9655528930828146 [Eh]
	 SCS Total Energy          =    -670.2133495245547010 [Eh]
	-----------------------------------------------------------

  Dipole Moment: [D]
     X:     0.3858      Y:    -1.7194      Z:    -0.1955     Total:     1.7730

*** Psi4 exiting successfully. Buy a developer a beer!
