                               Psi4 1.4a3.dev225

  ==> Input File <==

--------------------------------------------------------------------------
#psi4
#
memory 32 gb

molecule  {
0 1
  O       -0.5498120     2.2556960    -0.2996080
  N       -3.0129360     1.7813540     0.8248620
  C        1.0008190     0.4908720    -0.0872200
  C       -1.5329590     0.0859130    -0.1428360
  C       -0.3878030     1.0286420    -0.1846270
  C        3.6793340    -0.3535020     0.1683990
  C       -2.8127890     0.5150010     0.2964470
  C        1.3212360    -0.6095270     0.7211930
  C        2.0273690     1.1786660    -0.7492360
  C        2.6489240    -1.0168440     0.8468500
  C        3.3454510     0.7479200    -0.6334830
  C       -1.4389938    -1.1541995    -0.6082309
  C       -3.8612840    -0.4227650     0.3079770
  C       -2.4390410    -2.1168890    -0.6711390
  C        5.1038640    -0.8322750     0.2664150
  C       -3.6857840    -1.7096250    -0.1856360
  H        0.5383950    -1.1258400     1.2710410
  H        1.7737210     2.0503190    -1.3473030
  H        2.8902070    -1.8603380     1.4919100
  H        4.1335430     1.2826870    -1.1615780
  H       -0.4095800    -1.5185310    -1.0371660
  H       -4.8387790    -0.1097830     0.6721110
  H       -2.3031150    -3.1155080    -1.0770870
  H        5.8059070     0.0022690     0.1830070
  H        5.2850310    -1.3360150     1.2200590
  H        5.3367840    -1.5427250    -0.5345020
  H       -4.5250650    -2.4017370    -0.1822600
  H       -2.3845940     2.4838010     0.4485930
  H       -3.9825350     2.0742830     0.8527820
units angstrom
no_reorient  #important for SAPT in psi4, default
symmetry c1  #important for SAPT in psi4, default
}

set PROPERTIES_ORIGIN ["COM"]
properties('MP2/aug-cc-pvtz', properties = ['dipole'])
--------------------------------------------------------------------------

    Molecular point group: c1
  Charge       = 0
  Multiplicity = 1
  Basis Set: AUG-CC-PVTZ
    Blend: AUG-CC-PVTZ
  Basis Set: (AUG-CC-PVTZ AUX)
    Blend: AUG-CC-PVTZ-JKFIT

    Orbital Energies [Eh]
    ---------------------

    Doubly Occupied:

       1A    -20.541645     2A    -15.560197     3A    -11.341874
       4A    -11.296486     5A    -11.257749     6A    -11.251190
       7A    -11.250638     8A    -11.250209     9A    -11.246943
      10A    -11.244282    11A    -11.239321    12A    -11.238077
      13A    -11.233505    14A    -11.233455    15A    -11.227752
      16A    -11.225870    17A     -1.374227    18A     -1.228288
      19A     -1.166002    20A     -1.144907    21A     -1.071021
      22A     -1.040733    23A     -1.021508    24A     -0.992971
      25A     -0.955955    26A     -0.876337    27A     -0.838706
      28A     -0.832693    29A     -0.817291    30A     -0.770029
      31A     -0.712852    32A     -0.690410    33A     -0.687122
      34A     -0.661708    35A     -0.645811    36A     -0.638705
      37A     -0.614281    38A     -0.603840    39A     -0.593665
      40A     -0.589391    41A     -0.587677    42A     -0.583107
      43A     -0.557559    44A     -0.546084    45A     -0.537209
      46A     -0.519923    47A     -0.510257    48A     -0.495442
      49A     -0.493447    50A     -0.481160    51A     -0.454682
      52A     -0.420972    53A     -0.357338    54A     -0.343960
      55A     -0.334123    56A     -0.297695

  @DF-RHF Final Energy:  -667.26547667962097

   => Energetics <=

    Nuclear Repulsion Energy =            994.4002599913300173
    One-Electron Energy =               -2879.8749154147667468
    Two-Electron Energy =                1218.2091787438155279
    Total Energy =                       -667.2654766796210879
  Basis Set: (AUG-CC-PVTZ AUX)
    Blend: AUG-CC-PVTZ-RI
    Molecular point group: c1

    Geometry (in Angstrom), charge = 0, multiplicity = 1:

       Center              X                  Y                   Z               Mass
    ------------   -----------------  -----------------  -----------------  -----------------
         O           -0.511975640052     2.228014355660    -0.298199852193    15.994914619570
         N           -2.975099640052     1.753672355660     0.826270147807    14.003074004430
         C            1.038655359948     0.463190355660    -0.085811852193    12.000000000000
         C           -1.495122640052     0.058231355660    -0.141427852193    12.000000000000
         C           -0.349966640052     1.000960355660    -0.183218852193    12.000000000000
         C            3.717170359948    -0.381183644340     0.169807147807    12.000000000000
         C           -2.774952640052     0.487319355660     0.297855147807    12.000000000000
         C            1.359072359948    -0.637208644340     0.722601147807    12.000000000000
         C            2.065205359948     1.150984355660    -0.747827852193    12.000000000000
         C            2.686760359948    -1.044525644340     0.848258147807    12.000000000000
         C            3.383287359948     0.720238355660    -0.632074852193    12.000000000000
         C           -1.401157440052    -1.181881144340    -0.606822752193    12.000000000000
         C           -3.823447640052    -0.450446644340     0.309385147807    12.000000000000
         C           -2.401204640052    -2.144570644340    -0.669730852193    12.000000000000
         C            5.141700359948    -0.859956644340     0.267823147807    12.000000000000
         C           -3.647947640052    -1.737306644340    -0.184227852193    12.000000000000
         H            0.576231359948    -1.153521644340     1.272449147807     1.007825032230
         H            1.811557359948     2.022637355660    -1.345894852193     1.007825032230
         H            2.928043359948    -1.888019644340     1.493318147807     1.007825032230
         H            4.171379359948     1.255005355660    -1.160169852193     1.007825032230
         H           -0.371743640052    -1.546212644340    -1.035757852193     1.007825032230
         H           -4.800942640052    -0.137464644340     0.673519147807     1.007825032230
         H           -2.265278640052    -3.143189644340    -1.075678852193     1.007825032230
         H            5.843743359948    -0.025412644340     0.184415147807     1.007825032230
         H            5.322867359948    -1.363696644340     1.221467147807     1.007825032230
         H            5.374620359948    -1.570406644340    -0.533093852193     1.007825032230
         H           -4.487228640052    -2.429418644340    -0.180851852193     1.007825032230
         H           -2.346757640052     2.456119355660     0.450001147807     1.007825032230
         H           -3.944698640052     2.046601355660     0.854190147807     1.007825032230

  Basis Set: AUG-CC-PVTZ
    Blend: AUG-CC-PVTZ
  Basis Set: (AUG-CC-PVTZ AUX)
    Blend: AUG-CC-PVTZ-JKFIT
	 Reference Energy          =    -667.2654766796209742 [Eh]
	 Singles Energy            =      -0.0000000000000000 [Eh]
	 Same-Spin Energy          =      -0.7356154550978704 [Eh]
	 Opposite-Spin Energy      =      -2.2657054289668221 [Eh]
	 Correlation Energy        =      -3.0013208840646923 [Eh]
	 Total Energy              =    -670.2667975636857136 [Eh]

	 ================> DF-SCS-MP2 Energies <==================
	-----------------------------------------------------------
	 SCS Same-Spin Scale       =       0.3333333333333333 [-]
	 SCS Opposite-Spin Scale   =       1.2000000000000000 [-]
	 SCS Same-Spin Energy      =      -0.2452051516992901 [Eh]
	 SCS Opposite-Spin Energy  =      -2.7188465147601866 [Eh]
	 SCS Correlation Energy    =      -2.9640516664594765 [Eh]
	 SCS Total Energy          =    -670.2295283460804285 [Eh]
	-----------------------------------------------------------

  Dipole Moment: [D]
     X:     0.4526      Y:    -1.7422      Z:    -0.1016     Total:     1.8029

*** Psi4 exiting successfully. Buy a developer a beer!
