                               Psi4 1.4a3.dev225

  ==> Input File <==

--------------------------------------------------------------------------
#psi4
#
memory 32 gb

molecule  {
0 1
  O       -0.5498120     2.2556960    -0.2996080
  N       -3.0129360     1.7813540     0.8248620
  C        1.0008190     0.4908720    -0.0872200
  C       -1.5329590     0.0859130    -0.1428360
  C       -0.3878030     1.0286420    -0.1846270
  C        3.6793340    -0.3535020     0.1683990
  C       -2.8127890     0.5150010     0.2964470
  C        1.3212360    -0.6095270     0.7211930
  C        2.0273690     1.1786660    -0.7492360
  C        2.6489240    -1.0168440     0.8468500
  C        3.3454510     0.7479200    -0.6334830
  C       -1.3791480    -1.2185740    -0.6492330
  C       -3.8612840    -0.4227650     0.3079770
  C       -2.4390410    -2.1168890    -0.6711390
  C        5.1038640    -0.8322750     0.2664150
  C       -3.8640747    -1.6513842    -0.1162066
  H        0.5383950    -1.1258400     1.2710410
  H        1.7737210     2.0503190    -1.3473030
  H        2.8902070    -1.8603380     1.4919100
  H        4.1335430     1.2826870    -1.1615780
  H       -0.4095800    -1.5185310    -1.0371660
  H       -4.8387790    -0.1097830     0.6721110
  H       -2.3031150    -3.1155080    -1.0770870
  H        5.8059070     0.0022690     0.1830070
  H        5.2850310    -1.3360150     1.2200590
  H        5.3367840    -1.5427250    -0.5345020
  H       -4.5250650    -2.4017370    -0.1822600
  H       -2.3845940     2.4838010     0.4485930
  H       -3.9825350     2.0742830     0.8527820
units angstrom
no_reorient  #important for SAPT in psi4, default
symmetry c1  #important for SAPT in psi4, default
}

set PROPERTIES_ORIGIN ["COM"]
properties('MP2/aug-cc-pvtz', properties = ['dipole'])
--------------------------------------------------------------------------

    Molecular point group: c1
  Charge       = 0
  Multiplicity = 1
  Basis Set: AUG-CC-PVTZ
    Blend: AUG-CC-PVTZ
  Basis Set: (AUG-CC-PVTZ AUX)
    Blend: AUG-CC-PVTZ-JKFIT

    Orbital Energies [Eh]
    ---------------------

    Doubly Occupied:

       1A    -20.535800     2A    -15.566811     3A    -11.336166
       4A    -11.305052     5A    -11.256060     6A    -11.255725
       7A    -11.249209     8A    -11.245248     9A    -11.244972
      10A    -11.242032    11A    -11.239393    12A    -11.237860
      13A    -11.236551    14A    -11.234578    15A    -11.232849
      16A    -11.232266    17A     -1.369119    18A     -1.231402
      19A     -1.163751    20A     -1.130109    21A     -1.070665
      22A     -1.044145    23A     -1.020027    24A     -0.984004
      25A     -0.953903    26A     -0.883037    27A     -0.836977
      28A     -0.831085    29A     -0.814187    30A     -0.765395
      31A     -0.715266    32A     -0.707341    33A     -0.689594
      34A     -0.659465    35A     -0.643261    36A     -0.635315
      37A     -0.614754    38A     -0.608424    39A     -0.598895
      40A     -0.590992    41A     -0.583276    42A     -0.582745
      43A     -0.557979    44A     -0.552188    45A     -0.541355
      46A     -0.518576    47A     -0.508673    48A     -0.492268
      49A     -0.483871    50A     -0.463672    51A     -0.445462
      52A     -0.417278    53A     -0.366955    54A     -0.342576
      55A     -0.332633    56A     -0.289228

  @DF-RHF Final Energy:  -667.23509449408061

   => Energetics <=

    Nuclear Repulsion Energy =            990.8990133106208305
    One-Electron Energy =               -2872.8873779733216907
    Two-Electron Energy =                1214.7532701686202472
    Total Energy =                       -667.2350944940806130
  Basis Set: (AUG-CC-PVTZ AUX)
    Blend: AUG-CC-PVTZ-RI
    Molecular point group: c1

    Geometry (in Angstrom), charge = 0, multiplicity = 1:

       Center              X                  Y                   Z               Mass
    ------------   -----------------  -----------------  -----------------  -----------------
         O           -0.505242619088     2.228363026904    -0.299815807011    15.994914619570
         N           -2.968366619088     1.754021026904     0.824654192989    14.003074004430
         C            1.045388380912     0.463539026904    -0.087427807011    12.000000000000
         C           -1.488389619088     0.058580026904    -0.143043807011    12.000000000000
         C           -0.343233619088     1.001309026904    -0.184834807011    12.000000000000
         C            3.723903380912    -0.380834973096     0.168191192989    12.000000000000
         C           -2.768219619088     0.487668026904     0.296239192989    12.000000000000
         C            1.365805380912    -0.636859973096     0.720985192989    12.000000000000
         C            2.071938380912     1.151333026904    -0.749443807011    12.000000000000
         C            2.693493380912    -1.044176973096     0.846642192989    12.000000000000
         C            3.390020380912     0.720587026904    -0.633690807011    12.000000000000
         C           -1.334578619088    -1.245906973096    -0.649440807011    12.000000000000
         C           -3.816714619088    -0.450097973096     0.307769192989    12.000000000000
         C           -2.394471619088    -2.144221973096    -0.671346807011    12.000000000000
         C            5.148433380912    -0.859607973096     0.266207192989    12.000000000000
         C           -3.819505319088    -1.678717173096    -0.116414407011    12.000000000000
         H            0.582964380912    -1.153172973096     1.270833192989     1.007825032230
         H            1.818290380912     2.022986026904    -1.347510807011     1.007825032230
         H            2.934776380912    -1.887670973096     1.491702192989     1.007825032230
         H            4.178112380912     1.255354026904    -1.161785807011     1.007825032230
         H           -0.365010619088    -1.545863973096    -1.037373807011     1.007825032230
         H           -4.794209619088    -0.137115973096     0.671903192989     1.007825032230
         H           -2.258545619088    -3.142840973096    -1.077294807011     1.007825032230
         H            5.850476380912    -0.025063973096     0.182799192989     1.007825032230
         H            5.329600380912    -1.363347973096     1.219851192989     1.007825032230
         H            5.381353380912    -1.570057973096    -0.534709807011     1.007825032230
         H           -4.480495619088    -2.429069973096    -0.182467807011     1.007825032230
         H           -2.340024619088     2.456468026904     0.448385192989     1.007825032230
         H           -3.937965619088     2.046950026904     0.852574192989     1.007825032230

  Basis Set: AUG-CC-PVTZ
    Blend: AUG-CC-PVTZ
  Basis Set: (AUG-CC-PVTZ AUX)
    Blend: AUG-CC-PVTZ-JKFIT
	 Reference Energy          =    -667.2350944940806130 [Eh]
	 Singles Energy            =      -0.0000000000000000 [Eh]
	 Same-Spin Energy          =      -0.7350452078624998 [Eh]
	 Opposite-Spin Energy      =      -2.2681603279694298 [Eh]
	 Correlation Energy        =      -3.0032055358319294 [Eh]
	 Total Energy              =    -670.2383000299125797 [Eh]

	 ================> DF-SCS-MP2 Energies <==================
	-----------------------------------------------------------
	 SCS Same-Spin Scale       =       0.3333333333333333 [-]
	 SCS Opposite-Spin Scale   =       1.2000000000000000 [-]
	 SCS Same-Spin Energy      =      -0.2450150692874999 [Eh]
	 SCS Opposite-Spin Energy  =      -2.7217923935633155 [Eh]
	 SCS Correlation Energy    =      -2.9668074628508152 [Eh]
	 SCS Total Energy          =    -670.2019019569314651 [Eh]
	-----------------------------------------------------------

  Dipole Moment: [D]
     X:     0.1302      Y:    -1.7759      Z:    -0.0340     Total:     1.7809

*** Psi4 exiting successfully. Buy a developer a beer!
