                               Psi4 1.4a3.dev225

  ==> Input File <==

--------------------------------------------------------------------------
#psi4
#
memory 32 gb

molecule  {
0 1
  O       -0.5498120     2.2556960    -0.2996080
  N       -2.9672040     1.7924021     0.8134901
  C        1.0008190     0.4908720    -0.0872200
  C       -1.5329590     0.0859130    -0.1428360
  C       -0.3878030     1.0286420    -0.1846270
  C        3.6793340    -0.3535020     0.1683990
  C       -2.8127890     0.5150010     0.2964470
  C        1.3212360    -0.6095270     0.7211930
  C        2.0273690     1.1786660    -0.7492360
  C        2.6489240    -1.0168440     0.8468500
  C        3.3454510     0.7479200    -0.6334830
  C       -1.3791480    -1.2185740    -0.6492330
  C       -3.8612840    -0.4227650     0.3079770
  C       -2.4390410    -2.1168890    -0.6711390
  C        5.1038640    -0.8322750     0.2664150
  C       -3.6857840    -1.7096250    -0.1856360
  H        0.5383950    -1.1258400     1.2710410
  H        1.7737210     2.0503190    -1.3473030
  H        2.8902070    -1.8603380     1.4919100
  H        4.1335430     1.2826870    -1.1615780
  H       -0.4095800    -1.5185310    -1.0371660
  H       -4.8387790    -0.1097830     0.6721110
  H       -2.3031150    -3.1155080    -1.0770870
  H        5.8059070     0.0022690     0.1830070
  H        5.2850310    -1.3360150     1.2200590
  H        5.3367840    -1.5427250    -0.5345020
  H       -4.5250650    -2.4017370    -0.1822600
  H       -2.3845940     2.4838010     0.4485930
  H       -3.9825350     2.0742830     0.8527820
units angstrom
no_reorient  #important for SAPT in psi4, default
symmetry c1  #important for SAPT in psi4, default
}

set PROPERTIES_ORIGIN ["COM"]
properties('MP2/aug-cc-pvtz', properties = ['dipole'])
--------------------------------------------------------------------------

    Molecular point group: c1
  Charge       = 0
  Multiplicity = 1
  Basis Set: AUG-CC-PVTZ
    Blend: AUG-CC-PVTZ
  Basis Set: (AUG-CC-PVTZ AUX)
    Blend: AUG-CC-PVTZ-JKFIT

    Orbital Energies [Eh]
    ---------------------

    Doubly Occupied:

       1A    -20.537357     2A    -15.560802     3A    -11.337918
       4A    -11.297125     5A    -11.257115     6A    -11.253417
       7A    -11.252075     8A    -11.250346     9A    -11.246074
      10A    -11.243326    11A    -11.238911    12A    -11.238293
      13A    -11.237612    14A    -11.233205    15A    -11.233082
      16A    -11.228507    17A     -1.370656    18A     -1.226855
      19A     -1.164989    20A     -1.137345    21A     -1.069424
      22A     -1.034484    23A     -1.020407    24A     -0.997301
      25A     -0.954314    26A     -0.877452    27A     -0.838539
      28A     -0.835515    29A     -0.813949    30A     -0.767110
      31A     -0.711661    32A     -0.695048    33A     -0.683803
      34A     -0.661403    35A     -0.644633    36A     -0.637141
      37A     -0.610629    38A     -0.607059    39A     -0.599032
      40A     -0.592370    41A     -0.584298    42A     -0.583251
      43A     -0.555951    44A     -0.544791    45A     -0.532576
      46A     -0.517863    47A     -0.512670    48A     -0.504024
      49A     -0.493279    50A     -0.481617    51A     -0.452711
      52A     -0.418890    53A     -0.349781    54A     -0.342891
      55A     -0.333716    56A     -0.300836

  @DF-RHF Final Energy:  -667.27301821977528

   => Energetics <=

    Nuclear Repulsion Energy =            993.3821468735153530
    One-Electron Energy =               -2877.8994694505008738
    Two-Electron Energy =                1217.2443043572100123
    Total Energy =                       -667.2730182197753948
  Basis Set: (AUG-CC-PVTZ AUX)
    Blend: AUG-CC-PVTZ-RI
    Molecular point group: c1

    Geometry (in Angstrom), charge = 0, multiplicity = 1:

       Center              X                  Y                   Z               Mass
    ------------   -----------------  -----------------  -----------------  -----------------
         O           -0.518411168335     2.230940871410    -0.295114737842    15.994914619570
         N           -2.935803168335     1.767646971410     0.817983362158    14.003074004430
         C            1.032219831665     0.466116871410    -0.082726737842    12.000000000000
         C           -1.501558168335     0.061157871410    -0.138342737842    12.000000000000
         C           -0.356402168335     1.003886871410    -0.180133737842    12.000000000000
         C            3.710734831665    -0.378257128590     0.172892262158    12.000000000000
         C           -2.781388168335     0.490245871410     0.300940262158    12.000000000000
         C            1.352636831665    -0.634282128590     0.725686262158    12.000000000000
         C            2.058769831665     1.153910871410    -0.744742737842    12.000000000000
         C            2.680324831665    -1.041599128590     0.851343262158    12.000000000000
         C            3.376851831665     0.723164871410    -0.628989737842    12.000000000000
         C           -1.347747168335    -1.243329128590    -0.644739737842    12.000000000000
         C           -3.829883168335    -0.447520128590     0.312470262158    12.000000000000
         C           -2.407640168335    -2.141644128590    -0.666645737842    12.000000000000
         C            5.135264831665    -0.857030128590     0.270908262158    12.000000000000
         C           -3.654383168335    -1.734380128590    -0.181142737842    12.000000000000
         H            0.569795831665    -1.150595128590     1.275534262158     1.007825032230
         H            1.805121831665     2.025563871410    -1.342809737842     1.007825032230
         H            2.921607831665    -1.885093128590     1.496403262158     1.007825032230
         H            4.164943831665     1.257931871410    -1.157084737842     1.007825032230
         H           -0.378179168335    -1.543286128590    -1.032672737842     1.007825032230
         H           -4.807378168335    -0.134538128590     0.676604262158     1.007825032230
         H           -2.271714168335    -3.140263128590    -1.072593737842     1.007825032230
         H            5.837307831665    -0.022486128590     0.187500262158     1.007825032230
         H            5.316431831665    -1.360770128590     1.224552262158     1.007825032230
         H            5.368184831665    -1.567480128590    -0.530008737842     1.007825032230
         H           -4.493664168335    -2.426492128590    -0.177766737842     1.007825032230
         H           -2.353193168335     2.459045871410     0.453086262158     1.007825032230
         H           -3.951134168335     2.049527871410     0.857275262158     1.007825032230

  Basis Set: AUG-CC-PVTZ
    Blend: AUG-CC-PVTZ
  Basis Set: (AUG-CC-PVTZ AUX)
    Blend: AUG-CC-PVTZ-JKFIT
	 Reference Energy          =    -667.2730182197752811 [Eh]
	 Singles Energy            =      -0.0000000000000000 [Eh]
	 Same-Spin Energy          =      -0.7355851582923343 [Eh]
	 Opposite-Spin Energy      =      -2.2657585801994040 [Eh]
	 Correlation Energy        =      -3.0013437384917383 [Eh]
	 Total Energy              =    -670.2743619582670362 [Eh]

	 ================> DF-SCS-MP2 Energies <==================
	-----------------------------------------------------------
	 SCS Same-Spin Scale       =       0.3333333333333333 [-]
	 SCS Opposite-Spin Scale   =       1.2000000000000000 [-]
	 SCS Same-Spin Energy      =      -0.2451950527641114 [Eh]
	 SCS Opposite-Spin Energy  =      -2.7189102962392848 [Eh]
	 SCS Correlation Energy    =      -2.9641053490033964 [Eh]
	 SCS Total Energy          =    -670.2371235687786566 [Eh]
	-----------------------------------------------------------

  Dipole Moment: [D]
     X:     0.2949      Y:    -1.8314      Z:    -0.0957     Total:     1.8575

*** Psi4 exiting successfully. Buy a developer a beer!
