                               Psi4 1.4a3.dev225

  ==> Input File <==

--------------------------------------------------------------------------
#psi4
#
memory 32 gb

molecule  {
0 1
  O       -0.5498120     2.2556960    -0.2996080
  N       -3.0129360     1.7813540     0.8248620
  C        1.0008190     0.4908720    -0.0872200
  C       -1.5329590     0.0859130    -0.1428360
  C       -0.3878030     1.0286420    -0.1846270
  C        3.6793340    -0.3535020     0.1683990
  C       -2.7947572     0.5089555     0.2902578
  C        1.3212360    -0.6095270     0.7211930
  C        2.0273690     1.1786660    -0.7492360
  C        2.6489240    -1.0168440     0.8468500
  C        3.3454510     0.7479200    -0.6334830
  C       -1.3791480    -1.2185740    -0.6492330
  C       -3.8612840    -0.4227650     0.3079770
  C       -2.4390410    -2.1168890    -0.6711390
  C        5.1038640    -0.8322750     0.2664150
  C       -3.6857840    -1.7096250    -0.1856360
  H        0.5383950    -1.1258400     1.2710410
  H        1.7737210     2.0503190    -1.3473030
  H        2.8902070    -1.8603380     1.4919100
  H        4.1335430     1.2826870    -1.1615780
  H       -0.4095800    -1.5185310    -1.0371660
  H       -4.8387790    -0.1097830     0.6721110
  H       -2.3031150    -3.1155080    -1.0770870
  H        5.8059070     0.0022690     0.1830070
  H        5.2850310    -1.3360150     1.2200590
  H        5.3367840    -1.5427250    -0.5345020
  H       -4.5250650    -2.4017370    -0.1822600
  H       -2.3845940     2.4838010     0.4485930
  H       -3.9825350     2.0742830     0.8527820
units angstrom
no_reorient  #important for SAPT in psi4, default
symmetry c1  #important for SAPT in psi4, default
}

set PROPERTIES_ORIGIN ["COM"]
properties('MP2/aug-cc-pvtz', properties = ['dipole'])
--------------------------------------------------------------------------

    Molecular point group: c1
  Charge       = 0
  Multiplicity = 1
  Basis Set: AUG-CC-PVTZ
    Blend: AUG-CC-PVTZ
  Basis Set: (AUG-CC-PVTZ AUX)
    Blend: AUG-CC-PVTZ-JKFIT

    Orbital Energies [Eh]
    ---------------------

    Doubly Occupied:

       1A    -20.538543     2A    -15.558651     3A    -11.338874
       4A    -11.296090     5A    -11.257551     6A    -11.252246
       7A    -11.252178     8A    -11.250872     9A    -11.246560
      10A    -11.243793    11A    -11.239322    12A    -11.238003
      13A    -11.237804    14A    -11.233623    15A    -11.233376
      16A    -11.228920    17A     -1.371506    18A     -1.223105
      19A     -1.165426    20A     -1.137152    21A     -1.069852
      22A     -1.035600    23A     -1.020946    24A     -0.996402
      25A     -0.955141    26A     -0.876578    27A     -0.839985
      28A     -0.837541    29A     -0.812652    30A     -0.766216
      31A     -0.713235    32A     -0.690394    33A     -0.684415
      34A     -0.660940    35A     -0.645465    36A     -0.636533
      37A     -0.616687    38A     -0.601891    39A     -0.600027
      40A     -0.592886    41A     -0.584979    42A     -0.583970
      43A     -0.555922    44A     -0.544616    45A     -0.530656
      46A     -0.517790    47A     -0.514239    48A     -0.506147
      49A     -0.493706    50A     -0.481977    51A     -0.450779
      52A     -0.419226    53A     -0.350149    54A     -0.343414
      55A     -0.334185    56A     -0.301491

  @DF-RHF Final Energy:  -667.27619787804247

   => Energetics <=

    Nuclear Repulsion Energy =            993.1095928746526624
    One-Electron Energy =               -2877.3511284197793429
    Two-Electron Energy =                1216.9653376670842135
    Total Energy =                       -667.2761978780424670
  Basis Set: (AUG-CC-PVTZ AUX)
    Blend: AUG-CC-PVTZ-RI
    Molecular point group: c1

    Geometry (in Angstrom), charge = 0, multiplicity = 1:

       Center              X                  Y                   Z               Mass
    ------------   -----------------  -----------------  -----------------  -----------------
         O           -0.516402605783     2.232017392821    -0.295517254528    15.994914619570
         N           -2.979526605783     1.757675392821     0.828952745472    14.003074004430
         C            1.034228394217     0.467193392821    -0.083129254528    12.000000000000
         C           -1.499549605783     0.062234392821    -0.138745254528    12.000000000000
         C           -0.354393605783     1.004963392821    -0.180536254528    12.000000000000
         C            3.712743394217    -0.377180607179     0.172489745472    12.000000000000
         C           -2.761347805783     0.485276892821     0.294348545472    12.000000000000
         C            1.354645394217    -0.633205607179     0.725283745472    12.000000000000
         C            2.060778394217     1.154987392821    -0.745145254528    12.000000000000
         C            2.682333394217    -1.040522607179     0.850940745472    12.000000000000
         C            3.378860394217     0.724241392821    -0.629392254528    12.000000000000
         C           -1.345738605783    -1.242252607179    -0.645142254528    12.000000000000
         C           -3.827874605783    -0.446443607179     0.312067745472    12.000000000000
         C           -2.405631605783    -2.140567607179    -0.667048254528    12.000000000000
         C            5.137273394217    -0.855953607179     0.270505745472    12.000000000000
         C           -3.652374605783    -1.733303607179    -0.181545254528    12.000000000000
         H            0.571804394217    -1.149518607179     1.275131745472     1.007825032230
         H            1.807130394217     2.026640392821    -1.343212254528     1.007825032230
         H            2.923616394217    -1.884016607179     1.496000745472     1.007825032230
         H            4.166952394217     1.259008392821    -1.157487254528     1.007825032230
         H           -0.376170605783    -1.542209607179    -1.033075254528     1.007825032230
         H           -4.805369605783    -0.133461607179     0.676201745472     1.007825032230
         H           -2.269705605783    -3.139186607179    -1.072996254528     1.007825032230
         H            5.839316394217    -0.021409607179     0.187097745472     1.007825032230
         H            5.318440394217    -1.359693607179     1.224149745472     1.007825032230
         H            5.370193394217    -1.566403607179    -0.530411254528     1.007825032230
         H           -4.491655605783    -2.425415607179    -0.178169254528     1.007825032230
         H           -2.351184605783     2.460122392821     0.452683745472     1.007825032230
         H           -3.949125605783     2.050604392821     0.856872745472     1.007825032230

  Basis Set: AUG-CC-PVTZ
    Blend: AUG-CC-PVTZ
  Basis Set: (AUG-CC-PVTZ AUX)
    Blend: AUG-CC-PVTZ-JKFIT
	 Reference Energy          =    -667.2761978780424670 [Eh]
	 Singles Energy            =      -0.0000000000000000 [Eh]
	 Same-Spin Energy          =      -0.7354262514906570 [Eh]
	 Opposite-Spin Energy      =      -2.2655596390352688 [Eh]
	 Correlation Energy        =      -3.0009858905259259 [Eh]
	 Total Energy              =    -670.2771837685684204 [Eh]

	 ================> DF-SCS-MP2 Energies <==================
	-----------------------------------------------------------
	 SCS Same-Spin Scale       =       0.3333333333333333 [-]
	 SCS Opposite-Spin Scale   =       1.2000000000000000 [-]
	 SCS Same-Spin Energy      =      -0.2451420838302190 [Eh]
	 SCS Opposite-Spin Energy  =      -2.7186715668423225 [Eh]
	 SCS Correlation Energy    =      -2.9638136506725417 [Eh]
	 SCS Total Energy          =    -670.2400115287150584 [Eh]
	-----------------------------------------------------------

  Dipole Moment: [D]
     X:     0.3803      Y:    -1.8661      Z:    -0.1304     Total:     1.9089

*** Psi4 exiting successfully. Buy a developer a beer!
