                               Psi4 1.4a3.dev225

  ==> Input File <==

--------------------------------------------------------------------------
#psi4
#
memory 32 gb

molecule  {
0 1
  O       -0.5498120     2.2556960    -0.2996080
  N       -3.0129360     1.7813540     0.8248620
  C        1.0008190     0.4908720    -0.0872200
  C       -1.5329590     0.0859130    -0.1428360
  C       -0.3878030     1.0286420    -0.1846270
  C        3.6793340    -0.3535020     0.1683990
  C       -2.8127890     0.5150010     0.2964470
  C        1.3212360    -0.6095270     0.7211930
  C        2.0273690     1.1786660    -0.7492360
  C        2.6013174    -1.0022389     0.8423443
  C        3.3454510     0.7479200    -0.6334830
  C       -1.3791480    -1.2185740    -0.6492330
  C       -3.8612840    -0.4227650     0.3079770
  C       -2.4390410    -2.1168890    -0.6711390
  C        5.1038640    -0.8322750     0.2664150
  C       -3.6857840    -1.7096250    -0.1856360
  H        0.5383950    -1.1258400     1.2710410
  H        1.7737210     2.0503190    -1.3473030
  H        2.8902070    -1.8603380     1.4919100
  H        4.1335430     1.2826870    -1.1615780
  H       -0.4095800    -1.5185310    -1.0371660
  H       -4.8387790    -0.1097830     0.6721110
  H       -2.3031150    -3.1155080    -1.0770870
  H        5.8059070     0.0022690     0.1830070
  H        5.2850310    -1.3360150     1.2200590
  H        5.3367840    -1.5427250    -0.5345020
  H       -4.5250650    -2.4017370    -0.1822600
  H       -2.3845940     2.4838010     0.4485930
  H       -3.9825350     2.0742830     0.8527820
units angstrom
no_reorient  #important for SAPT in psi4, default
symmetry c1  #important for SAPT in psi4, default
}

set PROPERTIES_ORIGIN ["COM"]
properties('MP2/aug-cc-pvtz', properties = ['dipole'])
--------------------------------------------------------------------------

    Molecular point group: c1
  Charge       = 0
  Multiplicity = 1
  Basis Set: AUG-CC-PVTZ
    Blend: AUG-CC-PVTZ
  Basis Set: (AUG-CC-PVTZ AUX)
    Blend: AUG-CC-PVTZ-JKFIT

    Orbital Energies [Eh]
    ---------------------

    Doubly Occupied:

       1A    -20.537337     2A    -15.559774     3A    -11.337847
       4A    -11.296638     5A    -11.260572     6A    -11.252506
       7A    -11.252108     8A    -11.246405     9A    -11.244084
      10A    -11.242552    11A    -11.238814    12A    -11.238457
      13A    -11.237456    14A    -11.235130    15A    -11.231768
      16A    -11.228148    17A     -1.370436    18A     -1.226307
      19A     -1.167318    20A     -1.136884    21A     -1.068041
      22A     -1.033785    23A     -1.026658    24A     -0.996380
      25A     -0.955917    26A     -0.876948    27A     -0.837744
      28A     -0.833242    29A     -0.813468    30A     -0.766150
      31A     -0.712455    32A     -0.692041    33A     -0.685933
      34A     -0.663223    35A     -0.645717    36A     -0.634222
      37A     -0.614211    38A     -0.603478    39A     -0.597961
      40A     -0.591518    41A     -0.585046    42A     -0.583853
      43A     -0.555647    44A     -0.546401    45A     -0.531960
      46A     -0.520379    47A     -0.515060    48A     -0.506192
      49A     -0.486035    50A     -0.482450    51A     -0.452068
      52A     -0.418693    53A     -0.352069    54A     -0.346679
      55A     -0.329858    56A     -0.300118

  @DF-RHF Final Energy:  -667.27333647177966

   => Energetics <=

    Nuclear Repulsion Energy =            993.4921372024526818
    One-Electron Energy =               -2878.1266644201182316
    Two-Electron Energy =                1217.3611907458857786
    Total Energy =                       -667.2733364717796576
  Basis Set: (AUG-CC-PVTZ AUX)
    Blend: AUG-CC-PVTZ-RI
    Molecular point group: c1

    Geometry (in Angstrom), charge = 0, multiplicity = 1:

       Center              X                  Y                   Z               Mass
    ------------   -----------------  -----------------  -----------------  -----------------
         O           -0.512671379507     2.230843505868    -0.295612953379    15.994914619570
         N           -2.975795379507     1.756501505868     0.828857046621    14.003074004430
         C            1.037959620493     0.466019505868    -0.083224953379    12.000000000000
         C           -1.495818379507     0.061060505868    -0.138840953379    12.000000000000
         C           -0.350662379507     1.003789505868    -0.180631953379    12.000000000000
         C            3.716474620493    -0.378354494132     0.172394046621    12.000000000000
         C           -2.775648379507     0.490148505868     0.300442046621    12.000000000000
         C            1.358376620493    -0.634379494132     0.725188046621    12.000000000000
         C            2.064509620493     1.153813505868    -0.745240953379    12.000000000000
         C            2.638458020493    -1.027091394132     0.846339346621    12.000000000000
         C            3.382591620493     0.723067505868    -0.629487953379    12.000000000000
         C           -1.342007379507    -1.243426494132    -0.645237953379    12.000000000000
         C           -3.824143379507    -0.447617494132     0.311972046621    12.000000000000
         C           -2.401900379507    -2.141741494132    -0.667143953379    12.000000000000
         C            5.141004620493    -0.857127494132     0.270410046621    12.000000000000
         C           -3.648643379507    -1.734477494132    -0.181640953379    12.000000000000
         H            0.575535620493    -1.150692494132     1.275036046621     1.007825032230
         H            1.810861620493     2.025466505868    -1.343307953379     1.007825032230
         H            2.927347620493    -1.885190494132     1.495905046621     1.007825032230
         H            4.170683620493     1.257834505868    -1.157582953379     1.007825032230
         H           -0.372439379507    -1.543383494132    -1.033170953379     1.007825032230
         H           -4.801638379507    -0.134635494132     0.676106046621     1.007825032230
         H           -2.265974379507    -3.140360494132    -1.073091953379     1.007825032230
         H            5.843047620493    -0.022583494132     0.187002046621     1.007825032230
         H            5.322171620493    -1.360867494132     1.224054046621     1.007825032230
         H            5.373924620493    -1.567577494132    -0.530506953379     1.007825032230
         H           -4.487924379507    -2.426589494132    -0.178264953379     1.007825032230
         H           -2.347453379507     2.458948505868     0.452588046621     1.007825032230
         H           -3.945394379507     2.049430505868     0.856777046621     1.007825032230

  Basis Set: AUG-CC-PVTZ
    Blend: AUG-CC-PVTZ
  Basis Set: (AUG-CC-PVTZ AUX)
    Blend: AUG-CC-PVTZ-JKFIT
	 Reference Energy          =    -667.2733364717796576 [Eh]
	 Singles Energy            =      -0.0000000000000000 [Eh]
	 Same-Spin Energy          =      -0.7355791755832576 [Eh]
	 Opposite-Spin Energy      =      -2.2655381526361276 [Eh]
	 Correlation Energy        =      -3.0011173282193853 [Eh]
	 Total Energy              =    -670.2744537999990371 [Eh]

	 ================> DF-SCS-MP2 Energies <==================
	-----------------------------------------------------------
	 SCS Same-Spin Scale       =       0.3333333333333333 [-]
	 SCS Opposite-Spin Scale   =       1.2000000000000000 [-]
	 SCS Same-Spin Energy      =      -0.2451930585277525 [Eh]
	 SCS Opposite-Spin Energy  =      -2.7186457831633528 [Eh]
	 SCS Correlation Energy    =      -2.9638388416911052 [Eh]
	 SCS Total Energy          =    -670.2371753134707433 [Eh]
	-----------------------------------------------------------

  Dipole Moment: [D]
     X:     0.3971      Y:    -1.8076      Z:    -0.1173     Total:     1.8544

*** Psi4 exiting successfully. Buy a developer a beer!
