                               Psi4 1.4a3.dev225

  ==> Input File <==

--------------------------------------------------------------------------
#psi4
#
memory 32 gb

molecule  {
0 1
  O       -0.5498120     2.2556960    -0.2996080
  N       -3.0129360     1.7813540     0.8248620
  C        1.0008190     0.4908720    -0.0872200
  C       -1.5329590     0.0859130    -0.1428360
  C       -0.3878030     1.0286420    -0.1846270
  C        3.6793340    -0.3535020     0.1683990
  C       -2.8127890     0.5150010     0.2964470
  C        1.3212360    -0.6095270     0.7211930
  C        2.0273690     1.1786660    -0.7492360
  C        2.6489240    -1.0168440     0.8468500
  C        3.3454510     0.7479200    -0.6334830
  C       -1.3791480    -1.2185740    -0.6492330
  C       -3.8612840    -0.4227650     0.3079770
  C       -2.4390410    -2.1168890    -0.6711390
  C        5.1038640    -0.8322750     0.2664150
  C       -3.6857840    -1.7096250    -0.1856360
  H        0.5383950    -1.1258400     1.2710410
  H        1.8203858     1.8899570    -1.2372738
  H        2.8902070    -1.8603380     1.4919100
  H        4.1335430     1.2826870    -1.1615780
  H       -0.4095800    -1.5185310    -1.0371660
  H       -4.8387790    -0.1097830     0.6721110
  H       -2.3031150    -3.1155080    -1.0770870
  H        5.8059070     0.0022690     0.1830070
  H        5.2850310    -1.3360150     1.2200590
  H        5.3367840    -1.5427250    -0.5345020
  H       -4.5250650    -2.4017370    -0.1822600
  H       -2.3845940     2.4838010     0.4485930
  H       -3.9825350     2.0742830     0.8527820
units angstrom
no_reorient  #important for SAPT in psi4, default
symmetry c1  #important for SAPT in psi4, default
}

set PROPERTIES_ORIGIN ["COM"]
properties('MP2/aug-cc-pvtz', properties = ['dipole'])
--------------------------------------------------------------------------

    Molecular point group: c1
  Charge       = 0
  Multiplicity = 1
  Basis Set: AUG-CC-PVTZ
    Blend: AUG-CC-PVTZ
  Basis Set: (AUG-CC-PVTZ AUX)
    Blend: AUG-CC-PVTZ-JKFIT

    Orbital Energies [Eh]
    ---------------------

    Doubly Occupied:

       1A    -20.538360     2A    -15.560072     3A    -11.338598
       4A    -11.296936     5A    -11.256766     6A    -11.252754
       7A    -11.252288     8A    -11.249847     9A    -11.242882
      10A    -11.239163    11A    -11.239127    12A    -11.237414
      13A    -11.232951    14A    -11.231986    15A    -11.228322
      16A    -11.223783    17A     -1.371388    18A     -1.226609
      19A     -1.166543    20A     -1.137165    21A     -1.070399
      22A     -1.038863    23A     -1.025301    24A     -0.996592
      25A     -0.954333    26A     -0.880368    27A     -0.850179
      28A     -0.836403    29A     -0.818702    30A     -0.769445
      31A     -0.713717    32A     -0.696288    33A     -0.686464
      34A     -0.670798    35A     -0.654778    36A     -0.638722
      37A     -0.615257    38A     -0.604221    39A     -0.601634
      40A     -0.599063    41A     -0.584742    42A     -0.583716
      43A     -0.556325    44A     -0.544671    45A     -0.532440
      46A     -0.518020    47A     -0.514557    48A     -0.507063
      49A     -0.497818    50A     -0.481886    51A     -0.452325
      52A     -0.418973    53A     -0.349744    54A     -0.343065
      55A     -0.333644    56A     -0.300384

  @DF-RHF Final Energy:  -667.24211320090114

   => Energetics <=

    Nuclear Repulsion Energy =            994.0598028783610971
    One-Electron Energy =               -2879.0761276731504950
    Two-Electron Energy =                1217.7742115938883671
    Total Energy =                       -667.2421132009010307
  Basis Set: (AUG-CC-PVTZ AUX)
    Blend: AUG-CC-PVTZ-RI
    Molecular point group: c1

    Geometry (in Angstrom), charge = 0, multiplicity = 1:

       Center              X                  Y                   Z               Mass
    ------------   -----------------  -----------------  -----------------  -----------------
         O           -0.515600370464     2.232439330094    -0.296394378322    15.994914619570
         N           -2.978724370464     1.758097330094     0.828075621678    14.003074004430
         C            1.035030629536     0.467615330094    -0.084006378322    12.000000000000
         C           -1.498747370464     0.062656330094    -0.139622378322    12.000000000000
         C           -0.353591370464     1.005385330094    -0.181413378322    12.000000000000
         C            3.713545629536    -0.376758669906     0.171612621678    12.000000000000
         C           -2.778577370464     0.491744330094     0.299660621678    12.000000000000
         C            1.355447629536    -0.632783669906     0.724406621678    12.000000000000
         C            2.061580629536     1.155409330094    -0.746022378322    12.000000000000
         C            2.683135629536    -1.040100669906     0.850063621678    12.000000000000
         C            3.379662629536     0.724663330094    -0.630269378322    12.000000000000
         C           -1.344936370464    -1.241830669906    -0.646019378322    12.000000000000
         C           -3.827072370464    -0.446021669906     0.311190621678    12.000000000000
         C           -2.404829370464    -2.140145669906    -0.667925378322    12.000000000000
         C            5.138075629536    -0.855531669906     0.269628621678    12.000000000000
         C           -3.651572370464    -1.732881669906    -0.182422378322    12.000000000000
         H            0.572606629536    -1.149096669906     1.274254621678     1.007825032230
         H            1.854597429536     1.866700330094    -1.234060178322     1.007825032230
         H            2.924418629536    -1.883594669906     1.495123621678     1.007825032230
         H            4.167754629536     1.259430330094    -1.158364378322     1.007825032230
         H           -0.375368370464    -1.541787669906    -1.033952378322     1.007825032230
         H           -4.804567370464    -0.133039669906     0.675324621678     1.007825032230
         H           -2.268903370464    -3.138764669906    -1.073873378322     1.007825032230
         H            5.840118629536    -0.020987669906     0.186220621678     1.007825032230
         H            5.319242629536    -1.359271669906     1.223272621678     1.007825032230
         H            5.370995629536    -1.565981669906    -0.531288378322     1.007825032230
         H           -4.490853370464    -2.424993669906    -0.179046378322     1.007825032230
         H           -2.350382370464     2.460544330094     0.451806621678     1.007825032230
         H           -3.948323370464     2.051026330094     0.855995621678     1.007825032230

  Basis Set: AUG-CC-PVTZ
    Blend: AUG-CC-PVTZ
  Basis Set: (AUG-CC-PVTZ AUX)
    Blend: AUG-CC-PVTZ-JKFIT
	 Reference Energy          =    -667.2421132009011444 [Eh]
	 Singles Energy            =      -0.0000000000000000 [Eh]
	 Same-Spin Energy          =      -0.7351023453600580 [Eh]
	 Opposite-Spin Energy      =      -2.2646986132684570 [Eh]
	 Correlation Energy        =      -2.9998009586285148 [Eh]
	 Total Energy              =    -670.2419141595296423 [Eh]

	 ================> DF-SCS-MP2 Energies <==================
	-----------------------------------------------------------
	 SCS Same-Spin Scale       =       0.3333333333333333 [-]
	 SCS Opposite-Spin Scale   =       1.2000000000000000 [-]
	 SCS Same-Spin Energy      =      -0.2450341151200193 [Eh]
	 SCS Opposite-Spin Energy  =      -2.7176383359221483 [Eh]
	 SCS Correlation Energy    =      -2.9626724510421676 [Eh]
	 SCS Total Energy          =    -670.2047856519433253 [Eh]
	-----------------------------------------------------------

  Dipole Moment: [D]
     X:     0.3595      Y:    -1.8284      Z:    -0.1090     Total:     1.8666

*** Psi4 exiting successfully. Buy a developer a beer!
