                               Psi4 1.4a3.dev225

  ==> Input File <==

--------------------------------------------------------------------------
#psi4
#
memory 32 gb

molecule  {
0 1
  O       -0.5498120     2.2556960    -0.2996080
  N       -3.0129360     1.7813540     0.8248620
  C        1.0008190     0.4908720    -0.0872200
  C       -1.5329590     0.0859130    -0.1428360
  C       -0.3878030     1.0286420    -0.1846270
  C        3.6793340    -0.3535020     0.1683990
  C       -2.7889784     0.5175243     0.2999728
  C        1.3212360    -0.6095270     0.7211930
  C        2.0273690     1.1786660    -0.7492360
  C        2.6489240    -1.0168440     0.8468500
  C        3.3454510     0.7479200    -0.6334830
  C       -1.3791480    -1.2185740    -0.6492330
  C       -3.8612840    -0.4227650     0.3079770
  C       -2.4390410    -2.1168890    -0.6711390
  C        5.1038640    -0.8322750     0.2664150
  C       -3.6857840    -1.7096250    -0.1856360
  H        0.5383950    -1.1258400     1.2710410
  H        1.7737210     2.0503190    -1.3473030
  H        2.8902070    -1.8603380     1.4919100
  H        4.1335430     1.2826870    -1.1615780
  H       -0.4095800    -1.5185310    -1.0371660
  H       -4.8387790    -0.1097830     0.6721110
  H       -2.3031150    -3.1155080    -1.0770870
  H        5.8059070     0.0022690     0.1830070
  H        5.2850310    -1.3360150     1.2200590
  H        5.3367840    -1.5427250    -0.5345020
  H       -4.5250650    -2.4017370    -0.1822600
  H       -2.3845940     2.4838010     0.4485930
  H       -3.9825350     2.0742830     0.8527820
units angstrom
no_reorient  #important for SAPT in psi4, default
symmetry c1  #important for SAPT in psi4, default
}

set PROPERTIES_ORIGIN ["COM"]
properties('MP2/aug-cc-pvtz', properties = ['dipole'])
--------------------------------------------------------------------------

    Molecular point group: c1
  Charge       = 0
  Multiplicity = 1
  Basis Set: AUG-CC-PVTZ
    Blend: AUG-CC-PVTZ
  Basis Set: (AUG-CC-PVTZ AUX)
    Blend: AUG-CC-PVTZ-JKFIT

    Orbital Energies [Eh]
    ---------------------

    Doubly Occupied:

       1A    -20.538325     2A    -15.560159     3A    -11.338437
       4A    -11.297176     5A    -11.257400     6A    -11.251876
       7A    -11.251811     8A    -11.250691     9A    -11.246379
      10A    -11.243532    11A    -11.239177    12A    -11.237857
      13A    -11.237252    14A    -11.234123    15A    -11.233271
      16A    -11.228270    17A     -1.371413    18A     -1.226530
      19A     -1.165274    20A     -1.137118    21A     -1.069556
      22A     -1.035109    23A     -1.020758    24A     -0.995327
      25A     -0.954954    26A     -0.875846    27A     -0.839979
      28A     -0.837447    29A     -0.812633    30A     -0.765955
      31A     -0.713248    32A     -0.691767    33A     -0.685700
      34A     -0.661005    35A     -0.645778    36A     -0.636556
      37A     -0.617176    38A     -0.601199    39A     -0.599786
      40A     -0.592724    41A     -0.584871    42A     -0.583900
      43A     -0.555903    44A     -0.544676    45A     -0.530395
      46A     -0.517911    47A     -0.513665    48A     -0.506170
      49A     -0.493551    50A     -0.482028    51A     -0.451960
      52A     -0.418636    53A     -0.349931    54A     -0.343272
      55A     -0.334028    56A     -0.300082

  @DF-RHF Final Energy:  -667.27614947988548

   => Energetics <=

    Nuclear Repulsion Energy =            993.1148968975813887
    One-Electron Energy =               -2877.3629845860682508
    Two-Electron Energy =                1216.9719382086013866
    Total Energy =                       -667.2761494798855892
  Basis Set: (AUG-CC-PVTZ AUX)
    Blend: AUG-CC-PVTZ-RI
    Molecular point group: c1

    Geometry (in Angstrom), charge = 0, multiplicity = 1:

       Center              X                  Y                   Z               Mass
    ------------   -----------------  -----------------  -----------------  -----------------
         O           -0.516731102675     2.231530297893    -0.296069505395    15.994914619570
         N           -2.979855102675     1.757188297893     0.828400494605    14.003074004430
         C            1.033899897325     0.466706297893    -0.083681505395    12.000000000000
         C           -1.499878102675     0.061747297893    -0.139297505395    12.000000000000
         C           -0.354722102675     1.004476297893    -0.181088505395    12.000000000000
         C            3.712414897325    -0.377667702107     0.171937494605    12.000000000000
         C           -2.755897502675     0.493358597893     0.303511294605    12.000000000000
         C            1.354316897325    -0.633692702107     0.724731494605    12.000000000000
         C            2.060449897325     1.154500297893    -0.745697505395    12.000000000000
         C            2.682004897325    -1.041009702107     0.850388494605    12.000000000000
         C            3.378531897325     0.723754297893    -0.629944505395    12.000000000000
         C           -1.346067102675    -1.242739702107    -0.645694505395    12.000000000000
         C           -3.828203102675    -0.446930702107     0.311515494605    12.000000000000
         C           -2.405960102675    -2.141054702107    -0.667600505395    12.000000000000
         C            5.136944897325    -0.856440702107     0.269953494605    12.000000000000
         C           -3.652703102675    -1.733790702107    -0.182097505395    12.000000000000
         H            0.571475897325    -1.150005702107     1.274579494605     1.007825032230
         H            1.806801897325     2.026153297893    -1.343764505395     1.007825032230
         H            2.923287897325    -1.884503702107     1.495448494605     1.007825032230
         H            4.166623897325     1.258521297893    -1.158039505395     1.007825032230
         H           -0.376499102675    -1.542696702107    -1.033627505395     1.007825032230
         H           -4.805698102675    -0.133948702107     0.675649494605     1.007825032230
         H           -2.270034102675    -3.139673702107    -1.073548505395     1.007825032230
         H            5.838987897325    -0.021896702107     0.186545494605     1.007825032230
         H            5.318111897325    -1.360180702107     1.223597494605     1.007825032230
         H            5.369864897325    -1.566890702107    -0.530963505395     1.007825032230
         H           -4.491984102675    -2.425902702107    -0.178721505395     1.007825032230
         H           -2.351513102675     2.459635297893     0.452131494605     1.007825032230
         H           -3.949454102675     2.050117297893     0.856320494605     1.007825032230

  Basis Set: AUG-CC-PVTZ
    Blend: AUG-CC-PVTZ
  Basis Set: (AUG-CC-PVTZ AUX)
    Blend: AUG-CC-PVTZ-JKFIT
	 Reference Energy          =    -667.2761494798854756 [Eh]
	 Singles Energy            =      -0.0000000000000000 [Eh]
	 Same-Spin Energy          =      -0.7354417159641052 [Eh]
	 Opposite-Spin Energy      =      -2.2655378500407233 [Eh]
	 Correlation Energy        =      -3.0009795660048284 [Eh]
	 Total Energy              =    -670.2771290458903195 [Eh]

	 ================> DF-SCS-MP2 Energies <==================
	-----------------------------------------------------------
	 SCS Same-Spin Scale       =       0.3333333333333333 [-]
	 SCS Opposite-Spin Scale   =       1.2000000000000000 [-]
	 SCS Same-Spin Energy      =      -0.2451472386547017 [Eh]
	 SCS Opposite-Spin Energy  =      -2.7186454200488677 [Eh]
	 SCS Correlation Energy    =      -2.9637926587035692 [Eh]
	 SCS Total Energy          =    -670.2399421385890719 [Eh]
	-----------------------------------------------------------

  Dipole Moment: [D]
     X:     0.3512      Y:    -1.8012      Z:    -0.1002     Total:     1.8379

*** Psi4 exiting successfully. Buy a developer a beer!
