                               Psi4 1.3.2 release

  ==> Input File <==

--------------------------------------------------------------------------
#psi4
#
memory 32 gb

molecule  {
0 1
  O        1.0620210     0.5679390    -0.5075070
  O       -1.0537213     0.5257774     0.5330397
  C        1.7088310    -0.2054710     0.5088440
  C       -1.7086770    -0.2057720    -0.5087890
  C       -0.0000550     1.3374600    -0.0000670
  C        2.8723760    -0.9214300    -0.1416400
  C       -2.8725180    -0.9212340     0.1416940
  H        2.0537520     0.4628900     1.3122050
  H        0.9992830    -0.9151760     0.9492220
  H       -2.0532400     0.4623650    -1.3124830
  H       -0.9991440    -0.9157750    -0.9486970
  H        0.3294190     1.9615920     0.8407020
  H       -0.3295380     1.9615190    -0.8408980
  H        3.4064450    -1.5299190     0.5938180
  H        2.5134590    -1.5743390    -0.9403860
  H        3.5688290    -0.1989250    -0.5723410
  H       -3.4064460    -1.5299900    -0.5936450
  H       -2.5139360    -1.5738270     0.9408480
  H       -3.5690030    -0.1984340     0.5718480
units angstrom
no_reorient  #important for SAPT in psi4, default
symmetry c1  #important for SAPT in psi4, default
}

set PROPERTIES_ORIGIN ["COM"]
properties('MP2/aug-cc-pvtz', properties = ['dipole'])
--------------------------------------------------------------------------

    Molecular point group: c1
  Charge       = 0
  Multiplicity = 1
  Basis Set: AUG-CC-PVTZ
    Blend: AUG-CC-PVTZ
  Basis Set: (AUG-CC-PVTZ AUX)
    Blend: AUG-CC-PVTZ-JKFIT

    Orbital Energies [Eh]
    ---------------------

    Doubly Occupied:

       1A    -20.560097     2A    -20.559650     3A    -11.326605
       4A    -11.273231     5A    -11.272003     6A    -11.214277
       7A    -11.212736     8A     -1.406323     9A     -1.338370
      10A     -1.031669    11A     -1.010657    12A     -0.896146
      13A     -0.846192    14A     -0.812706    15A     -0.690078
      16A     -0.680879    17A     -0.670035    18A     -0.621606
      19A     -0.616100    20A     -0.577631    21A     -0.537352
      22A     -0.534941    23A     -0.524985    24A     -0.515426
      25A     -0.501415    26A     -0.492233    27A     -0.465204
      28A     -0.437986    29A     -0.433599

  @DF-RHF Final Energy:  -346.16339039221731

   => Energetics <=

    Nuclear Repulsion Energy =            332.3266603531674264
    One-Electron Energy =               -1130.8598376648837984
    Two-Electron Energy =                 452.3697869194990631
    Total Energy =                       -346.1633903922173090
  Basis Set: (AUG-CC-PVTZ AUX)
    Blend: AUG-CC-PVTZ-RI
    Molecular point group: c1

    Geometry (in Angstrom), charge = 0, multiplicity = 1:

       Center              X                  Y                   Z               Mass
    ------------   -----------------  -----------------  -----------------  -----------------
         O            1.060751675252     0.540264731581    -0.511437411297    15.994914619570
         O           -1.054990624748     0.498103131581     0.529109288703    15.994914619570
         C            1.707561675252    -0.233145268419     0.504913588703    12.000000000000
         C           -1.709946324748    -0.233446268419    -0.512719411297    12.000000000000
         C           -0.001324324748     1.309785731581    -0.003997411297    12.000000000000
         C            2.871106675252    -0.949104268419    -0.145570411297    12.000000000000
         C           -2.873787324748    -0.948908268419     0.137763588703    12.000000000000
         H            2.052482675252     0.435215731581     1.308274588703     1.007825032230
         H            0.998013675252    -0.942850268419     0.945291588703     1.007825032230
         H           -2.054509324748     0.434690731581    -1.316413411297     1.007825032230
         H           -1.000413324748    -0.943449268419    -0.952627411297     1.007825032230
         H            0.328149675252     1.933917731581     0.836771588703     1.007825032230
         H           -0.330807324748     1.933844731581    -0.844828411297     1.007825032230
         H            3.405175675252    -1.557593268419     0.589887588703     1.007825032230
         H            2.512189675252    -1.602013268419    -0.944316411297     1.007825032230
         H            3.567559675252    -0.226599268419    -0.576271411297     1.007825032230
         H           -3.407715324748    -1.557664268419    -0.597575411297     1.007825032230
         H           -2.515205324748    -1.601501268419     0.936917588703     1.007825032230
         H           -3.570272324748    -0.226108268419     0.567917588703     1.007825032230

  Basis Set: AUG-CC-PVTZ
    Blend: AUG-CC-PVTZ
  Basis Set: (AUG-CC-PVTZ AUX)
    Blend: AUG-CC-PVTZ-JKFIT
	 Reference Energy          =    -346.1633903922173090 [Eh]
	 Singles Energy            =      -0.0000000000000000 [Eh]
	 Same-Spin Energy          =      -0.3397108506817871 [Eh]
	 Opposite-Spin Energy      =      -1.1634075115944267 [Eh]
	 Correlation Energy        =      -1.5031183622762136 [Eh]
	 Total Energy              =    -347.6665087544935204 [Eh]

	 ================> DF-SCS-MP2 Energies <==================
	-----------------------------------------------------------
	 SCS Same-Spin Scale       =       0.3333333333333333 [-]
	 SCS Opposite-Spin Scale   =       1.2000000000000000 [-]
	 SCS Same-Spin Energy      =      -0.1132369502272624 [Eh]
	 SCS Opposite-Spin Energy  =      -1.3960890139133120 [Eh]
	 SCS Correlation Energy    =      -1.5093259641405743 [Eh]
	 SCS Total Energy          =    -347.6727163563579097 [Eh]
	-----------------------------------------------------------

  Dipole Moment: [D]
     X:     0.0516      Y:    -0.2581      Z:    -0.0574     Total:     0.2694

*** Psi4 exiting successfully. Buy a developer a beer!
