                               Psi4 1.3.2 release

  ==> Input File <==

--------------------------------------------------------------------------
#psi4
#
memory 32 gb

molecule  {
0 1
  O        1.0620210     0.5679390    -0.5075070
  O       -1.0462675     0.4827646     0.5573581
  C        1.7088310    -0.2054710     0.5088440
  C       -1.7086770    -0.2057720    -0.5087890
  C       -0.0000550     1.3374600    -0.0000670
  C        2.8723760    -0.9214300    -0.1416400
  C       -2.8725180    -0.9212340     0.1416940
  H        2.0537520     0.4628900     1.3122050
  H        0.9992830    -0.9151760     0.9492220
  H       -2.0532400     0.4623650    -1.3124830
  H       -0.9991440    -0.9157750    -0.9486970
  H        0.3294190     1.9615920     0.8407020
  H       -0.3295380     1.9615190    -0.8408980
  H        3.4064450    -1.5299190     0.5938180
  H        2.5134590    -1.5743390    -0.9403860
  H        3.5688290    -0.1989250    -0.5723410
  H       -3.4064460    -1.5299900    -0.5936450
  H       -2.5139360    -1.5738270     0.9408480
  H       -3.5690030    -0.1984340     0.5718480
units angstrom
no_reorient  #important for SAPT in psi4, default
symmetry c1  #important for SAPT in psi4, default
}

set PROPERTIES_ORIGIN ["COM"]
properties('MP2/aug-cc-pvtz', properties = ['dipole'])
--------------------------------------------------------------------------

    Molecular point group: c1
  Charge       = 0
  Multiplicity = 1
  Basis Set: AUG-CC-PVTZ
    Blend: AUG-CC-PVTZ
  Basis Set: (AUG-CC-PVTZ AUX)
    Blend: AUG-CC-PVTZ-JKFIT

    Orbital Energies [Eh]
    ---------------------

    Doubly Occupied:

       1A    -20.561194     2A    -20.559971     3A    -11.329596
       4A    -11.273108     5A    -11.270638     6A    -11.214246
       7A    -11.211105     8A     -1.403081     9A     -1.334887
      10A     -1.030448    11A     -1.008775    12A     -0.896323
      13A     -0.844648    14A     -0.813630    15A     -0.688638
      16A     -0.677706    17A     -0.667853    18A     -0.622681
      19A     -0.614223    20A     -0.577135    21A     -0.536996
      22A     -0.532881    23A     -0.524131    24A     -0.515536
      25A     -0.501510    26A     -0.489454    27A     -0.468722
      28A     -0.437399    29A     -0.432403

  @DF-RHF Final Energy:  -346.15903298179882

   => Energetics <=

    Nuclear Repulsion Energy =            332.0971978615693843
    One-Electron Energy =               -1130.4346199641393014
    Two-Electron Energy =                 452.1783891207711008
    Total Energy =                       -346.1590329817988163
  Basis Set: (AUG-CC-PVTZ AUX)
    Blend: AUG-CC-PVTZ-RI
    Molecular point group: c1

    Geometry (in Angstrom), charge = 0, multiplicity = 1:

       Center              X                  Y                   Z               Mass
    ------------   -----------------  -----------------  -----------------  -----------------
         O            1.059606223460     0.546874660588    -0.515174505779    15.994914619570
         O           -1.048682276540     0.461700260588     0.549690594221    15.994914619570
         C            1.706416223460    -0.226535339412     0.501176494221    12.000000000000
         C           -1.711091776540    -0.226836339412    -0.516456505779    12.000000000000
         C           -0.002469776540     1.316395660588    -0.007734505779    12.000000000000
         C            2.869961223460    -0.942494339412    -0.149307505779    12.000000000000
         C           -2.874932776540    -0.942298339412     0.134026494221    12.000000000000
         H            2.051337223460     0.441825660588     1.304537494221     1.007825032230
         H            0.996868223460    -0.936240339412     0.941554494221     1.007825032230
         H           -2.055654776540     0.441300660588    -1.320150505779     1.007825032230
         H           -1.001558776540    -0.936839339412    -0.956364505779     1.007825032230
         H            0.327004223460     1.940527660588     0.833034494221     1.007825032230
         H           -0.331952776540     1.940454660588    -0.848565505779     1.007825032230
         H            3.404030223460    -1.550983339412     0.586150494221     1.007825032230
         H            2.511044223460    -1.595403339412    -0.948053505779     1.007825032230
         H            3.566414223460    -0.219989339412    -0.580008505779     1.007825032230
         H           -3.408860776540    -1.551054339412    -0.601312505779     1.007825032230
         H           -2.516350776540    -1.594891339412     0.933180494221     1.007825032230
         H           -3.571417776540    -0.219498339412     0.564180494221     1.007825032230

  Basis Set: AUG-CC-PVTZ
    Blend: AUG-CC-PVTZ
  Basis Set: (AUG-CC-PVTZ AUX)
    Blend: AUG-CC-PVTZ-JKFIT
	 Reference Energy          =    -346.1590329817988163 [Eh]
	 Singles Energy            =      -0.0000000000000000 [Eh]
	 Same-Spin Energy          =      -0.3400470092770937 [Eh]
	 Opposite-Spin Energy      =      -1.1645594783007469 [Eh]
	 Correlation Energy        =      -1.5046064875778407 [Eh]
	 Total Energy              =    -347.6636394693766761 [Eh]

	 ================> DF-SCS-MP2 Energies <==================
	-----------------------------------------------------------
	 SCS Same-Spin Scale       =       0.3333333333333333 [-]
	 SCS Opposite-Spin Scale   =       1.2000000000000000 [-]
	 SCS Same-Spin Energy      =      -0.1133490030923646 [Eh]
	 SCS Opposite-Spin Energy  =      -1.3974713739608962 [Eh]
	 SCS Correlation Energy    =      -1.5108203770532607 [Eh]
	 SCS Total Energy          =    -347.6698533588520945 [Eh]
	-----------------------------------------------------------

  Dipole Moment: [D]
     X:     0.1078      Y:    -0.1343      Z:    -0.1100     Total:     0.2043

*** Psi4 exiting successfully. Buy a developer a beer!
