                               Psi4 1.3.2 release

  ==> Input File <==

--------------------------------------------------------------------------
#psi4
#
memory 32 gb

molecule  {
0 1
  O        1.0620210     0.5679390    -0.5075070
  O       -1.0619730     0.5678990     0.5074520
  C        1.7088310    -0.2054710     0.5088440
  C       -1.7086770    -0.2057720    -0.5087890
  C       -0.0000550     1.3374600    -0.0000670
  C        2.8723760    -0.9214300    -0.1416400
  C       -2.8725180    -0.9212340     0.1416940
  H        2.0537520     0.4628900     1.3122050
  H        0.9992830    -0.9151760     0.9492220
  H       -2.0532400     0.4623650    -1.3124830
  H       -0.9991440    -0.9157750    -0.9486970
  H        0.3253948     1.9772568     0.8304321
  H       -0.3295380     1.9615190    -0.8408980
  H        3.4064450    -1.5299190     0.5938180
  H        2.5134590    -1.5743390    -0.9403860
  H        3.5688290    -0.1989250    -0.5723410
  H       -3.4064460    -1.5299900    -0.5936450
  H       -2.5139360    -1.5738270     0.9408480
  H       -3.5690030    -0.1984340     0.5718480
units angstrom
no_reorient  #important for SAPT in psi4, default
symmetry c1  #important for SAPT in psi4, default
}

set PROPERTIES_ORIGIN ["COM"]
properties('MP2/aug-cc-pvtz', properties = ['dipole'])
--------------------------------------------------------------------------

    Molecular point group: c1
  Charge       = 0
  Multiplicity = 1
  Basis Set: AUG-CC-PVTZ
    Blend: AUG-CC-PVTZ
  Basis Set: (AUG-CC-PVTZ AUX)
    Blend: AUG-CC-PVTZ-JKFIT

    Orbital Energies [Eh]
    ---------------------

    Doubly Occupied:

       1A    -20.559356     2A    -20.559318     3A    -11.323715
       4A    -11.273462     5A    -11.273363     6A    -11.214362
       7A    -11.214329     8A     -1.410085     9A     -1.341599
      10A     -1.033181    11A     -1.012222    12A     -0.896557
      13A     -0.847463    14A     -0.811799    15A     -0.692181
      16A     -0.683998    17A     -0.671540    18A     -0.621264
      19A     -0.617565    20A     -0.578083    21A     -0.537983
      22A     -0.537014    23A     -0.525796    24A     -0.515367
      25A     -0.501960    26A     -0.494410    27A     -0.461553
      28A     -0.437779    29A     -0.434459

  @DF-RHF Final Energy:  -346.16581876739872

   => Energetics <=

    Nuclear Repulsion Energy =            332.5141669457159423
    One-Electron Energy =               -1131.1964498029478818
    Two-Electron Energy =                 452.5164640898332209
    Total Energy =                       -346.1658187673987186
  Basis Set: (AUG-CC-PVTZ AUX)
    Blend: AUG-CC-PVTZ-RI
    Molecular point group: c1

    Geometry (in Angstrom), charge = 0, multiplicity = 1:

       Center              X                  Y                   Z               Mass
    ------------   -----------------  -----------------  -----------------  -----------------
         O            1.062058708801     0.533640076837    -0.507405817304    15.994914619570
         O           -1.061935291199     0.533600076837     0.507553182696    15.994914619570
         C            1.708868708801    -0.239769923163     0.508945182696    12.000000000000
         C           -1.708639291199    -0.240070923163    -0.508687817304    12.000000000000
         C           -0.000017291199     1.303161076837     0.000034182696    12.000000000000
         C            2.872413708801    -0.955728923163    -0.141538817304    12.000000000000
         C           -2.872480291199    -0.955532923163     0.141795182696    12.000000000000
         H            2.053789708801     0.428591076837     1.312306182696     1.007825032230
         H            0.999320708801    -0.949474923163     0.949323182696     1.007825032230
         H           -2.053202291199     0.428066076837    -1.312381817304     1.007825032230
         H           -0.999106291199    -0.950073923163    -0.948595817304     1.007825032230
         H            0.325432508801     1.942957876837     0.830533282696     1.007825032230
         H           -0.329500291199     1.927220076837    -0.840796817304     1.007825032230
         H            3.406482708801    -1.564217923163     0.593919182696     1.007825032230
         H            2.513496708801    -1.608637923163    -0.940284817304     1.007825032230
         H            3.568866708801    -0.233223923163    -0.572239817304     1.007825032230
         H           -3.406408291199    -1.564288923163    -0.593543817304     1.007825032230
         H           -2.513898291199    -1.608125923163     0.940949182696     1.007825032230
         H           -3.568965291199    -0.232732923163     0.571949182696     1.007825032230

  Basis Set: AUG-CC-PVTZ
    Blend: AUG-CC-PVTZ
  Basis Set: (AUG-CC-PVTZ AUX)
    Blend: AUG-CC-PVTZ-JKFIT
	 Reference Energy          =    -346.1658187673987186 [Eh]
	 Singles Energy            =      -0.0000000000000000 [Eh]
	 Same-Spin Energy          =      -0.3394241951731031 [Eh]
	 Opposite-Spin Energy      =      -1.1623960764033527 [Eh]
	 Correlation Energy        =      -1.5018202715764559 [Eh]
	 Total Energy              =    -347.6676390389751532 [Eh]

	 ================> DF-SCS-MP2 Energies <==================
	-----------------------------------------------------------
	 SCS Same-Spin Scale       =       0.3333333333333333 [-]
	 SCS Opposite-Spin Scale   =       1.2000000000000000 [-]
	 SCS Same-Spin Energy      =      -0.1131413983910343 [Eh]
	 SCS Opposite-Spin Energy  =      -1.3948752916840232 [Eh]
	 SCS Correlation Energy    =      -1.5080166900750576 [Eh]
	 SCS Total Energy          =    -347.6738354574737855 [Eh]
	-----------------------------------------------------------

  Dipole Moment: [D]
     X:    -0.0011      Y:    -0.3782      Z:     0.0006     Total:     0.3782

*** Psi4 exiting successfully. Buy a developer a beer!
