                               Psi4 1.3.2 release

  ==> Input File <==

--------------------------------------------------------------------------
#psi4
#
memory 32 gb

molecule  {
0 1
  O        1.0620210     0.5679390    -0.5075070
  O       -1.0619730     0.5678990     0.5074520
  C        1.7996722    -0.2565057     0.4011498
  C       -1.7086770    -0.2057720    -0.5087890
  C       -0.0000550     1.3374600    -0.0000670
  C        2.8723760    -0.9214300    -0.1416400
  C       -2.8725180    -0.9212340     0.1416940
  H        2.0537520     0.4628900     1.3122050
  H        0.9992830    -0.9151760     0.9492220
  H       -2.0532400     0.4623650    -1.3124830
  H       -0.9991440    -0.9157750    -0.9486970
  H        0.3294190     1.9615920     0.8407020
  H       -0.3295380     1.9615190    -0.8408980
  H        3.4064450    -1.5299190     0.5938180
  H        2.5134590    -1.5743390    -0.9403860
  H        3.5688290    -0.1989250    -0.5723410
  H       -3.4064460    -1.5299900    -0.5936450
  H       -2.5139360    -1.5738270     0.9408480
  H       -3.5690030    -0.1984340     0.5718480
units angstrom
no_reorient  #important for SAPT in psi4, default
symmetry c1  #important for SAPT in psi4, default
}

set PROPERTIES_ORIGIN ["COM"]
properties('MP2/aug-cc-pvtz', properties = ['dipole'])
--------------------------------------------------------------------------

    Molecular point group: c1
  Charge       = 0
  Multiplicity = 1
  Basis Set: AUG-CC-PVTZ
    Blend: AUG-CC-PVTZ
  Basis Set: (AUG-CC-PVTZ AUX)
    Blend: AUG-CC-PVTZ-JKFIT

    Orbital Energies [Eh]
    ---------------------

    Doubly Occupied:

       1A    -20.558688     2A    -20.555525     3A    -11.326092
       4A    -11.283044     5A    -11.272731     6A    -11.213703
       7A    -11.212107     8A     -1.407546     9A     -1.340332
      10A     -1.061421    11A     -1.019965    12A     -0.901218
      13A     -0.841940    14A     -0.797933    15A     -0.691826
      16A     -0.683585    17A     -0.671220    18A     -0.625025
      19A     -0.619732    20A     -0.583321    21A     -0.561902
      22A     -0.538289    23A     -0.530067    24A     -0.514340
      25A     -0.503379    26A     -0.487900    27A     -0.454081
      28A     -0.436900    29A     -0.409643

  @DF-RHF Final Energy:  -346.13801773542531

   => Energetics <=

    Nuclear Repulsion Energy =            332.8517515622253313
    One-Electron Energy =               -1131.7726274022795678
    Two-Electron Energy =                 452.7828581046289287
    Total Energy =                       -346.1380177354253078
  Basis Set: (AUG-CC-PVTZ AUX)
    Blend: AUG-CC-PVTZ-RI
    Molecular point group: c1

    Geometry (in Angstrom), charge = 0, multiplicity = 1:

       Center              X                  Y                   Z               Mass
    ------------   -----------------  -----------------  -----------------  -----------------
         O            1.051546498166     0.539675638590    -0.495089001388    15.994914619570
         O           -1.072447501834     0.539635638590     0.519869998612    15.994914619570
         C            1.789197698166    -0.284769061410     0.413567798612    12.000000000000
         C           -1.719151501834    -0.234035361410    -0.496371001388    12.000000000000
         C           -0.010529501834     1.309196638590     0.012350998612    12.000000000000
         C            2.861901498166    -0.949693361410    -0.129222001388    12.000000000000
         C           -2.882992501834    -0.949497361410     0.154111998612    12.000000000000
         H            2.043277498166     0.434626638590     1.324622998612     1.007825032230
         H            0.988808498166    -0.943439361410     0.961639998612     1.007825032230
         H           -2.063714501834     0.434101638590    -1.300065001388     1.007825032230
         H           -1.009618501834    -0.944038361410    -0.936279001388     1.007825032230
         H            0.318944498166     1.933328638590     0.853119998612     1.007825032230
         H           -0.340012501834     1.933255638590    -0.828480001388     1.007825032230
         H            3.395970498166    -1.558182361410     0.606235998612     1.007825032230
         H            2.502984498166    -1.602602361410    -0.927968001388     1.007825032230
         H            3.558354498166    -0.227188361410    -0.559923001388     1.007825032230
         H           -3.416920501834    -1.558253361410    -0.581227001388     1.007825032230
         H           -2.524410501834    -1.602090361410     0.953265998612     1.007825032230
         H           -3.579477501834    -0.226697361410     0.584265998612     1.007825032230

  Basis Set: AUG-CC-PVTZ
    Blend: AUG-CC-PVTZ
  Basis Set: (AUG-CC-PVTZ AUX)
    Blend: AUG-CC-PVTZ-JKFIT
	 Reference Energy          =    -346.1380177354253078 [Eh]
	 Singles Energy            =      -0.0000000000000000 [Eh]
	 Same-Spin Energy          =      -0.3409301685775336 [Eh]
	 Opposite-Spin Energy      =      -1.1639875428723834 [Eh]
	 Correlation Energy        =      -1.5049177114499170 [Eh]
	 Total Energy              =    -347.6429354468752422 [Eh]

	 ================> DF-SCS-MP2 Energies <==================
	-----------------------------------------------------------
	 SCS Same-Spin Scale       =       0.3333333333333333 [-]
	 SCS Opposite-Spin Scale   =       1.2000000000000000 [-]
	 SCS Same-Spin Energy      =      -0.1136433895258445 [Eh]
	 SCS Opposite-Spin Energy  =      -1.3967850514468600 [Eh]
	 SCS Correlation Energy    =      -1.5104284409727047 [Eh]
	 SCS Total Energy          =    -347.6484461763980107 [Eh]
	-----------------------------------------------------------

  Dipole Moment: [D]
     X:     0.1765      Y:    -0.5123      Z:    -0.1706     Total:     0.5680

*** Psi4 exiting successfully. Buy a developer a beer!
