                               Psi4 1.3.2 release

  ==> Input File <==

--------------------------------------------------------------------------
#psi4
#
memory 32 gb

molecule  {
0 1
  O        1.0620210     0.5679390    -0.5075070
  O       -1.0619730     0.5678990     0.5074520
  C        1.7088310    -0.2054710     0.5088440
  C       -1.7086770    -0.2057720    -0.5087890
  C       -0.0000550     1.3374600    -0.0000670
  C        2.8723760    -0.9214300    -0.1416400
  C       -2.8725180    -0.9212340     0.1416940
  H        2.0537520     0.4628900     1.3122050
  H        0.9992830    -0.9151760     0.9492220
  H       -2.0532400     0.4623650    -1.3124830
  H       -0.9991440    -0.9157750    -0.9486970
  H        0.3333428     1.9457371     0.8507157
  H       -0.3295380     1.9615190    -0.8408980
  H        3.4064450    -1.5299190     0.5938180
  H        2.5134590    -1.5743390    -0.9403860
  H        3.5688290    -0.1989250    -0.5723410
  H       -3.4064460    -1.5299900    -0.5936450
  H       -2.5139360    -1.5738270     0.9408480
  H       -3.5690030    -0.1984340     0.5718480
units angstrom
no_reorient  #important for SAPT in psi4, default
symmetry c1  #important for SAPT in psi4, default
}

set PROPERTIES_ORIGIN ["COM"]
properties('MP2/aug-cc-pvtz', properties = ['dipole'])
--------------------------------------------------------------------------

    Molecular point group: c1
  Charge       = 0
  Multiplicity = 1
  Basis Set: AUG-CC-PVTZ
    Blend: AUG-CC-PVTZ
  Basis Set: (AUG-CC-PVTZ AUX)
    Blend: AUG-CC-PVTZ-JKFIT

    Orbital Energies [Eh]
    ---------------------

    Doubly Occupied:

       1A    -20.559019     2A    -20.558964     3A    -11.323833
       4A    -11.273409     5A    -11.273322     6A    -11.214343
       7A    -11.214315     8A     -1.410146     9A     -1.341511
      10A     -1.033197    11A     -1.012227    12A     -0.896167
      13A     -0.847677    14A     -0.811676    15A     -0.691287
      16A     -0.684024    17A     -0.673242    18A     -0.620093
      19A     -0.617840    20A     -0.578037    21A     -0.537995
      22A     -0.536984    23A     -0.525952    24A     -0.514893
      25A     -0.501742    26A     -0.494725    27A     -0.462193
      28A     -0.437790    29A     -0.434216

  @DF-RHF Final Energy:  -346.16576086124286

   => Energetics <=

    Nuclear Repulsion Energy =            332.5650805399171190
    One-Electron Energy =               -1131.3000438216495240
    Two-Electron Energy =                 452.5692024204896029
    Total Energy =                       -346.1657608612428589
  Basis Set: (AUG-CC-PVTZ AUX)
    Blend: AUG-CC-PVTZ-RI
    Molecular point group: c1

    Geometry (in Angstrom), charge = 0, multiplicity = 1:

       Center              X                  Y                   Z               Mass
    ------------   -----------------  -----------------  -----------------  -----------------
         O            1.061981749670     0.533945276726    -0.507602219949    15.994914619570
         O           -1.062012250330     0.533905276726     0.507356780051    15.994914619570
         C            1.708791749670    -0.239464723274     0.508748780051    12.000000000000
         C           -1.708716250330    -0.239765723274    -0.508884219949    12.000000000000
         C           -0.000094250330     1.303466276726    -0.000162219949    12.000000000000
         C            2.872336749670    -0.955423723274    -0.141735219949    12.000000000000
         C           -2.872557250330    -0.955227723274     0.141598780051    12.000000000000
         H            2.053712749670     0.428896276726     1.312109780051     1.007825032230
         H            0.999243749670    -0.949169723274     0.949126780051     1.007825032230
         H           -2.053279250330     0.428371276726    -1.312578219949     1.007825032230
         H           -0.999183250330    -0.949768723274    -0.948792219949     1.007825032230
         H            0.333303549670     1.911743376726     0.850620480051     1.007825032230
         H           -0.329577250330     1.927525276726    -0.840993219949     1.007825032230
         H            3.406405749670    -1.563912723274     0.593722780051     1.007825032230
         H            2.513419749670    -1.608332723274    -0.940481219949     1.007825032230
         H            3.568789749670    -0.232918723274    -0.572436219949     1.007825032230
         H           -3.406485250330    -1.563983723274    -0.593740219949     1.007825032230
         H           -2.513975250330    -1.607820723274     0.940752780051     1.007825032230
         H           -3.569042250330    -0.232427723274     0.571752780051     1.007825032230

  Basis Set: AUG-CC-PVTZ
    Blend: AUG-CC-PVTZ
  Basis Set: (AUG-CC-PVTZ AUX)
    Blend: AUG-CC-PVTZ-JKFIT
	 Reference Energy          =    -346.1657608612428589 [Eh]
	 Singles Energy            =      -0.0000000000000000 [Eh]
	 Same-Spin Energy          =      -0.3394747913184580 [Eh]
	 Opposite-Spin Energy      =      -1.1624675809592626 [Eh]
	 Correlation Energy        =      -1.5019423722777208 [Eh]
	 Total Energy              =    -347.6677032335205695 [Eh]

	 ================> DF-SCS-MP2 Energies <==================
	-----------------------------------------------------------
	 SCS Same-Spin Scale       =       0.3333333333333333 [-]
	 SCS Opposite-Spin Scale   =       1.2000000000000000 [-]
	 SCS Same-Spin Energy      =      -0.1131582637728193 [Eh]
	 SCS Opposite-Spin Energy  =      -1.3949610971511150 [Eh]
	 SCS Correlation Energy    =      -1.5081193609239345 [Eh]
	 SCS Total Energy          =    -347.6738802221668152 [Eh]
	-----------------------------------------------------------

  Dipole Moment: [D]
     X:     0.0004      Y:    -0.3871      Z:    -0.0007     Total:     0.3871

*** Psi4 exiting successfully. Buy a developer a beer!
