                               Psi4 1.3.2 release

  ==> Input File <==

--------------------------------------------------------------------------
#psi4
#
memory 32 gb

molecule  {
0 1
  O        1.0620210     0.5679390    -0.5075070
  O       -1.0291517     0.5837514     0.4732685
  C        1.7088310    -0.2054710     0.5088440
  C       -1.7086770    -0.2057720    -0.5087890
  C       -0.0000550     1.3374600    -0.0000670
  C        2.8723760    -0.9214300    -0.1416400
  C       -2.8725180    -0.9212340     0.1416940
  H        2.0537520     0.4628900     1.3122050
  H        0.9992830    -0.9151760     0.9492220
  H       -2.0532400     0.4623650    -1.3124830
  H       -0.9991440    -0.9157750    -0.9486970
  H        0.3294190     1.9615920     0.8407020
  H       -0.3295380     1.9615190    -0.8408980
  H        3.4064450    -1.5299190     0.5938180
  H        2.5134590    -1.5743390    -0.9403860
  H        3.5688290    -0.1989250    -0.5723410
  H       -3.4064460    -1.5299900    -0.5936450
  H       -2.5139360    -1.5738270     0.9408480
  H       -3.5690030    -0.1984340     0.5718480
units angstrom
no_reorient  #important for SAPT in psi4, default
symmetry c1  #important for SAPT in psi4, default
}

set PROPERTIES_ORIGIN ["COM"]
properties('MP2/aug-cc-pvtz', properties = ['dipole'])
--------------------------------------------------------------------------

    Molecular point group: c1
  Charge       = 0
  Multiplicity = 1
  Basis Set: AUG-CC-PVTZ
    Blend: AUG-CC-PVTZ
  Basis Set: (AUG-CC-PVTZ AUX)
    Blend: AUG-CC-PVTZ-JKFIT

    Orbital Energies [Eh]
    ---------------------

    Doubly Occupied:

       1A    -20.557478     2A    -20.554570     3A    -11.319330
       4A    -11.276083     5A    -11.271828     6A    -11.217323
       7A    -11.213224     8A     -1.419686     9A     -1.343179
      10A     -1.036220    11A     -1.013228    12A     -0.897820
      13A     -0.849281    14A     -0.809228    15A     -0.696345
      16A     -0.687897    17A     -0.675496    18A     -0.621965
      19A     -0.618421    20A     -0.577129    21A     -0.541177
      22A     -0.537901    23A     -0.526675    24A     -0.515160
      25A     -0.503484    26A     -0.495436    27A     -0.455946
      28A     -0.435786    29A     -0.433678

  @DF-RHF Final Energy:  -346.16661469392102

   => Energetics <=

    Nuclear Repulsion Energy =            333.4930360160414011
    One-Electron Energy =               -1133.1173582046740194
    Two-Electron Energy =                 453.4577074947115989
    Total Energy =                       -346.1666146939210194
  Basis Set: (AUG-CC-PVTZ AUX)
    Blend: AUG-CC-PVTZ-RI
    Molecular point group: c1

    Geometry (in Angstrom), charge = 0, multiplicity = 1:

       Center              X                  Y                   Z               Mass
    ------------   -----------------  -----------------  -----------------  -----------------
         O            1.056975977978     0.531355662090    -0.502252159729    15.994914619570
         O           -1.034196722022     0.547168062090     0.478523340271    15.994914619570
         C            1.703785977978    -0.242054337910     0.514098840271    12.000000000000
         C           -1.713722022022    -0.242355337910    -0.503534159729    12.000000000000
         C           -0.005100022022     1.300876662090     0.005187840271    12.000000000000
         C            2.867330977978    -0.958013337910    -0.136385159729    12.000000000000
         C           -2.877563022022    -0.957817337910     0.146948840271    12.000000000000
         H            2.048706977978     0.426306662090     1.317459840271     1.007825032230
         H            0.994237977978    -0.951759337910     0.954476840271     1.007825032230
         H           -2.058285022022     0.425781662090    -1.307228159729     1.007825032230
         H           -1.004189022022    -0.952358337910    -0.943442159729     1.007825032230
         H            0.324373977978     1.925008662090     0.845956840271     1.007825032230
         H           -0.334583022022     1.924935662090    -0.835643159729     1.007825032230
         H            3.401399977978    -1.566502337910     0.599072840271     1.007825032230
         H            2.508413977978    -1.610922337910    -0.935131159729     1.007825032230
         H            3.563783977978    -0.235508337910    -0.567086159729     1.007825032230
         H           -3.411491022022    -1.566573337910    -0.588390159729     1.007825032230
         H           -2.518981022022    -1.610410337910     0.946102840271     1.007825032230
         H           -3.574048022022    -0.235017337910     0.577102840271     1.007825032230

  Basis Set: AUG-CC-PVTZ
    Blend: AUG-CC-PVTZ
  Basis Set: (AUG-CC-PVTZ AUX)
    Blend: AUG-CC-PVTZ-JKFIT
	 Reference Energy          =    -346.1666146939210194 [Eh]
	 Singles Energy            =      -0.0000000000000000 [Eh]
	 Same-Spin Energy          =      -0.3391013991613455 [Eh]
	 Opposite-Spin Energy      =      -1.1609184965773882 [Eh]
	 Correlation Energy        =      -1.5000198957387336 [Eh]
	 Total Energy              =    -347.6666345896597363 [Eh]

	 ================> DF-SCS-MP2 Energies <==================
	-----------------------------------------------------------
	 SCS Same-Spin Scale       =       0.3333333333333333 [-]
	 SCS Opposite-Spin Scale   =       1.2000000000000000 [-]
	 SCS Same-Spin Energy      =      -0.1130337997204485 [Eh]
	 SCS Opposite-Spin Energy  =      -1.3931021958928658 [Eh]
	 SCS Correlation Energy    =      -1.5061359956133142 [Eh]
	 SCS Total Energy          =    -347.6727506895343254 [Eh]
	-----------------------------------------------------------

  Dipole Moment: [D]
     X:    -0.2236      Y:    -0.4731      Z:     0.0770     Total:     0.5289

*** Psi4 exiting successfully. Buy a developer a beer!
