                               Psi4 1.3.2 release

  ==> Input File <==

--------------------------------------------------------------------------
#psi4
#
memory 32 gb

molecule  {
0 1
  O        1.0620210     0.5679390    -0.5075070
  O       -1.0619730     0.5678990     0.5074520
  C        1.7399496    -0.2234537     0.4741273
  C       -1.7086770    -0.2057720    -0.5087890
  C       -0.0000550     1.3374600    -0.0000670
  C        2.8723760    -0.9214300    -0.1416400
  C       -2.8725180    -0.9212340     0.1416940
  H        2.0537520     0.4628900     1.3122050
  H        0.9992830    -0.9151760     0.9492220
  H       -2.0532400     0.4623650    -1.3124830
  H       -0.9991440    -0.9157750    -0.9486970
  H        0.3294190     1.9615920     0.8407020
  H       -0.3295380     1.9615190    -0.8408980
  H        3.4064450    -1.5299190     0.5938180
  H        2.5134590    -1.5743390    -0.9403860
  H        3.5688290    -0.1989250    -0.5723410
  H       -3.4064460    -1.5299900    -0.5936450
  H       -2.5139360    -1.5738270     0.9408480
  H       -3.5690030    -0.1984340     0.5718480
units angstrom
no_reorient  #important for SAPT in psi4, default
symmetry c1  #important for SAPT in psi4, default
}

set PROPERTIES_ORIGIN ["COM"]
properties('MP2/aug-cc-pvtz', properties = ['dipole'])
--------------------------------------------------------------------------

    Molecular point group: c1
  Charge       = 0
  Multiplicity = 1
  Basis Set: AUG-CC-PVTZ
    Blend: AUG-CC-PVTZ
  Basis Set: (AUG-CC-PVTZ AUX)
    Blend: AUG-CC-PVTZ-JKFIT

    Orbital Energies [Eh]
    ---------------------

    Doubly Occupied:

       1A    -20.558939     2A    -20.557719     3A    -11.324378
       4A    -11.275967     5A    -11.273137     6A    -11.214111
       7A    -11.213653     8A     -1.409092     9A     -1.341010
      10A     -1.039569    11A     -1.016311    12A     -0.897882
      13A     -0.845279    14A     -0.807670    15A     -0.691080
      16A     -0.684026    17A     -0.671613    18A     -0.621359
      19A     -0.617464    20A     -0.578804    21A     -0.542447
      22A     -0.538053    23A     -0.528746    24A     -0.513749
      25A     -0.505868    26A     -0.493157    27A     -0.459819
      28A     -0.436900    29A     -0.428166

  @DF-RHF Final Energy:  -346.16291828918116

   => Energetics <=

    Nuclear Repulsion Energy =            332.6145417040409029
    One-Electron Energy =               -1131.3829805826558186
    Two-Electron Energy =                 452.6055205894337519
    Total Energy =                       -346.1629182891811638
  Basis Set: (AUG-CC-PVTZ AUX)
    Blend: AUG-CC-PVTZ-RI
    Molecular point group: c1

    Geometry (in Angstrom), charge = 0, multiplicity = 1:

       Center              X                  Y                   Z               Mass
    ------------   -----------------  -----------------  -----------------  -----------------
         O            1.058432023911     0.535865014187    -0.503502708344    15.994914619570
         O           -1.065561976089     0.535825014187     0.511456291656    15.994914619570
         C            1.736360623911    -0.255527685813     0.478131591656    12.000000000000
         C           -1.712265976089    -0.237845985813    -0.504784708344    12.000000000000
         C           -0.003643976089     1.305386014187     0.003937291656    12.000000000000
         C            2.868787023911    -0.953503985813    -0.137635708344    12.000000000000
         C           -2.876106976089    -0.953307985813     0.145698291656    12.000000000000
         H            2.050163023911     0.430816014187     1.316209291656     1.007825032230
         H            0.995694023911    -0.947249985813     0.953226291656     1.007825032230
         H           -2.056828976089     0.430291014187    -1.308478708344     1.007825032230
         H           -1.002732976089    -0.947848985813    -0.944692708344     1.007825032230
         H            0.325830023911     1.929518014187     0.844706291656     1.007825032230
         H           -0.333126976089     1.929445014187    -0.836893708344     1.007825032230
         H            3.402856023911    -1.561992985813     0.597822291656     1.007825032230
         H            2.509870023911    -1.606412985813    -0.936381708344     1.007825032230
         H            3.565240023911    -0.230998985813    -0.568336708344     1.007825032230
         H           -3.410034976089    -1.562063985813    -0.589640708344     1.007825032230
         H           -2.517524976089    -1.605900985813     0.944852291656     1.007825032230
         H           -3.572591976089    -0.230507985813     0.575852291656     1.007825032230

  Basis Set: AUG-CC-PVTZ
    Blend: AUG-CC-PVTZ
  Basis Set: (AUG-CC-PVTZ AUX)
    Blend: AUG-CC-PVTZ-JKFIT
	 Reference Energy          =    -346.1629182891811638 [Eh]
	 Singles Energy            =      -0.0000000000000000 [Eh]
	 Same-Spin Energy          =      -0.3397402597093935 [Eh]
	 Opposite-Spin Energy      =      -1.1625802330631647 [Eh]
	 Correlation Energy        =      -1.5023204927725582 [Eh]
	 Total Energy              =    -347.6652387819537466 [Eh]

	 ================> DF-SCS-MP2 Energies <==================
	-----------------------------------------------------------
	 SCS Same-Spin Scale       =       0.3333333333333333 [-]
	 SCS Opposite-Spin Scale   =       1.2000000000000000 [-]
	 SCS Same-Spin Energy      =      -0.1132467532364645 [Eh]
	 SCS Opposite-Spin Energy  =      -1.3950962796757975 [Eh]
	 SCS Correlation Energy    =      -1.5083430329122620 [Eh]
	 SCS Total Energy          =    -347.6712613220934145 [Eh]
	-----------------------------------------------------------

  Dipole Moment: [D]
     X:     0.0582      Y:    -0.4249      Z:    -0.0473     Total:     0.4315

*** Psi4 exiting successfully. Buy a developer a beer!
