                               Psi4 1.3.2 release

  ==> Input File <==

--------------------------------------------------------------------------
#psi4
#
memory 32 gb

molecule  {
0 1
  O        1.0620210     0.5679390    -0.5075070
  O       -1.0663950     0.5886095     0.4941918
  C        1.7088310    -0.2054710     0.5088440
  C       -1.7086770    -0.2057720    -0.5087890
  C       -0.0000550     1.3374600    -0.0000670
  C        2.8723760    -0.9214300    -0.1416400
  C       -2.8725180    -0.9212340     0.1416940
  H        2.0537520     0.4628900     1.3122050
  H        0.9992830    -0.9151760     0.9492220
  H       -2.0532400     0.4623650    -1.3124830
  H       -0.9991440    -0.9157750    -0.9486970
  H        0.3294190     1.9615920     0.8407020
  H       -0.3295380     1.9615190    -0.8408980
  H        3.4064450    -1.5299190     0.5938180
  H        2.5134590    -1.5743390    -0.9403860
  H        3.5688290    -0.1989250    -0.5723410
  H       -3.4064460    -1.5299900    -0.5936450
  H       -2.5139360    -1.5738270     0.9408480
  H       -3.5690030    -0.1984340     0.5718480
units angstrom
no_reorient  #important for SAPT in psi4, default
symmetry c1  #important for SAPT in psi4, default
}

set PROPERTIES_ORIGIN ["COM"]
properties('MP2/aug-cc-pvtz', properties = ['dipole'])
--------------------------------------------------------------------------

    Molecular point group: c1
  Charge       = 0
  Multiplicity = 1
  Basis Set: AUG-CC-PVTZ
    Blend: AUG-CC-PVTZ
  Basis Set: (AUG-CC-PVTZ AUX)
    Blend: AUG-CC-PVTZ-JKFIT

    Orbital Energies [Eh]
    ---------------------

    Doubly Occupied:

       1A    -20.558871     2A    -20.558753     3A    -11.322427
       4A    -11.274094     5A    -11.273476     6A    -11.215127
       7A    -11.214376     8A     -1.412192     9A     -1.343022
      10A     -1.034045    11A     -1.012894    12A     -0.896615
      13A     -0.848178    14A     -0.811237    15A     -0.692632
      16A     -0.685544    17A     -0.673607    18A     -0.620483
      19A     -0.618189    20A     -0.578248    21A     -0.538713
      22A     -0.537710    23A     -0.526328    24A     -0.514923
      25A     -0.502284    26A     -0.495523    27A     -0.460491
      28A     -0.437483    29A     -0.434318

  @DF-RHF Final Energy:  -346.16631277295789

   => Energetics <=

    Nuclear Repulsion Energy =            332.6382133671137922
    One-Electron Energy =               -1131.4254868208261087
    Two-Electron Energy =                 452.6209606807543651
    Total Energy =                       -346.1663127729578946
  Basis Set: (AUG-CC-PVTZ AUX)
    Blend: AUG-CC-PVTZ-RI
    Molecular point group: c1

    Geometry (in Angstrom), charge = 0, multiplicity = 1:

       Center              X                  Y                   Z               Mass
    ------------   -----------------  -----------------  -----------------  -----------------
         O            1.062699287527     0.530609100692    -0.505467517194    15.994914619570
         O           -1.065716712473     0.551279600692     0.496231282806    15.994914619570
         C            1.709509287527    -0.242800899308     0.510883482806    12.000000000000
         C           -1.707998712473    -0.243101899308    -0.506749517194    12.000000000000
         C            0.000623287527     1.300130100692     0.001972482806    12.000000000000
         C            2.873054287527    -0.958759899308    -0.139600517194    12.000000000000
         C           -2.871839712473    -0.958563899308     0.143733482806    12.000000000000
         H            2.054430287527     0.425560100692     1.314244482806     1.007825032230
         H            0.999961287527    -0.952505899308     0.951261482806     1.007825032230
         H           -2.052561712473     0.425035100692    -1.310443517194     1.007825032230
         H           -0.998465712473    -0.953104899308    -0.946657517194     1.007825032230
         H            0.330097287527     1.924262100692     0.842741482806     1.007825032230
         H           -0.328859712473     1.924189100692    -0.838858517194     1.007825032230
         H            3.407123287527    -1.567248899308     0.595857482806     1.007825032230
         H            2.514137287527    -1.611668899308    -0.938346517194     1.007825032230
         H            3.569507287527    -0.236254899308    -0.570301517194     1.007825032230
         H           -3.405767712473    -1.567319899308    -0.591605517194     1.007825032230
         H           -2.513257712473    -1.611156899308     0.942887482806     1.007825032230
         H           -3.568324712473    -0.235763899308     0.573887482806     1.007825032230

  Basis Set: AUG-CC-PVTZ
    Blend: AUG-CC-PVTZ
  Basis Set: (AUG-CC-PVTZ AUX)
    Blend: AUG-CC-PVTZ-JKFIT
	 Reference Energy          =    -346.1663127729578946 [Eh]
	 Singles Energy            =      -0.0000000000000000 [Eh]
	 Same-Spin Energy          =      -0.3393424354209110 [Eh]
	 Opposite-Spin Energy      =      -1.1620039704813387 [Eh]
	 Correlation Energy        =      -1.5013464059022497 [Eh]
	 Total Energy              =    -347.6676591788601627 [Eh]

	 ================> DF-SCS-MP2 Energies <==================
	-----------------------------------------------------------
	 SCS Same-Spin Scale       =       0.3333333333333333 [-]
	 SCS Opposite-Spin Scale   =       1.2000000000000000 [-]
	 SCS Same-Spin Energy      =      -0.1131141451403037 [Eh]
	 SCS Opposite-Spin Energy  =      -1.3944047645776065 [Eh]
	 SCS Correlation Energy    =      -1.5075189097179102 [Eh]
	 SCS Total Energy          =    -347.6738316826758250 [Eh]
	-----------------------------------------------------------

  Dipole Moment: [D]
     X:    -0.0246      Y:    -0.4450      Z:     0.0305     Total:     0.4467

*** Psi4 exiting successfully. Buy a developer a beer!
