                               Psi4 1.4a3.dev225

  ==> Input File <==

--------------------------------------------------------------------------
#psi4
#
memory 32 gb

molecule  {
0 1
  O        1.0619850     0.5679060    -0.5074190
  O       -1.0619850     0.5679070     0.5074170
  C        1.6996912    -0.1947803     0.4945805
  C       -1.7087210    -0.2055970    -0.5087750
  C        0.0000010     1.3374800    -0.0000030
  C        2.8724190    -0.9213410    -0.1416800
  C       -2.8724250    -0.9213350     0.1416820
  H        2.0535020     0.4626010     1.3123700
  H        0.9992280    -0.9154830     0.9489700
  H       -2.0534850     0.4625820    -1.3123800
  H       -0.9992230    -0.9155040    -0.9489490
  H        0.3294410     1.9615530     0.8408220
  H       -0.3294430     1.9615480    -0.8408310
  H        3.4062720    -1.5300890     0.5937210
  H        2.5136630    -1.5739790    -0.9407190
  H        3.5689960    -0.1987040    -0.5719490
  H       -3.4062730    -1.5300900    -0.5937160
  H       -2.5136820    -1.5739620     0.9407340
  H       -3.5690030    -0.1986870     0.5719320
units angstrom
no_reorient  #important for SAPT in psi4, default
symmetry c1  #important for SAPT in psi4, default
}

set PROPERTIES_ORIGIN ["COM"]
properties('MP2/aug-cc-pvtz', properties = ['dipole'])
--------------------------------------------------------------------------

    Molecular point group: c1
  Charge       = 0
  Multiplicity = 1
  Basis Set: AUG-CC-PVTZ
    Blend: AUG-CC-PVTZ
  Basis Set: (AUG-CC-PVTZ AUX)
    Blend: AUG-CC-PVTZ-JKFIT

    Orbital Energies [Eh]
    ---------------------

    Doubly Occupied:

       1A    -20.561137     2A    -20.559970     3A    -11.325092
       4A    -11.273905     5A    -11.273377     6A    -11.214632
       7A    -11.213807     8A     -1.414062     9A     -1.345785
      10A     -1.032990    11A     -1.011133    12A     -0.898294
      13A     -0.847745    14A     -0.811084    15A     -0.693595
      16A     -0.686533    17A     -0.673567    18A     -0.621200
      19A     -0.617033    20A     -0.580004    21A     -0.538573
      22A     -0.537879    23A     -0.526238    24A     -0.515948
      25A     -0.500073    26A     -0.493592    27A     -0.462824
      28A     -0.438026    29A     -0.433174

  @DF-RHF Final Energy:  -346.16588012064079

   => Energetics <=

    Nuclear Repulsion Energy =            332.8380985574540887
    One-Electron Energy =               -1131.8054097481490317
    Two-Electron Energy =                 452.8014310700542069
    Total Energy =                       -346.1658801206407929
  Basis Set: (AUG-CC-PVTZ AUX)
    Blend: AUG-CC-PVTZ-RI
    Molecular point group: c1

    Geometry (in Angstrom), charge = 0, multiplicity = 1:

       Center              X                  Y                   Z               Mass
    ------------   -----------------  -----------------  -----------------  -----------------
         O            1.063026706088     0.532510838030    -0.505782116394    15.994914619570
         O           -1.060943293912     0.532511838030     0.509053883606    15.994914619570
         C            1.700732906088    -0.230175461970     0.496217383606    12.000000000000
         C           -1.707679293912    -0.240992161970    -0.507138116394    12.000000000000
         C            0.001042706088     1.302084838030     0.001633883606    12.000000000000
         C            2.873460706088    -0.956736161970    -0.140043116394    12.000000000000
         C           -2.871383293912    -0.956730161970     0.143318883606    12.000000000000
         H            2.054543706088     0.427205838030     1.314006883606     1.007825032230
         H            1.000269706088    -0.950878161970     0.950606883606     1.007825032230
         H           -2.052443293912     0.427186838030    -1.310743116394     1.007825032230
         H           -0.998181293912    -0.950899161970    -0.947312116394     1.007825032230
         H            0.330482706088     1.926157838030     0.842458883606     1.007825032230
         H           -0.328401293912     1.926152838030    -0.839194116394     1.007825032230
         H            3.407313706088    -1.565484161970     0.595357883606     1.007825032230
         H            2.514704706088    -1.609374161970    -0.939082116394     1.007825032230
         H            3.570037706088    -0.234099161970    -0.570312116394     1.007825032230
         H           -3.405231293912    -1.565485161970    -0.592079116394     1.007825032230
         H           -2.512640293912    -1.609357161970     0.942370883606     1.007825032230
         H           -3.567961293912    -0.234082161970     0.573568883606     1.007825032230

  Basis Set: AUG-CC-PVTZ
    Blend: AUG-CC-PVTZ
  Basis Set: (AUG-CC-PVTZ AUX)
    Blend: AUG-CC-PVTZ-JKFIT
	 Reference Energy          =    -346.1658801206407929 [Eh]
	 Singles Energy            =      -0.0000000000000000 [Eh]
	 Same-Spin Energy          =      -0.3394077962191015 [Eh]
	 Opposite-Spin Energy      =      -1.1621375392865723 [Eh]
	 Correlation Energy        =      -1.5015453355056738 [Eh]
	 Total Energy              =    -347.6674254561464750 [Eh]

	 ================> DF-SCS-MP2 Energies <==================
	-----------------------------------------------------------
	 SCS Same-Spin Scale       =       0.3333333333333333 [-]
	 SCS Opposite-Spin Scale   =       1.2000000000000000 [-]
	 SCS Same-Spin Energy      =      -0.1131359320730338 [Eh]
	 SCS Opposite-Spin Energy  =      -1.3945650471438866 [Eh]
	 SCS Correlation Energy    =      -1.5077009792169205 [Eh]
	 SCS Total Energy          =    -347.6735810998576994 [Eh]
	-----------------------------------------------------------

  Dipole Moment: [D]
     X:    -0.0574      Y:    -0.3406      Z:    -0.0404     Total:     0.3478

*** Psi4 exiting successfully. Buy a developer a beer!
