                               Psi4 1.3.2 release

  ==> Input File <==

--------------------------------------------------------------------------
#psi4
#
memory 32 gb

molecule  {
0 1
  O        1.0110036     0.4877051    -0.4831201
  O       -1.0619730     0.5678990     0.5074520
  C        1.7088310    -0.2054710     0.5088440
  C       -1.7086770    -0.2057720    -0.5087890
  C       -0.0000550     1.3374600    -0.0000670
  C        2.8723760    -0.9214300    -0.1416400
  C       -2.8725180    -0.9212340     0.1416940
  H        2.0537520     0.4628900     1.3122050
  H        0.9992830    -0.9151760     0.9492220
  H       -2.0532400     0.4623650    -1.3124830
  H       -0.9991440    -0.9157750    -0.9486970
  H        0.3294190     1.9615920     0.8407020
  H       -0.3295380     1.9615190    -0.8408980
  H        3.4064450    -1.5299190     0.5938180
  H        2.5134590    -1.5743390    -0.9403860
  H        3.5688290    -0.1989250    -0.5723410
  H       -3.4064460    -1.5299900    -0.5936450
  H       -2.5139360    -1.5738270     0.9408480
  H       -3.5690030    -0.1984340     0.5718480
units angstrom
no_reorient  #important for SAPT in psi4, default
symmetry c1  #important for SAPT in psi4, default
}

set PROPERTIES_ORIGIN ["COM"]
properties('MP2/aug-cc-pvtz', properties = ['dipole'])
--------------------------------------------------------------------------

    Molecular point group: c1
  Charge       = 0
  Multiplicity = 1
  Basis Set: AUG-CC-PVTZ
    Blend: AUG-CC-PVTZ
  Basis Set: (AUG-CC-PVTZ AUX)
    Blend: AUG-CC-PVTZ-JKFIT

    Orbital Energies [Eh]
    ---------------------

    Doubly Occupied:

       1A    -20.556478     2A    -20.556066     3A    -11.326321
       4A    -11.271788     5A    -11.269950     6A    -11.213219
       7A    -11.213199     8A     -1.416396     9A     -1.343039
      10A     -1.033642    11A     -1.010154    12A     -0.899953
      13A     -0.847704    14A     -0.809740    15A     -0.696773
      16A     -0.685473    17A     -0.672101    18A     -0.624605
      19A     -0.617634    20A     -0.577402    21A     -0.537698
      22A     -0.537160    23A     -0.526554    24A     -0.517046
      25A     -0.499992    26A     -0.493294    27A     -0.461840
      28A     -0.434262    29A     -0.430017

  @DF-RHF Final Energy:  -346.16484876858408

   => Energetics <=

    Nuclear Repulsion Energy =            333.8713063033066533
    One-Electron Energy =               -1133.9133095439133285
    Two-Electron Energy =                 453.8771544720225393
    Total Energy =                       -346.1648487685840792
  Basis Set: (AUG-CC-PVTZ AUX)
    Blend: AUG-CC-PVTZ-RI
    Molecular point group: c1

    Geometry (in Angstrom), charge = 0, multiplicity = 1:

       Center              X                  Y                   Z               Mass
    ------------   -----------------  -----------------  -----------------  -----------------
         O            1.018842367338     0.465887683432    -0.486865980117    15.994914619570
         O           -1.054134232662     0.546081583432     0.503706119883    15.994914619570
         C            1.716669767338    -0.227288416568     0.505098119883    12.000000000000
         C           -1.700838232662    -0.227589416568    -0.512534880117    12.000000000000
         C            0.007783767338     1.315642583432    -0.003812880117    12.000000000000
         C            2.880214767338    -0.943247416568    -0.145385880117    12.000000000000
         C           -2.864679232662    -0.943051416568     0.137948119883    12.000000000000
         H            2.061590767338     0.441072583432     1.308459119883     1.007825032230
         H            1.007121767338    -0.936993416568     0.945476119883     1.007825032230
         H           -2.045401232662     0.440547583432    -1.316228880117     1.007825032230
         H           -0.991305232662    -0.937592416568    -0.952442880117     1.007825032230
         H            0.337257767338     1.939774583432     0.836956119883     1.007825032230
         H           -0.321699232662     1.939701583432    -0.844643880117     1.007825032230
         H            3.414283767338    -1.551736416568     0.590072119883     1.007825032230
         H            2.521297767338    -1.596156416568    -0.944131880117     1.007825032230
         H            3.576667767338    -0.220742416568    -0.576086880117     1.007825032230
         H           -3.398607232662    -1.551807416568    -0.597390880117     1.007825032230
         H           -2.506097232662    -1.595644416568     0.937102119883     1.007825032230
         H           -3.561164232662    -0.220251416568     0.568102119883     1.007825032230

  Basis Set: AUG-CC-PVTZ
    Blend: AUG-CC-PVTZ
  Basis Set: (AUG-CC-PVTZ AUX)
    Blend: AUG-CC-PVTZ-JKFIT
	 Reference Energy          =    -346.1648487685840792 [Eh]
	 Singles Energy            =      -0.0000000000000000 [Eh]
	 Same-Spin Energy          =      -0.3392624047607169 [Eh]
	 Opposite-Spin Energy      =      -1.1614418077569226 [Eh]
	 Correlation Energy        =      -1.5007042125176395 [Eh]
	 Total Energy              =    -347.6655529811017118 [Eh]

	 ================> DF-SCS-MP2 Energies <==================
	-----------------------------------------------------------
	 SCS Same-Spin Scale       =       0.3333333333333333 [-]
	 SCS Opposite-Spin Scale   =       1.2000000000000000 [-]
	 SCS Same-Spin Energy      =      -0.1130874682535723 [Eh]
	 SCS Opposite-Spin Energy  =      -1.3937301693083071 [Eh]
	 SCS Correlation Energy    =      -1.5068176375618794 [Eh]
	 SCS Total Energy          =    -347.6716664061459596 [Eh]
	-----------------------------------------------------------

  Dipole Moment: [D]
     X:     0.0743      Y:    -0.1466      Z:    -0.0728     Total:     0.1798

*** Psi4 exiting successfully. Buy a developer a beer!
