                               Psi4 1.3.2 release

  ==> Input File <==

--------------------------------------------------------------------------
#psi4
#
memory 32 gb

molecule  {
0 1
  O        1.0619850     0.5679060    -0.5074190
  O       -1.0619850     0.5679070     0.5074170
  C        1.7087270    -0.2055870     0.5087780
  C       -1.7087210    -0.2055970    -0.5087750
  C       -0.0151028     1.3484251     0.0072136
  C        2.8724190    -0.9213410    -0.1416800
  C       -2.8724250    -0.9213350     0.1416820
  H        2.0535020     0.4626010     1.3123700
  H        0.9992280    -0.9154830     0.9489700
  H       -2.0534850     0.4625820    -1.3123800
  H       -0.9992230    -0.9155040    -0.9489490
  H        0.3294410     1.9615530     0.8408220
  H       -0.3294430     1.9615480    -0.8408310
  H        3.4062720    -1.5300890     0.5937210
  H        2.5136630    -1.5739790    -0.9407190
  H        3.5689960    -0.1987040    -0.5719490
  H       -3.4062730    -1.5300900    -0.5937160
  H       -2.5136820    -1.5739620     0.9407340
  H       -3.5690030    -0.1986870     0.5719320
units angstrom
no_reorient  #important for SAPT in psi4, default
symmetry c1  #important for SAPT in psi4, default
}

set PROPERTIES_ORIGIN ["COM"]
properties('MP2/aug-cc-pvtz', properties = ['dipole'])
--------------------------------------------------------------------------

    Molecular point group: c1
  Charge       = 0
  Multiplicity = 1
  Basis Set: AUG-CC-PVTZ
    Blend: AUG-CC-PVTZ
  Basis Set: (AUG-CC-PVTZ AUX)
    Blend: AUG-CC-PVTZ-JKFIT

    Orbital Energies [Eh]
    ---------------------

    Doubly Occupied:

       1A    -20.560897     2A    -20.556222     3A    -11.323921
       4A    -11.274431     5A    -11.271700     6A    -11.214981
       7A    -11.213225     8A     -1.408236     9A     -1.338952
      10A     -1.033012    11A     -1.011354    12A     -0.897495
      13A     -0.846896    14A     -0.811781    15A     -0.690823
      16A     -0.682192    17A     -0.673149    18A     -0.621065
      19A     -0.617140    20A     -0.577279    21A     -0.537890
      22A     -0.536390    23A     -0.525942    24A     -0.515082
      25A     -0.501544    26A     -0.494736    27A     -0.462593
      28A     -0.437300    29A     -0.433506

  @DF-RHF Final Energy:  -346.16537261421729

   => Energetics <=

    Nuclear Repulsion Energy =            332.3373443235885247
    One-Electron Energy =               -1130.8659654992579817
    Two-Electron Energy =                 452.3632485614522238
    Total Energy =                       -346.1653726142172900
  Basis Set: (AUG-CC-PVTZ AUX)
    Blend: AUG-CC-PVTZ-RI
    Molecular point group: c1

    Geometry (in Angstrom), charge = 0, multiplicity = 1:

       Center              X                  Y                   Z               Mass
    ------------   -----------------  -----------------  -----------------  -----------------
         O            1.063726296699     0.532494881645    -0.508250986417    15.994914619570
         O           -1.060243703301     0.532495881645     0.506585013583    15.994914619570
         C            1.710468296699    -0.240998118355     0.507946013583    12.000000000000
         C           -1.706979703301    -0.241008118355    -0.509606986417    12.000000000000
         C           -0.013361503301     1.313013981645     0.006381613583    12.000000000000
         C            2.874160296699    -0.956752118355    -0.142511986417    12.000000000000
         C           -2.870683703301    -0.956746118355     0.140850013583    12.000000000000
         H            2.055243296699     0.427189881645     1.311538013583     1.007825032230
         H            1.000969296699    -0.950894118355     0.948138013583     1.007825032230
         H           -2.051743703301     0.427170881645    -1.313211986417     1.007825032230
         H           -0.997481703301    -0.950915118355    -0.949780986417     1.007825032230
         H            0.331182296699     1.926141881645     0.839990013583     1.007825032230
         H           -0.327701703301     1.926136881645    -0.841662986417     1.007825032230
         H            3.408013296699    -1.565500118355     0.592889013583     1.007825032230
         H            2.515404296699    -1.609390118355    -0.941550986417     1.007825032230
         H            3.570737296699    -0.234115118355    -0.572780986417     1.007825032230
         H           -3.404531703301    -1.565501118355    -0.594547986417     1.007825032230
         H           -2.511940703301    -1.609373118355     0.939902013583     1.007825032230
         H           -3.567261703301    -0.234098118355     0.571100013583     1.007825032230

  Basis Set: AUG-CC-PVTZ
    Blend: AUG-CC-PVTZ
  Basis Set: (AUG-CC-PVTZ AUX)
    Blend: AUG-CC-PVTZ-JKFIT
	 Reference Energy          =    -346.1653726142172900 [Eh]
	 Singles Energy            =      -0.0000000000000000 [Eh]
	 Same-Spin Energy          =      -0.3394382116263189 [Eh]
	 Opposite-Spin Energy      =      -1.1625702680081775 [Eh]
	 Correlation Energy        =      -1.5020084796344966 [Eh]
	 Total Energy              =    -347.6673810938517590 [Eh]

	 ================> DF-SCS-MP2 Energies <==================
	-----------------------------------------------------------
	 SCS Same-Spin Scale       =       0.3333333333333333 [-]
	 SCS Opposite-Spin Scale   =       1.2000000000000000 [-]
	 SCS Same-Spin Energy      =      -0.1131460705421063 [Eh]
	 SCS Opposite-Spin Energy  =      -1.3950843216098130 [Eh]
	 SCS Correlation Energy    =      -1.5082303921519193 [Eh]
	 SCS Total Energy          =    -347.6736030063692056 [Eh]
	-----------------------------------------------------------

  Dipole Moment: [D]
     X:    -0.1207      Y:    -0.3380      Z:     0.0196     Total:     0.3594

*** Psi4 exiting successfully. Buy a developer a beer!
