                               Psi4 1.3.2 release

  ==> Input File <==

--------------------------------------------------------------------------
#psi4
#
memory 32 gb

molecule  {
0 1
  O        1.0620210     0.5679390    -0.5075070
  O       -1.0619730     0.5678990     0.5074520
  C        1.6929738    -0.1961249     0.5257406
  C       -1.7086770    -0.2057720    -0.5087890
  C       -0.0000550     1.3374600    -0.0000670
  C        2.8723760    -0.9214300    -0.1416400
  C       -2.8725180    -0.9212340     0.1416940
  H        2.0537520     0.4628900     1.3122050
  H        0.9992830    -0.9151760     0.9492220
  H       -2.0532400     0.4623650    -1.3124830
  H       -0.9991440    -0.9157750    -0.9486970
  H        0.3294190     1.9615920     0.8407020
  H       -0.3295380     1.9615190    -0.8408980
  H        3.4064450    -1.5299190     0.5938180
  H        2.5134590    -1.5743390    -0.9403860
  H        3.5688290    -0.1989250    -0.5723410
  H       -3.4064460    -1.5299900    -0.5936450
  H       -2.5139360    -1.5738270     0.9408480
  H       -3.5690030    -0.1984340     0.5718480
units angstrom
no_reorient  #important for SAPT in psi4, default
symmetry c1  #important for SAPT in psi4, default
}

set PROPERTIES_ORIGIN ["COM"]
properties('MP2/aug-cc-pvtz', properties = ['dipole'])
--------------------------------------------------------------------------

    Molecular point group: c1
  Charge       = 0
  Multiplicity = 1
  Basis Set: AUG-CC-PVTZ
    Blend: AUG-CC-PVTZ
  Basis Set: (AUG-CC-PVTZ AUX)
    Blend: AUG-CC-PVTZ-JKFIT

    Orbital Energies [Eh]
    ---------------------

    Doubly Occupied:

       1A    -20.559962     2A    -20.559313     3A    -11.323543
       4A    -11.273537     5A    -11.272361     6A    -11.214627
       7A    -11.214461     8A     -1.410694     9A     -1.341880
      10A     -1.031186    11A     -1.009547    12A     -0.895645
      13A     -0.848855    14A     -0.813521    15A     -0.692360
      16A     -0.683905    17A     -0.672886    18A     -0.620928
      19A     -0.617775    20A     -0.577977    21A     -0.537664
      22A     -0.535967    23A     -0.524563    24A     -0.516037
      25A     -0.500490    26A     -0.492515    27A     -0.462660
      28A     -0.439647    29A     -0.435449

  @DF-RHF Final Energy:  -346.16516482627424

   => Energetics <=

    Nuclear Repulsion Energy =            332.5119257255506113
    One-Electron Energy =               -1131.1942744512159607
    Two-Electron Energy =                 452.5171838993911706
    Total Energy =                       -346.1651648262742356
  Basis Set: (AUG-CC-PVTZ AUX)
    Blend: AUG-CC-PVTZ-RI
    Molecular point group: c1

    Geometry (in Angstrom), charge = 0, multiplicity = 1:

       Center              X                  Y                   Z               Mass
    ------------   -----------------  -----------------  -----------------  -----------------
         O            1.063847948206     0.532714227785    -0.509453298337    15.994914619570
         O           -1.060146051794     0.532674227785     0.505505701663    15.994914619570
         C            1.694800748206    -0.231349672215     0.523794301663    12.000000000000
         C           -1.706850051794    -0.240996772215    -0.510735298337    12.000000000000
         C            0.001771948206     1.302235227785    -0.002013298337    12.000000000000
         C            2.874202948206    -0.956654772215    -0.143586298337    12.000000000000
         C           -2.870691051794    -0.956458772215     0.139747701663    12.000000000000
         H            2.055578948206     0.427665227785     1.310258701663     1.007825032230
         H            1.001109948206    -0.950400772215     0.947275701663     1.007825032230
         H           -2.051413051794     0.427140227785    -1.314429298337     1.007825032230
         H           -0.997317051794    -0.950999772215    -0.950643298337     1.007825032230
         H            0.331245948206     1.926367227785     0.838755701663     1.007825032230
         H           -0.327711051794     1.926294227785    -0.842844298337     1.007825032230
         H            3.408271948206    -1.565143772215     0.591871701663     1.007825032230
         H            2.515285948206    -1.609563772215    -0.942332298337     1.007825032230
         H            3.570655948206    -0.234149772215    -0.574287298337     1.007825032230
         H           -3.404619051794    -1.565214772215    -0.595591298337     1.007825032230
         H           -2.512109051794    -1.609051772215     0.938901701663     1.007825032230
         H           -3.567176051794    -0.233658772215     0.569901701663     1.007825032230

  Basis Set: AUG-CC-PVTZ
    Blend: AUG-CC-PVTZ
  Basis Set: (AUG-CC-PVTZ AUX)
    Blend: AUG-CC-PVTZ-JKFIT
	 Reference Energy          =    -346.1651648262742356 [Eh]
	 Singles Energy            =      -0.0000000000000000 [Eh]
	 Same-Spin Energy          =      -0.3393754439265194 [Eh]
	 Opposite-Spin Energy      =      -1.1624894941785233 [Eh]
	 Correlation Energy        =      -1.5018649381050428 [Eh]
	 Total Energy              =    -347.6670297643792651 [Eh]

	 ================> DF-SCS-MP2 Energies <==================
	-----------------------------------------------------------
	 SCS Same-Spin Scale       =       0.3333333333333333 [-]
	 SCS Opposite-Spin Scale   =       1.2000000000000000 [-]
	 SCS Same-Spin Energy      =      -0.1131251479755065 [Eh]
	 SCS Opposite-Spin Energy  =      -1.3949873930142280 [Eh]
	 SCS Correlation Energy    =      -1.5081125409897345 [Eh]
	 SCS Total Energy          =    -347.6732773672639496 [Eh]
	-----------------------------------------------------------

  Dipole Moment: [D]
     X:    -0.0298      Y:    -0.3617      Z:     0.0205     Total:     0.3635

*** Psi4 exiting successfully. Buy a developer a beer!
