                               Psi4 1.3.2 release

  ==> Input File <==

--------------------------------------------------------------------------
#psi4
#
memory 32 gb

molecule  {
0 1
  O        1.0620210     0.5679390    -0.5075070
  O       -1.0454614     0.5759443     0.4905124
  C        1.7088310    -0.2054710     0.5088440
  C       -1.7086770    -0.2057720    -0.5087890
  C       -0.0000550     1.3374600    -0.0000670
  C        2.8723760    -0.9214300    -0.1416400
  C       -2.8725180    -0.9212340     0.1416940
  H        2.0537520     0.4628900     1.3122050
  H        0.9992830    -0.9151760     0.9492220
  H       -2.0532400     0.4623650    -1.3124830
  H       -0.9991440    -0.9157750    -0.9486970
  H        0.3294190     1.9615920     0.8407020
  H       -0.3295380     1.9615190    -0.8408980
  H        3.4064450    -1.5299190     0.5938180
  H        2.5134590    -1.5743390    -0.9403860
  H        3.5688290    -0.1989250    -0.5723410
  H       -3.4064460    -1.5299900    -0.5936450
  H       -2.5139360    -1.5738270     0.9408480
  H       -3.5690030    -0.1984340     0.5718480
units angstrom
no_reorient  #important for SAPT in psi4, default
symmetry c1  #important for SAPT in psi4, default
}

set PROPERTIES_ORIGIN ["COM"]
properties('MP2/aug-cc-pvtz', properties = ['dipole'])
--------------------------------------------------------------------------

    Molecular point group: c1
  Charge       = 0
  Multiplicity = 1
  Basis Set: AUG-CC-PVTZ
    Blend: AUG-CC-PVTZ
  Basis Set: (AUG-CC-PVTZ AUX)
    Blend: AUG-CC-PVTZ-JKFIT

    Orbital Energies [Eh]
    ---------------------

    Doubly Occupied:

       1A    -20.558368     2A    -20.556887     3A    -11.321549
       4A    -11.274693     5A    -11.272610     6A    -11.215818
       7A    -11.213782     8A     -1.414531     9A     -1.342551
      10A     -1.034531    11A     -1.012872    12A     -0.896937
      13A     -0.848493    14A     -0.810499    15A     -0.693901
      16A     -0.685920    17A     -0.673860    18A     -0.621263
      19A     -0.618122    20A     -0.577629    21A     -0.539310
      22A     -0.537578    23A     -0.526265    24A     -0.515161
      25A     -0.502639    26A     -0.495176    27A     -0.459003
      28A     -0.436875    29A     -0.434077

  @DF-RHF Final Energy:  -346.16671695392779

   => Energetics <=

    Nuclear Repulsion Energy =            333.0110702255077513
    One-Electron Energy =               -1132.1737749554815764
    Two-Electron Energy =                 452.9959877760460358
    Total Energy =                       -346.1667169539277893
  Basis Set: (AUG-CC-PVTZ AUX)
    Blend: AUG-CC-PVTZ-RI
    Molecular point group: c1

    Geometry (in Angstrom), charge = 0, multiplicity = 1:

       Center              X                  Y                   Z               Mass
    ------------   -----------------  -----------------  -----------------  -----------------
         O            1.059482347224     0.532555406741    -0.504902090791    15.994914619570
         O           -1.048000052776     0.540560706741     0.493117309209    15.994914619570
         C            1.706292347224    -0.240854593259     0.511448909209    12.000000000000
         C           -1.711215652776    -0.241155593259    -0.506184090791    12.000000000000
         C           -0.002593652776     1.302076406741     0.002537909209    12.000000000000
         C            2.869837347224    -0.956813593259    -0.139035090791    12.000000000000
         C           -2.875056652776    -0.956617593259     0.144298909209    12.000000000000
         H            2.051213347224     0.427506406741     1.314809909209     1.007825032230
         H            0.996744347224    -0.950559593259     0.951826909209     1.007825032230
         H           -2.055778652776     0.426981406741    -1.309878090791     1.007825032230
         H           -1.001682652776    -0.951158593259    -0.946092090791     1.007825032230
         H            0.326880347224     1.926208406741     0.843306909209     1.007825032230
         H           -0.332076652776     1.926135406741    -0.838293090791     1.007825032230
         H            3.403906347224    -1.565302593259     0.596422909209     1.007825032230
         H            2.510920347224    -1.609722593259    -0.937781090791     1.007825032230
         H            3.566290347224    -0.234308593259    -0.569736090791     1.007825032230
         H           -3.408984652776    -1.565373593259    -0.591040090791     1.007825032230
         H           -2.516474652776    -1.609210593259     0.943452909209     1.007825032230
         H           -3.571541652776    -0.233817593259     0.574452909209     1.007825032230

  Basis Set: AUG-CC-PVTZ
    Blend: AUG-CC-PVTZ
  Basis Set: (AUG-CC-PVTZ AUX)
    Blend: AUG-CC-PVTZ-JKFIT
	 Reference Energy          =    -346.1667169539277893 [Eh]
	 Singles Energy            =      -0.0000000000000000 [Eh]
	 Same-Spin Energy          =      -0.3392569354422497 [Eh]
	 Opposite-Spin Energy      =      -1.1616399177717274 [Eh]
	 Correlation Energy        =      -1.5008968532139770 [Eh]
	 Total Energy              =    -347.6676138071417768 [Eh]

	 ================> DF-SCS-MP2 Energies <==================
	-----------------------------------------------------------
	 SCS Same-Spin Scale       =       0.3333333333333333 [-]
	 SCS Opposite-Spin Scale   =       1.2000000000000000 [-]
	 SCS Same-Spin Energy      =      -0.1130856451474165 [Eh]
	 SCS Opposite-Spin Energy  =      -1.3939679013260728 [Eh]
	 SCS Correlation Energy    =      -1.5070535464734893 [Eh]
	 SCS Total Energy          =    -347.6737705004013037 [Eh]
	-----------------------------------------------------------

  Dipole Moment: [D]
     X:    -0.1109      Y:    -0.4271      Z:     0.0378     Total:     0.4429

*** Psi4 exiting successfully. Buy a developer a beer!
