                               Psi4 1.3.2 release

  ==> Input File <==

--------------------------------------------------------------------------
#psi4
#
memory 32 gb

molecule  {
0 1
  O        1.0620210     0.5679390    -0.5075070
  O       -1.0577480     0.5469529     0.5204026
  C        1.7088310    -0.2054710     0.5088440
  C       -1.7086770    -0.2057720    -0.5087890
  C       -0.0000550     1.3374600    -0.0000670
  C        2.8723760    -0.9214300    -0.1416400
  C       -2.8725180    -0.9212340     0.1416940
  H        2.0537520     0.4628900     1.3122050
  H        0.9992830    -0.9151760     0.9492220
  H       -2.0532400     0.4623650    -1.3124830
  H       -0.9991440    -0.9157750    -0.9486970
  H        0.3294190     1.9615920     0.8407020
  H       -0.3295380     1.9615190    -0.8408980
  H        3.4064450    -1.5299190     0.5938180
  H        2.5134590    -1.5743390    -0.9403860
  H        3.5688290    -0.1989250    -0.5723410
  H       -3.4064460    -1.5299900    -0.5936450
  H       -2.5139360    -1.5738270     0.9408480
  H       -3.5690030    -0.1984340     0.5718480
units angstrom
no_reorient  #important for SAPT in psi4, default
symmetry c1  #important for SAPT in psi4, default
}

set PROPERTIES_ORIGIN ["COM"]
properties('MP2/aug-cc-pvtz', properties = ['dipole'])
--------------------------------------------------------------------------

    Molecular point group: c1
  Charge       = 0
  Multiplicity = 1
  Basis Set: AUG-CC-PVTZ
    Blend: AUG-CC-PVTZ
  Basis Set: (AUG-CC-PVTZ AUX)
    Blend: AUG-CC-PVTZ-JKFIT

    Orbital Energies [Eh]
    ---------------------

    Doubly Occupied:

       1A    -20.559608     2A    -20.559429     3A    -11.325168
       4A    -11.273304     5A    -11.272695     6A    -11.214302
       7A    -11.213542     8A     -1.408153     9A     -1.340003
      10A     -1.032394    11A     -1.011479    12A     -0.896203
      13A     -0.846905    14A     -0.812226    15A     -0.690877
      16A     -0.682454    17A     -0.671196    18A     -0.621100
      19A     -0.616961    20A     -0.577854    21A     -0.537608
      22A     -0.536000    23A     -0.525427    24A     -0.515298
      25A     -0.501562    26A     -0.493472    27A     -0.463483
      28A     -0.437987    29A     -0.434050

  @DF-RHF Final Energy:  -346.16485488181848

   => Energetics <=

    Nuclear Repulsion Energy =            332.4353179197025270
    One-Electron Energy =               -1131.0588692178341716
    Two-Electron Energy =                 452.4586964163131029
    Total Energy =                       -346.1648548818184850
  Basis Set: (AUG-CC-PVTZ AUX)
    Blend: AUG-CC-PVTZ-RI
    Molecular point group: c1

    Geometry (in Angstrom), charge = 0, multiplicity = 1:

       Center              X                  Y                   Z               Mass
    ------------   -----------------  -----------------  -----------------  -----------------
         O            1.061370472474     0.537010617650    -0.509495423474    15.994914619570
         O           -1.058398527526     0.516024517650     0.518414176526    15.994914619570
         C            1.708180472474    -0.236399382350     0.506855576526    12.000000000000
         C           -1.709327527526    -0.236700382350    -0.510777423474    12.000000000000
         C           -0.000705527526     1.306531617650    -0.002055423474    12.000000000000
         C            2.871725472474    -0.952358382350    -0.143628423474    12.000000000000
         C           -2.873168527526    -0.952162382350     0.139705576526    12.000000000000
         H            2.053101472474     0.431961617650     1.310216576526     1.007825032230
         H            0.998632472474    -0.946104382350     0.947233576526     1.007825032230
         H           -2.053890527526     0.431436617650    -1.314471423474     1.007825032230
         H           -0.999794527526    -0.946703382350    -0.950685423474     1.007825032230
         H            0.328768472474     1.930663617650     0.838713576526     1.007825032230
         H           -0.330188527526     1.930590617650    -0.842886423474     1.007825032230
         H            3.405794472474    -1.560847382350     0.591829576526     1.007825032230
         H            2.512808472474    -1.605267382350    -0.942374423474     1.007825032230
         H            3.568178472474    -0.229853382350    -0.574329423474     1.007825032230
         H           -3.407096527526    -1.560918382350    -0.595633423474     1.007825032230
         H           -2.514586527526    -1.604755382350     0.938859576526     1.007825032230
         H           -3.569653527526    -0.229362382350     0.569859576526     1.007825032230

  Basis Set: AUG-CC-PVTZ
    Blend: AUG-CC-PVTZ
  Basis Set: (AUG-CC-PVTZ AUX)
    Blend: AUG-CC-PVTZ-JKFIT
	 Reference Energy          =    -346.1648548818184850 [Eh]
	 Singles Energy            =      -0.0000000000000000 [Eh]
	 Same-Spin Energy          =      -0.3395702403278676 [Eh]
	 Opposite-Spin Energy      =      -1.1628963921668811 [Eh]
	 Correlation Energy        =      -1.5024666324947487 [Eh]
	 Total Energy              =    -347.6673215143132438 [Eh]

	 ================> DF-SCS-MP2 Energies <==================
	-----------------------------------------------------------
	 SCS Same-Spin Scale       =       0.3333333333333333 [-]
	 SCS Opposite-Spin Scale   =       1.2000000000000000 [-]
	 SCS Same-Spin Energy      =      -0.1131900801092892 [Eh]
	 SCS Opposite-Spin Energy  =      -1.3954756706002573 [Eh]
	 SCS Correlation Energy    =      -1.5086657507095467 [Eh]
	 SCS Total Energy          =    -347.6735206325280387 [Eh]
	-----------------------------------------------------------

  Dipole Moment: [D]
     X:     0.0251      Y:    -0.3203      Z:    -0.0293     Total:     0.3226

*** Psi4 exiting successfully. Buy a developer a beer!
