                               Psi4 1.3.2 release

  ==> Input File <==

--------------------------------------------------------------------------
#psi4
#
memory 32 gb

molecule  {
0 1
  O        1.0620210     0.5679390    -0.5075070
  O       -1.0619730     0.5678990     0.5074520
  C        1.6184695    -0.0974231     0.3668565
  C       -1.7086770    -0.2057720    -0.5087890
  C       -0.0000550     1.3374600    -0.0000670
  C        2.8723760    -0.9214300    -0.1416400
  C       -2.8725180    -0.9212340     0.1416940
  H        2.0537520     0.4628900     1.3122050
  H        0.9992830    -0.9151760     0.9492220
  H       -2.0532400     0.4623650    -1.3124830
  H       -0.9991440    -0.9157750    -0.9486970
  H        0.3294190     1.9615920     0.8407020
  H       -0.3295380     1.9615190    -0.8408980
  H        3.4064450    -1.5299190     0.5938180
  H        2.5134590    -1.5743390    -0.9403860
  H        3.5688290    -0.1989250    -0.5723410
  H       -3.4064460    -1.5299900    -0.5936450
  H       -2.5139360    -1.5738270     0.9408480
  H       -3.5690030    -0.1984340     0.5718480
units angstrom
no_reorient  #important for SAPT in psi4, default
symmetry c1  #important for SAPT in psi4, default
}

set PROPERTIES_ORIGIN ["COM"]
properties('MP2/aug-cc-pvtz', properties = ['dipole'])
--------------------------------------------------------------------------

    Molecular point group: c1
  Charge       = 0
  Multiplicity = 1
  Basis Set: AUG-CC-PVTZ
    Blend: AUG-CC-PVTZ
  Basis Set: (AUG-CC-PVTZ AUX)
    Blend: AUG-CC-PVTZ-JKFIT

    Orbital Energies [Eh]
    ---------------------

    Doubly Occupied:

       1A    -20.579878     2A    -20.568506     3A    -11.338785
       4A    -11.280123     5A    -11.279254     6A    -11.217652
       7A    -11.209847     8A     -1.479150     9A     -1.375781
      10A     -1.037943    11A     -1.000642    12A     -0.918219
      13A     -0.854075    14A     -0.804544    15A     -0.722020
      16A     -0.708757    17A     -0.685398    18A     -0.634651
      19A     -0.616565    20A     -0.603696    21A     -0.547325
      22A     -0.540277    23A     -0.533617    24A     -0.522173
      25A     -0.502214    26A     -0.488708    27A     -0.450726
      28A     -0.433114    29A     -0.400368

  @DF-RHF Final Energy:  -346.12351545853426

   => Energetics <=

    Nuclear Repulsion Energy =            335.7656101427658655
    One-Electron Energy =               -1137.1102360731197223
    Two-Electron Energy =                 455.2211104718196566
    Total Energy =                       -346.1235154585342570
  Basis Set: (AUG-CC-PVTZ AUX)
    Blend: AUG-CC-PVTZ-RI
    Molecular point group: c1

    Geometry (in Angstrom), charge = 0, multiplicity = 1:

       Center              X                  Y                   Z               Mass
    ------------   -----------------  -----------------  -----------------  -----------------
         O            1.072437682675     0.521334720111    -0.491135265280    15.994914619570
         O           -1.051556317325     0.521294720111     0.523823734720    15.994914619570
         C            1.628886182675    -0.144027379889     0.383228234720    12.000000000000
         C           -1.698260317325    -0.252376279889    -0.492417265280    12.000000000000
         C            0.010361682675     1.290855720111     0.016304734720    12.000000000000
         C            2.882792682675    -0.968034279889    -0.125268265280    12.000000000000
         C           -2.862101317325    -0.967838279889     0.158065734720    12.000000000000
         H            2.064168682675     0.416285720111     1.328576734720     1.007825032230
         H            1.009699682675    -0.961780279889     0.965593734720     1.007825032230
         H           -2.042823317325     0.415760720111    -1.296111265280     1.007825032230
         H           -0.988727317325    -0.962379279889    -0.932325265280     1.007825032230
         H            0.339835682675     1.914987720111     0.857073734720     1.007825032230
         H           -0.319121317325     1.914914720111    -0.824526265280     1.007825032230
         H            3.416861682675    -1.576523279889     0.610189734720     1.007825032230
         H            2.523875682675    -1.620943279889    -0.924014265280     1.007825032230
         H            3.579245682675    -0.245529279889    -0.555969265280     1.007825032230
         H           -3.396029317325    -1.576594279889    -0.577273265280     1.007825032230
         H           -2.503519317325    -1.620431279889     0.957219734720     1.007825032230
         H           -3.558586317325    -0.245038279889     0.588219734720     1.007825032230

  Basis Set: AUG-CC-PVTZ
    Blend: AUG-CC-PVTZ
  Basis Set: (AUG-CC-PVTZ AUX)
    Blend: AUG-CC-PVTZ-JKFIT
	 Reference Energy          =    -346.1235154585342570 [Eh]
	 Singles Energy            =      -0.0000000000000000 [Eh]
	 Same-Spin Energy          =      -0.3403089736484163 [Eh]
	 Opposite-Spin Energy      =      -1.1617885150339169 [Eh]
	 Correlation Energy        =      -1.5020974886823333 [Eh]
	 Total Energy              =    -347.6256129472166094 [Eh]

	 ================> DF-SCS-MP2 Energies <==================
	-----------------------------------------------------------
	 SCS Same-Spin Scale       =       0.3333333333333333 [-]
	 SCS Opposite-Spin Scale   =       1.2000000000000000 [-]
	 SCS Same-Spin Energy      =      -0.1134363245494721 [Eh]
	 SCS Opposite-Spin Energy  =      -1.3941462180407003 [Eh]
	 SCS Correlation Energy    =      -1.5075825425901723 [Eh]
	 SCS Total Energy          =    -347.6310980011244283 [Eh]
	-----------------------------------------------------------

  Dipole Moment: [D]
     X:    -0.6634      Y:     0.0991      Z:    -0.5190     Total:     0.8481

*** Psi4 exiting successfully. Buy a developer a beer!
