                               Psi4 1.4a3.dev225

  ==> Input File <==

--------------------------------------------------------------------------
#psi4
#
memory 32 gb

molecule  {
0 1
  O        1.0619850     0.5679060    -0.5074190
  O       -1.0619850     0.5679070     0.5074170
  C        1.7087270    -0.2055870     0.5087780
  C       -1.7087210    -0.2055970    -0.5087750
  C        0.0377606     1.3101173    -0.0180445
  C        2.8724190    -0.9213410    -0.1416800
  C       -2.8724250    -0.9213350     0.1416820
  H        2.0535020     0.4626010     1.3123700
  H        0.9992280    -0.9154830     0.9489700
  H       -2.0534850     0.4625820    -1.3123800
  H       -0.9992230    -0.9155040    -0.9489490
  H        0.3294410     1.9615530     0.8408220
  H       -0.3294430     1.9615480    -0.8408310
  H        3.4062720    -1.5300890     0.5937210
  H        2.5136630    -1.5739790    -0.9407190
  H        3.5689960    -0.1987040    -0.5719490
  H       -3.4062730    -1.5300900    -0.5937160
  H       -2.5136820    -1.5739620     0.9407340
  H       -3.5690030    -0.1986870     0.5719320
units angstrom
no_reorient  #important for SAPT in psi4, default
symmetry c1  #important for SAPT in psi4, default
}

set PROPERTIES_ORIGIN ["COM"]
properties('MP2/aug-cc-pvtz', properties = ['dipole'])
--------------------------------------------------------------------------

    Molecular point group: c1
  Charge       = 0
  Multiplicity = 1
  Basis Set: AUG-CC-PVTZ
    Blend: AUG-CC-PVTZ
  Basis Set: (AUG-CC-PVTZ AUX)
    Blend: AUG-CC-PVTZ-JKFIT

    Orbital Energies [Eh]
    ---------------------

    Doubly Occupied:

       1A    -20.566442     2A    -20.554791     3A    -11.324032
       4A    -11.277731     5A    -11.270763     6A    -11.217167
       7A    -11.212694     8A     -1.420518     9A     -1.344371
      10A     -1.035635    11A     -1.012757    12A     -0.894218
      13A     -0.849349    14A     -0.811259    15A     -0.696889
      16A     -0.688727    17A     -0.671435    18A     -0.621269
      19A     -0.616918    20A     -0.579478    21A     -0.540090
      22A     -0.538004    23A     -0.525535    24A     -0.514295
      25A     -0.504630    26A     -0.493247    27A     -0.459166
      28A     -0.439290    29A     -0.433179

  @DF-RHF Final Energy:  -346.16377586849893

   => Energetics <=

    Nuclear Repulsion Energy =            333.0802499904352771
    One-Electron Energy =               -1132.2602908255137208
    Two-Electron Energy =                 453.0162649665795129
    Total Energy =                       -346.1637758684989308
  Basis Set: (AUG-CC-PVTZ AUX)
    Blend: AUG-CC-PVTZ-RI
    Molecular point group: c1

    Geometry (in Angstrom), charge = 0, multiplicity = 1:

       Center              X                  Y                   Z               Mass
    ------------   -----------------  -----------------  -----------------  -----------------
         O            1.057631580432     0.536911456663    -0.505338934734    15.994914619570
         O           -1.066338419568     0.536912456663     0.509497065266    15.994914619570
         C            1.704373580432    -0.236581543337     0.510858065266    12.000000000000
         C           -1.713074419568    -0.236591543337    -0.506694934734    12.000000000000
         C            0.033407180432     1.279122756663    -0.015964434734    12.000000000000
         C            2.868065580432    -0.952335543337    -0.139599934734    12.000000000000
         C           -2.876778419568    -0.952329543337     0.143762065266    12.000000000000
         H            2.049148580432     0.431606456663     1.314450065266     1.007825032230
         H            0.994874580432    -0.946477543337     0.951050065266     1.007825032230
         H           -2.057838419568     0.431587456663    -1.310299934734     1.007825032230
         H           -1.003576419568    -0.946498543337    -0.946868934734     1.007825032230
         H            0.325087580432     1.930558456663     0.842902065266     1.007825032230
         H           -0.333796419568     1.930553456663    -0.838750934734     1.007825032230
         H            3.401918580432    -1.561083543337     0.595801065266     1.007825032230
         H            2.509309580432    -1.604973543337    -0.938638934734     1.007825032230
         H            3.564642580432    -0.229698543337    -0.569868934734     1.007825032230
         H           -3.410626419568    -1.561084543337    -0.591635934734     1.007825032230
         H           -2.518035419568    -1.604956543337     0.942814065266     1.007825032230
         H           -3.573356419568    -0.229681543337     0.574012065266     1.007825032230

  Basis Set: AUG-CC-PVTZ
    Blend: AUG-CC-PVTZ
  Basis Set: (AUG-CC-PVTZ AUX)
    Blend: AUG-CC-PVTZ-JKFIT
	 Reference Energy          =    -346.1637758684989308 [Eh]
	 Singles Energy            =      -0.0000000000000000 [Eh]
	 Same-Spin Energy          =      -0.3396133407516483 [Eh]
	 Opposite-Spin Energy      =      -1.1623007744580454 [Eh]
	 Correlation Energy        =      -1.5019141152096938 [Eh]
	 Total Energy              =    -347.6656899837086030 [Eh]

	 ================> DF-SCS-MP2 Energies <==================
	-----------------------------------------------------------
	 SCS Same-Spin Scale       =       0.3333333333333333 [-]
	 SCS Opposite-Spin Scale   =       1.2000000000000000 [-]
	 SCS Same-Spin Energy      =      -0.1132044469172161 [Eh]
	 SCS Opposite-Spin Energy  =      -1.3947609293496543 [Eh]
	 SCS Correlation Energy    =      -1.5079653762668705 [Eh]
	 SCS Total Energy          =    -347.6717412447658262 [Eh]
	-----------------------------------------------------------

  Dipole Moment: [D]
     X:     0.3088      Y:    -0.5019      Z:    -0.0512     Total:     0.5914

*** Psi4 exiting successfully. Buy a developer a beer!
