                               Psi4 1.3.2 release

  ==> Input File <==

--------------------------------------------------------------------------
#psi4
#
memory 32 gb

molecule  {
0 1
  O        1.0620210     0.5679390    -0.5075070
  O       -1.0914107     0.6884086     0.4233923
  C        1.7088310    -0.2054710     0.5088440
  C       -1.7086770    -0.2057720    -0.5087890
  C       -0.0000550     1.3374600    -0.0000670
  C        2.8723760    -0.9214300    -0.1416400
  C       -2.8725180    -0.9212340     0.1416940
  H        2.0537520     0.4628900     1.3122050
  H        0.9992830    -0.9151760     0.9492220
  H       -2.0532400     0.4623650    -1.3124830
  H       -0.9991440    -0.9157750    -0.9486970
  H        0.3294190     1.9615920     0.8407020
  H       -0.3295380     1.9615190    -0.8408980
  H        3.4064450    -1.5299190     0.5938180
  H        2.5134590    -1.5743390    -0.9403860
  H        3.5688290    -0.1989250    -0.5723410
  H       -3.4064460    -1.5299900    -0.5936450
  H       -2.5139360    -1.5738270     0.9408480
  H       -3.5690030    -0.1984340     0.5718480
units angstrom
no_reorient  #important for SAPT in psi4, default
symmetry c1  #important for SAPT in psi4, default
}

set PROPERTIES_ORIGIN ["COM"]
properties('MP2/aug-cc-pvtz', properties = ['dipole'])
--------------------------------------------------------------------------

    Molecular point group: c1
  Charge       = 0
  Multiplicity = 1
  Basis Set: AUG-CC-PVTZ
    Blend: AUG-CC-PVTZ
  Basis Set: (AUG-CC-PVTZ AUX)
    Blend: AUG-CC-PVTZ-JKFIT

    Orbital Energies [Eh]
    ---------------------

    Doubly Occupied:

       1A    -20.557444     2A    -20.556854     3A    -11.316486
       4A    -11.277565     5A    -11.274068     6A    -11.218850
       7A    -11.214693     8A     -1.423727     9A     -1.349139
      10A     -1.038890    11A     -1.015337    12A     -0.899264
      13A     -0.850353    14A     -0.808668    15A     -0.697796
      16A     -0.692740    17A     -0.679602    18A     -0.623396
      19A     -0.616147    20A     -0.578953    21A     -0.544581
      22A     -0.539626    23A     -0.528593    24A     -0.513691
      25A     -0.505722    26A     -0.498204    27A     -0.457769
      28A     -0.438046    29A     -0.425436

  @DF-RHF Final Energy:  -346.16130316200923

   => Energetics <=

    Nuclear Repulsion Energy =            333.0383627057521494
    One-Electron Energy =               -1132.1160522321017652
    Two-Electron Energy =                 452.9163863643403261
    Total Energy =                       -346.1613031620092329
  Basis Set: (AUG-CC-PVTZ AUX)
    Blend: AUG-CC-PVTZ-RI
    Molecular point group: c1

    Geometry (in Angstrom), charge = 0, multiplicity = 1:

       Center              X                  Y                   Z               Mass
    ------------   -----------------  -----------------  -----------------  -----------------
         O            1.066543538565     0.515272620251    -0.494587507786    15.994914619570
         O           -1.086888161435     0.635742220251     0.436311792214    15.994914619570
         C            1.713353538565    -0.258137379749     0.521763492214    12.000000000000
         C           -1.704154461435    -0.258438379749    -0.495869507786    12.000000000000
         C            0.004467538565     1.284793620251     0.012852492214    12.000000000000
         C            2.876898538565    -0.974096379749    -0.128720507786    12.000000000000
         C           -2.867995461435    -0.973900379749     0.154613492214    12.000000000000
         H            2.058274538565     0.410223620251     1.325124492214     1.007825032230
         H            1.003805538565    -0.967842379749     0.962141492214     1.007825032230
         H           -2.048717461435     0.409698620251    -1.299563507786     1.007825032230
         H           -0.994621461435    -0.968441379749    -0.935777507786     1.007825032230
         H            0.333941538565     1.908925620251     0.853621492214     1.007825032230
         H           -0.325015461435     1.908852620251    -0.827978507786     1.007825032230
         H            3.410967538565    -1.582585379749     0.606737492214     1.007825032230
         H            2.517981538565    -1.627005379749    -0.927466507786     1.007825032230
         H            3.573351538565    -0.251591379749    -0.559421507786     1.007825032230
         H           -3.401923461435    -1.582656379749    -0.580725507786     1.007825032230
         H           -2.509413461435    -1.626493379749     0.953767492214     1.007825032230
         H           -3.564480461435    -0.251100379749     0.584767492214     1.007825032230

  Basis Set: AUG-CC-PVTZ
    Blend: AUG-CC-PVTZ
  Basis Set: (AUG-CC-PVTZ AUX)
    Blend: AUG-CC-PVTZ-JKFIT
	 Reference Energy          =    -346.1613031620092329 [Eh]
	 Singles Energy            =      -0.0000000000000000 [Eh]
	 Same-Spin Energy          =      -0.3390661897810562 [Eh]
	 Opposite-Spin Energy      =      -1.1605198546929005 [Eh]
	 Correlation Energy        =      -1.4995860444739568 [Eh]
	 Total Energy              =    -347.6608892064832048 [Eh]

	 ================> DF-SCS-MP2 Energies <==================
	-----------------------------------------------------------
	 SCS Same-Spin Scale       =       0.3333333333333333 [-]
	 SCS Opposite-Spin Scale   =       1.2000000000000000 [-]
	 SCS Same-Spin Energy      =      -0.1130220632603521 [Eh]
	 SCS Opposite-Spin Energy  =      -1.3926238256314807 [Eh]
	 SCS Correlation Energy    =      -1.5056458888918327 [Eh]
	 SCS Total Energy          =    -347.6669490509010529 [Eh]
	-----------------------------------------------------------

  Dipole Moment: [D]
     X:    -0.1247      Y:    -0.7534      Z:     0.1974     Total:     0.7888

*** Psi4 exiting successfully. Buy a developer a beer!
