                               Psi4 1.3.2 release

  ==> Input File <==

--------------------------------------------------------------------------
#psi4
#
memory 32 gb

molecule  {
0 1
  O        1.0620210     0.5679390    -0.5075070
  O       -1.1649995     0.5147692     0.6024148
  C        1.7088310    -0.2054710     0.5088440
  C       -1.7086770    -0.2057720    -0.5087890
  C       -0.0000550     1.3374600    -0.0000670
  C        2.8723760    -0.9214300    -0.1416400
  C       -2.8725180    -0.9212340     0.1416940
  H        2.0537520     0.4628900     1.3122050
  H        0.9992830    -0.9151760     0.9492220
  H       -2.0532400     0.4623650    -1.3124830
  H       -0.9991440    -0.9157750    -0.9486970
  H        0.3294190     1.9615920     0.8407020
  H       -0.3295380     1.9615190    -0.8408980
  H        3.4064450    -1.5299190     0.5938180
  H        2.5134590    -1.5743390    -0.9403860
  H        3.5688290    -0.1989250    -0.5723410
  H       -3.4064460    -1.5299900    -0.5936450
  H       -2.5139360    -1.5738270     0.9408480
  H       -3.5690030    -0.1984340     0.5718480
units angstrom
no_reorient  #important for SAPT in psi4, default
symmetry c1  #important for SAPT in psi4, default
}

set PROPERTIES_ORIGIN ["COM"]
properties('MP2/aug-cc-pvtz', properties = ['dipole'])
--------------------------------------------------------------------------

    Molecular point group: c1
  Charge       = 0
  Multiplicity = 1
  Basis Set: AUG-CC-PVTZ
    Blend: AUG-CC-PVTZ
  Basis Set: (AUG-CC-PVTZ AUX)
    Blend: AUG-CC-PVTZ-JKFIT

    Orbital Energies [Eh]
    ---------------------

    Doubly Occupied:

       1A    -20.572032     2A    -20.561956     3A    -11.336998
       4A    -11.277963     5A    -11.267102     6A    -11.217576
       7A    -11.205955     8A     -1.397663     9A     -1.328996
      10A     -1.031540    11A     -1.002963    12A     -0.897734
      13A     -0.841069    14A     -0.818050    15A     -0.684576
      16A     -0.673738    17A     -0.666396    18A     -0.620662
      19A     -0.612671    20A     -0.578698    21A     -0.538259
      22A     -0.530901    23A     -0.523412    24A     -0.514428
      25A     -0.501354    26A     -0.485533    27A     -0.473232
      28A     -0.439085    29A     -0.432568

  @DF-RHF Final Energy:  -346.14403810483884

   => Energetics <=

    Nuclear Repulsion Energy =            329.9352011914503464
    One-Electron Energy =               -1126.0922588063394869
    Two-Electron Energy =                 450.0130195100502988
    Total Energy =                       -346.1440381048388417
  Basis Set: (AUG-CC-PVTZ AUX)
    Blend: AUG-CC-PVTZ-RI
    Molecular point group: c1

    Geometry (in Angstrom), charge = 0, multiplicity = 1:

       Center              X                  Y                   Z               Mass
    ------------   -----------------  -----------------  -----------------  -----------------
         O            1.077852189563     0.541956400584    -0.522098528123    15.994914619570
         O           -1.149168310437     0.488786600584     0.587823271877    15.994914619570
         C            1.724662189563    -0.231453599416     0.494252471877    12.000000000000
         C           -1.692845810437    -0.231754599416    -0.523380528123    12.000000000000
         C            0.015776189563     1.311477400584    -0.014658528123    12.000000000000
         C            2.888207189563    -0.947412599416    -0.156231528123    12.000000000000
         C           -2.856686810437    -0.947216599416     0.127102471877    12.000000000000
         H            2.069583189563     0.436907400584     1.297613471877     1.007825032230
         H            1.015114189563    -0.941158599416     0.934630471877     1.007825032230
         H           -2.037408810437     0.436382400584    -1.327074528123     1.007825032230
         H           -0.983312810437    -0.941757599416    -0.963288528123     1.007825032230
         H            0.345250189563     1.935609400584     0.826110471877     1.007825032230
         H           -0.313706810437     1.935536400584    -0.855489528123     1.007825032230
         H            3.422276189563    -1.555901599416     0.579226471877     1.007825032230
         H            2.529290189563    -1.600321599416    -0.954977528123     1.007825032230
         H            3.584660189563    -0.224907599416    -0.586932528123     1.007825032230
         H           -3.390614810437    -1.555972599416    -0.608236528123     1.007825032230
         H           -2.498104810437    -1.599809599416     0.926256471877     1.007825032230
         H           -3.553171810437    -0.224416599416     0.557256471877     1.007825032230

  Basis Set: AUG-CC-PVTZ
    Blend: AUG-CC-PVTZ
  Basis Set: (AUG-CC-PVTZ AUX)
    Blend: AUG-CC-PVTZ-JKFIT
	 Reference Energy          =    -346.1440381048388417 [Eh]
	 Singles Energy            =      -0.0000000000000000 [Eh]
	 Same-Spin Energy          =      -0.3412808320963882 [Eh]
	 Opposite-Spin Energy      =      -1.1684573415960726 [Eh]
	 Correlation Energy        =      -1.5097381736924609 [Eh]
	 Total Energy              =    -347.6537762785313248 [Eh]

	 ================> DF-SCS-MP2 Energies <==================
	-----------------------------------------------------------
	 SCS Same-Spin Scale       =       0.3333333333333333 [-]
	 SCS Opposite-Spin Scale   =       1.2000000000000000 [-]
	 SCS Same-Spin Energy      =      -0.1137602773654627 [Eh]
	 SCS Opposite-Spin Energy  =      -1.4021488099152870 [Eh]
	 SCS Correlation Energy    =      -1.5159090872807497 [Eh]
	 SCS Total Energy          =    -347.6599471921196027 [Eh]
	-----------------------------------------------------------

  Dipole Moment: [D]
     X:     0.6271      Y:    -0.1410      Z:    -0.1960     Total:     0.6720

*** Psi4 exiting successfully. Buy a developer a beer!
