                               Psi4 1.4a3.dev225

  ==> Input File <==

--------------------------------------------------------------------------
#psi4
#
memory 32 gb

molecule  {
0 1
  O        1.0619850     0.5679060    -0.5074190
  O       -1.0619850     0.5679070     0.5074170
  C        1.6861375    -0.1785703     0.4732841
  C       -1.7087210    -0.2055970    -0.5087750
  C        0.0000010     1.3374800    -0.0000030
  C        2.8724190    -0.9213410    -0.1416800
  C       -2.8724250    -0.9213350     0.1416820
  H        2.0535020     0.4626010     1.3123700
  H        0.9992280    -0.9154830     0.9489700
  H       -2.0534850     0.4625820    -1.3123800
  H       -0.9992230    -0.9155040    -0.9489490
  H        0.3294410     1.9615530     0.8408220
  H       -0.3294430     1.9615480    -0.8408310
  H        3.4062720    -1.5300890     0.5937210
  H        2.5136630    -1.5739790    -0.9407190
  H        3.5689960    -0.1987040    -0.5719490
  H       -3.4062730    -1.5300900    -0.5937160
  H       -2.5136820    -1.5739620     0.9407340
  H       -3.5690030    -0.1986870     0.5719320
units angstrom
no_reorient  #important for SAPT in psi4, default
symmetry c1  #important for SAPT in psi4, default
}

set PROPERTIES_ORIGIN ["COM"]
properties('MP2/aug-cc-pvtz', properties = ['dipole'])
--------------------------------------------------------------------------

    Molecular point group: c1
  Charge       = 0
  Multiplicity = 1
  Basis Set: AUG-CC-PVTZ
    Blend: AUG-CC-PVTZ
  Basis Set: (AUG-CC-PVTZ AUX)
    Blend: AUG-CC-PVTZ-JKFIT

    Orbital Energies [Eh]
    ---------------------

    Doubly Occupied:

       1A    -20.564071     2A    -20.561210     3A    -11.327104
       4A    -11.274700     5A    -11.273656     6A    -11.215087
       7A    -11.213072     8A     -1.420928     9A     -1.351851
      10A     -1.033025    11A     -1.009317    12A     -0.901316
      13A     -0.848232    14A     -0.809993    15A     -0.696991
      16A     -0.690055    17A     -0.675406    18A     -0.622780
      19A     -0.615580    20A     -0.583365    21A     -0.540351
      22A     -0.538352    23A     -0.527292    24A     -0.517036
      25A     -0.498435    26A     -0.491260    27A     -0.463314
      28A     -0.438789    29A     -0.430139

  @DF-RHF Final Energy:  -346.16449411257526

   => Energetics <=

    Nuclear Repulsion Energy =            333.2888301222303085
    One-Electron Energy =               -1132.6412357504245847
    Two-Electron Energy =                 453.1879115156189641
    Total Energy =                       -346.1644941125752553
  Basis Set: (AUG-CC-PVTZ AUX)
    Blend: AUG-CC-PVTZ-RI
    Molecular point group: c1

    Geometry (in Angstrom), charge = 0, multiplicity = 1:

       Center              X                  Y                   Z               Mass
    ------------   -----------------  -----------------  -----------------  -----------------
         O            1.064589336487     0.530641958036    -0.503326816215    15.994914619570
         O           -1.059380663513     0.530642958036     0.511509183785    15.994914619570
         C            1.688741836487    -0.215834341964     0.477376283785    12.000000000000
         C           -1.706116663513    -0.242861041964    -0.504682816215    12.000000000000
         C            0.002605336487     1.300215958036     0.004089183785    12.000000000000
         C            2.875023336487    -0.958605041964    -0.137587816215    12.000000000000
         C           -2.869820663513    -0.958599041964     0.145774183785    12.000000000000
         H            2.056106336487     0.425336958036     1.316462183785     1.007825032230
         H            1.001832336487    -0.952747041964     0.953062183785     1.007825032230
         H           -2.050880663513     0.425317958036    -1.308287816215     1.007825032230
         H           -0.996618663513    -0.952768041964    -0.944856816215     1.007825032230
         H            0.332045336487     1.924288958036     0.844914183785     1.007825032230
         H           -0.326838663513     1.924283958036    -0.836738816215     1.007825032230
         H            3.408876336487    -1.567353041964     0.597813183785     1.007825032230
         H            2.516267336487    -1.611243041964    -0.936626816215     1.007825032230
         H            3.571600336487    -0.235968041964    -0.567856816215     1.007825032230
         H           -3.403668663513    -1.567354041964    -0.589623816215     1.007825032230
         H           -2.511077663513    -1.611226041964     0.944826183785     1.007825032230
         H           -3.566398663513    -0.235951041964     0.576024183785     1.007825032230

  Basis Set: AUG-CC-PVTZ
    Blend: AUG-CC-PVTZ
  Basis Set: (AUG-CC-PVTZ AUX)
    Blend: AUG-CC-PVTZ-JKFIT
	 Reference Energy          =    -346.1644941125752553 [Eh]
	 Singles Energy            =      -0.0000000000000000 [Eh]
	 Same-Spin Energy          =      -0.3393991547226088 [Eh]
	 Opposite-Spin Energy      =      -1.1617938227600546 [Eh]
	 Correlation Energy        =      -1.5011929774826633 [Eh]
	 Total Energy              =    -347.6656870900579293 [Eh]

	 ================> DF-SCS-MP2 Energies <==================
	-----------------------------------------------------------
	 SCS Same-Spin Scale       =       0.3333333333333333 [-]
	 SCS Opposite-Spin Scale   =       1.2000000000000000 [-]
	 SCS Same-Spin Energy      =      -0.1131330515742029 [Eh]
	 SCS Opposite-Spin Energy  =      -1.3941525873120655 [Eh]
	 SCS Correlation Energy    =      -1.5072856388862683 [Eh]
	 SCS Total Energy          =    -347.6717797514615427 [Eh]
	-----------------------------------------------------------

  Dipole Moment: [D]
     X:    -0.1462      Y:    -0.2761      Z:    -0.1050     Total:     0.3296

*** Psi4 exiting successfully. Buy a developer a beer!
