                               Psi4 1.3.2 release

  ==> Input File <==

--------------------------------------------------------------------------
#psi4
#
memory 32 gb

molecule  {
0 1
  O        1.0620210     0.5679390    -0.5075070
  O       -1.0619730     0.5678990     0.5074520
  C        1.7991925    -0.3135189     0.6508315
  C       -1.7086770    -0.2057720    -0.5087890
  C       -0.0000550     1.3374600    -0.0000670
  C        2.8723760    -0.9214300    -0.1416400
  C       -2.8725180    -0.9212340     0.1416940
  H        2.0537520     0.4628900     1.3122050
  H        0.9992830    -0.9151760     0.9492220
  H       -2.0532400     0.4623650    -1.3124830
  H       -0.9991440    -0.9157750    -0.9486970
  H        0.3294190     1.9615920     0.8407020
  H       -0.3295380     1.9615190    -0.8408980
  H        3.4064450    -1.5299190     0.5938180
  H        2.5134590    -1.5743390    -0.9403860
  H        3.5688290    -0.1989250    -0.5723410
  H       -3.4064460    -1.5299900    -0.5936450
  H       -2.5139360    -1.5738270     0.9408480
  H       -3.5690030    -0.1984340     0.5718480
units angstrom
no_reorient  #important for SAPT in psi4, default
symmetry c1  #important for SAPT in psi4, default
}

set PROPERTIES_ORIGIN ["COM"]
properties('MP2/aug-cc-pvtz', properties = ['dipole'])
--------------------------------------------------------------------------

    Molecular point group: c1
  Charge       = 0
  Multiplicity = 1
  Basis Set: AUG-CC-PVTZ
    Blend: AUG-CC-PVTZ
  Basis Set: (AUG-CC-PVTZ AUX)
    Blend: AUG-CC-PVTZ-JKFIT

    Orbital Energies [Eh]
    ---------------------

    Doubly Occupied:

       1A    -20.551503     2A    -20.537329     3A    -11.311179
       4A    -11.281991     5A    -11.268289     6A    -11.221951
       7A    -11.211332     8A     -1.387227     9A     -1.299939
      10A     -1.045306    11A     -1.015180    12A     -0.881245
      13A     -0.852070    14A     -0.812770    15A     -0.682912
      16A     -0.664616    17A     -0.660115    18A     -0.633746
      19A     -0.607789    20A     -0.576059    21A     -0.548428
      22A     -0.530653    23A     -0.528766    24A     -0.511399
      25A     -0.506117    26A     -0.488306    27A     -0.440453
      28A     -0.431788    29A     -0.425301

  @DF-RHF Final Energy:  -346.13499941673416

   => Energetics <=

    Nuclear Repulsion Energy =            329.7834338608624307
    One-Electron Energy =               -1126.0093500104130726
    Two-Electron Energy =                 450.0909167328164244
    Total Energy =                       -346.1349994167341606
  Basis Set: (AUG-CC-PVTZ AUX)
    Blend: AUG-CC-PVTZ-RI
    Molecular point group: c1

    Geometry (in Angstrom), charge = 0, multiplicity = 1:

       Center              X                  Y                   Z               Mass
    ------------   -----------------  -----------------  -----------------  -----------------
         O            1.051601803640     0.546248792746    -0.523875252714    15.994914619570
         O           -1.072392196360     0.546208792746     0.491083747286    15.994914619570
         C            1.788773303640    -0.335209107254     0.634463247286    12.000000000000
         C           -1.719096196360    -0.227462207254    -0.525157252714    12.000000000000
         C           -0.010474196360     1.315769792746    -0.016435252714    12.000000000000
         C            2.861956803640    -0.943120207254    -0.158008252714    12.000000000000
         C           -2.882937196360    -0.942924207254     0.125325747286    12.000000000000
         H            2.043332803640     0.441199792746     1.295836747286     1.007825032230
         H            0.988863803640    -0.936866207254     0.932853747286     1.007825032230
         H           -2.063659196360     0.440674792746    -1.328851252714     1.007825032230
         H           -1.009563196360    -0.937465207254    -0.965065252714     1.007825032230
         H            0.318999803640     1.939901792746     0.824333747286     1.007825032230
         H           -0.339957196360     1.939828792746    -0.857266252714     1.007825032230
         H            3.396025803640    -1.551609207254     0.577449747286     1.007825032230
         H            2.503039803640    -1.596029207254    -0.956754252714     1.007825032230
         H            3.558409803640    -0.220615207254    -0.588709252714     1.007825032230
         H           -3.416865196360    -1.551680207254    -0.610013252714     1.007825032230
         H           -2.524355196360    -1.595517207254     0.924479747286     1.007825032230
         H           -3.579422196360    -0.220124207254     0.555479747286     1.007825032230

  Basis Set: AUG-CC-PVTZ
    Blend: AUG-CC-PVTZ
  Basis Set: (AUG-CC-PVTZ AUX)
    Blend: AUG-CC-PVTZ-JKFIT
	 Reference Energy          =    -346.1349994167341606 [Eh]
	 Singles Energy            =      -0.0000000000000000 [Eh]
	 Same-Spin Energy          =      -0.3410357592732549 [Eh]
	 Opposite-Spin Energy      =      -1.1672359839867599 [Eh]
	 Correlation Energy        =      -1.5082717432600148 [Eh]
	 Total Energy              =    -347.6432711599941854 [Eh]

	 ================> DF-SCS-MP2 Energies <==================
	-----------------------------------------------------------
	 SCS Same-Spin Scale       =       0.3333333333333333 [-]
	 SCS Opposite-Spin Scale   =       1.2000000000000000 [-]
	 SCS Same-Spin Energy      =      -0.1136785864244183 [Eh]
	 SCS Opposite-Spin Energy  =      -1.4006831807841118 [Eh]
	 SCS Correlation Energy    =      -1.5143617672085301 [Eh]
	 SCS Total Energy          =    -347.6493611839426876 [Eh]
	-----------------------------------------------------------

  Dipole Moment: [D]
     X:     0.5095      Y:    -0.7507      Z:     0.3140     Total:     0.9600

*** Psi4 exiting successfully. Buy a developer a beer!
