                               Psi4 1.3.2 release

  ==> Input File <==

--------------------------------------------------------------------------
#psi4
#
memory 32 gb

molecule  {
0 1
  O        1.0620210     0.5679390    -0.5075070
  O       -1.0619730     0.5678990     0.5074520
  C        1.6109032    -0.1459626     0.6054028
  C       -1.7086770    -0.2057720    -0.5087890
  C       -0.0000550     1.3374600    -0.0000670
  C        2.8723760    -0.9214300    -0.1416400
  C       -2.8725180    -0.9212340     0.1416940
  H        2.0537520     0.4628900     1.3122050
  H        0.9992830    -0.9151760     0.9492220
  H       -2.0532400     0.4623650    -1.3124830
  H       -0.9991440    -0.9157750    -0.9486970
  H        0.3294190     1.9615920     0.8407020
  H       -0.3295380     1.9615190    -0.8408980
  H        3.4064450    -1.5299190     0.5938180
  H        2.5134590    -1.5743390    -0.9403860
  H        3.5688290    -0.1989250    -0.5723410
  H       -3.4064460    -1.5299900    -0.5936450
  H       -2.5139360    -1.5738270     0.9408480
  H       -3.5690030    -0.1984340     0.5718480
units angstrom
no_reorient  #important for SAPT in psi4, default
symmetry c1  #important for SAPT in psi4, default
}

set PROPERTIES_ORIGIN ["COM"]
properties('MP2/aug-cc-pvtz', properties = ['dipole'])
--------------------------------------------------------------------------

    Molecular point group: c1
  Charge       = 0
  Multiplicity = 1
  Basis Set: AUG-CC-PVTZ
    Blend: AUG-CC-PVTZ
  Basis Set: (AUG-CC-PVTZ AUX)
    Blend: AUG-CC-PVTZ-JKFIT

    Orbital Energies [Eh]
    ---------------------

    Doubly Occupied:

       1A    -20.564729     2A    -20.560352     3A    -11.323123
       4A    -11.274428     5A    -11.270146     6A    -11.215489
       7A    -11.215164     8A     -1.414344     9A     -1.344039
      10A     -1.027425    11A     -0.994925    12A     -0.892703
      13A     -0.856046    14A     -0.820110    15A     -0.698214
      16A     -0.682876    17A     -0.676052    18A     -0.627206
      19A     -0.616898    20A     -0.579802    21A     -0.536655
      22A     -0.533586    23A     -0.524337    24A     -0.518626
      25A     -0.504849    26A     -0.472868    27A     -0.456994
      28A     -0.447244    29A     -0.433156

  @DF-RHF Final Energy:  -346.14402397333390

   => Energetics <=

    Nuclear Repulsion Energy =            332.4664063792101842
    One-Electron Energy =               -1131.0560862008926506
    Two-Electron Energy =                 452.4456558483485651
    Total Energy =                       -346.1440239733339013
  Basis Set: (AUG-CC-PVTZ AUX)
    Blend: AUG-CC-PVTZ-RI
    Molecular point group: c1

    Geometry (in Angstrom), charge = 0, multiplicity = 1:

       Center              X                  Y                   Z               Mass
    ------------   -----------------  -----------------  -----------------  -----------------
         O            1.073310014982     0.526930926186    -0.518637696355    15.994914619570
         O           -1.050683985018     0.526890926186     0.496321303645    15.994914619570
         C            1.622192214982    -0.186970673814     0.594272103645    12.000000000000
         C           -1.697387985018    -0.246780073814    -0.519919696355    12.000000000000
         C            0.011234014982     1.296451926186    -0.011197696355    12.000000000000
         C            2.883665014982    -0.962438073814    -0.152770696355    12.000000000000
         C           -2.861228985018    -0.962242073814     0.130563303645    12.000000000000
         H            2.065041014982     0.421881926186     1.301074303645     1.007825032230
         H            1.010572014982    -0.956184073814     0.938091303645     1.007825032230
         H           -2.041950985018     0.421356926186    -1.323613696355     1.007825032230
         H           -0.987854985018    -0.956783073814    -0.959827696355     1.007825032230
         H            0.340708014982     1.920583926186     0.829571303645     1.007825032230
         H           -0.318248985018     1.920510926186    -0.852028696355     1.007825032230
         H            3.417734014982    -1.570927073814     0.582687303645     1.007825032230
         H            2.524748014982    -1.615347073814    -0.951516696355     1.007825032230
         H            3.580118014982    -0.239933073814    -0.583471696355     1.007825032230
         H           -3.395156985018    -1.570998073814    -0.604775696355     1.007825032230
         H           -2.502646985018    -1.614835073814     0.929717303645     1.007825032230
         H           -3.557713985018    -0.239442073814     0.560717303645     1.007825032230

  Basis Set: AUG-CC-PVTZ
    Blend: AUG-CC-PVTZ
  Basis Set: (AUG-CC-PVTZ AUX)
    Blend: AUG-CC-PVTZ-JKFIT
	 Reference Energy          =    -346.1440239733339013 [Eh]
	 Singles Energy            =      -0.0000000000000000 [Eh]
	 Same-Spin Energy          =      -0.3397403208069888 [Eh]
	 Opposite-Spin Energy      =      -1.1641496143658450 [Eh]
	 Correlation Energy        =      -1.5038899351728339 [Eh]
	 Total Energy              =    -347.6479139085067231 [Eh]

	 ================> DF-SCS-MP2 Energies <==================
	-----------------------------------------------------------
	 SCS Same-Spin Scale       =       0.3333333333333333 [-]
	 SCS Opposite-Spin Scale   =       1.2000000000000000 [-]
	 SCS Same-Spin Energy      =      -0.1132467736023296 [Eh]
	 SCS Opposite-Spin Energy  =      -1.3969795372390139 [Eh]
	 SCS Correlation Energy    =      -1.5102263108413436 [Eh]
	 SCS Total Energy          =    -347.6542502841752480 [Eh]
	-----------------------------------------------------------

  Dipole Moment: [D]
     X:    -0.1787      Y:    -0.2591      Z:     0.0923     Total:     0.3280

*** Psi4 exiting successfully. Buy a developer a beer!
