                               Psi4 1.3.2 release

  ==> Input File <==

--------------------------------------------------------------------------
#psi4
#
memory 32 gb

molecule  {
0 1
  O        1.0620210     0.5679390    -0.5075070
  O       -0.9660319     0.6125523     0.4013551
  C        1.7088310    -0.2054710     0.5088440
  C       -1.7086770    -0.2057720    -0.5087890
  C       -0.0000550     1.3374600    -0.0000670
  C        2.8723760    -0.9214300    -0.1416400
  C       -2.8725180    -0.9212340     0.1416940
  H        2.0537520     0.4628900     1.3122050
  H        0.9992830    -0.9151760     0.9492220
  H       -2.0532400     0.4623650    -1.3124830
  H       -0.9991440    -0.9157750    -0.9486970
  H        0.3294190     1.9615920     0.8407020
  H       -0.3295380     1.9615190    -0.8408980
  H        3.4064450    -1.5299190     0.5938180
  H        2.5134590    -1.5743390    -0.9403860
  H        3.5688290    -0.1989250    -0.5723410
  H       -3.4064460    -1.5299900    -0.5936450
  H       -2.5139360    -1.5738270     0.9408480
  H       -3.5690030    -0.1984340     0.5718480
units angstrom
no_reorient  #important for SAPT in psi4, default
symmetry c1  #important for SAPT in psi4, default
}

set PROPERTIES_ORIGIN ["COM"]
properties('MP2/aug-cc-pvtz', properties = ['dipole'])
--------------------------------------------------------------------------

    Molecular point group: c1
  Charge       = 0
  Multiplicity = 1
  Basis Set: AUG-CC-PVTZ
    Blend: AUG-CC-PVTZ
  Basis Set: (AUG-CC-PVTZ AUX)
    Blend: AUG-CC-PVTZ-JKFIT

    Orbital Energies [Eh]
    ---------------------

    Doubly Occupied:

       1A    -20.553175     2A    -20.544799     3A    -11.310647
       4A    -11.282676     5A    -11.268630     6A    -11.223642
       7A    -11.210926     8A     -1.447041     9A     -1.342573
      10A     -1.045655    11A     -1.012526    12A     -0.904594
      13A     -0.850726    14A     -0.803944    15A     -0.708367
      16A     -0.697166    17A     -0.683534    18A     -0.624410
      19A     -0.619797    20A     -0.574669    21A     -0.550761
      22A     -0.539572    23A     -0.528438    24A     -0.514702
      25A     -0.505321    26A     -0.495372    27A     -0.442451
      28A     -0.431782    29A     -0.428405

  @DF-RHF Final Energy:  -346.15458849965415

   => Energetics <=

    Nuclear Repulsion Energy =            335.5161235169151723
    One-Electron Energy =               -1137.0488211627759938
    Two-Electron Energy =                 455.3781091462066684
    Total Energy =                       -346.1545884996541531
  Basis Set: (AUG-CC-PVTZ AUX)
    Blend: AUG-CC-PVTZ-RI
    Molecular point group: c1

    Geometry (in Angstrom), charge = 0, multiplicity = 1:

       Center              X                  Y                   Z               Mass
    ------------   -----------------  -----------------  -----------------  -----------------
         O            1.047276135213     0.526929725989    -0.491200973371    15.994914619570
         O           -0.980776764787     0.571543025989     0.417661126629    15.994914619570
         C            1.694086135213    -0.246480274011     0.525150026629    12.000000000000
         C           -1.723421864787    -0.246781274011    -0.492482973371    12.000000000000
         C           -0.014799864787     1.296450725989     0.016239026629    12.000000000000
         C            2.857631135213    -0.962439274011    -0.125333973371    12.000000000000
         C           -2.887262864787    -0.962243274011     0.158000026629    12.000000000000
         H            2.039007135213     0.421880725989     1.328511026629     1.007825032230
         H            0.984538135213    -0.956185274011     0.965528026629     1.007825032230
         H           -2.067984864787     0.421355725989    -1.296176973371     1.007825032230
         H           -1.013888864787    -0.956784274011    -0.932390973371     1.007825032230
         H            0.314674135213     1.920582725989     0.857008026629     1.007825032230
         H           -0.344282864787     1.920509725989    -0.824591973371     1.007825032230
         H            3.391700135213    -1.570928274011     0.610124026629     1.007825032230
         H            2.498714135213    -1.615348274011    -0.924079973371     1.007825032230
         H            3.554084135213    -0.239934274011    -0.556034973371     1.007825032230
         H           -3.421190864787    -1.570999274011    -0.577338973371     1.007825032230
         H           -2.528680864787    -1.614836274011     0.957154026629     1.007825032230
         H           -3.583747864787    -0.239443274011     0.588154026629     1.007825032230

  Basis Set: AUG-CC-PVTZ
    Blend: AUG-CC-PVTZ
  Basis Set: (AUG-CC-PVTZ AUX)
    Blend: AUG-CC-PVTZ-JKFIT
	 Reference Energy          =    -346.1545884996541531 [Eh]
	 Singles Energy            =      -0.0000000000000000 [Eh]
	 Same-Spin Energy          =      -0.3388363410730537 [Eh]
	 Opposite-Spin Energy      =      -1.1587303721698521 [Eh]
	 Correlation Energy        =      -1.4975667132429058 [Eh]
	 Total Energy              =    -347.6521552128970711 [Eh]

	 ================> DF-SCS-MP2 Energies <==================
	-----------------------------------------------------------
	 SCS Same-Spin Scale       =       0.3333333333333333 [-]
	 SCS Opposite-Spin Scale   =       1.2000000000000000 [-]
	 SCS Same-Spin Energy      =      -0.1129454470243512 [Eh]
	 SCS Opposite-Spin Energy  =      -1.3904764466038224 [Eh]
	 SCS Correlation Energy    =      -1.5034218936281736 [Eh]
	 SCS Total Energy          =    -347.6580103932823249 [Eh]
	-----------------------------------------------------------

  Dipole Moment: [D]
     X:    -0.6980      Y:    -0.6765      Z:     0.2468     Total:     1.0029

*** Psi4 exiting successfully. Buy a developer a beer!
