                               Psi4 1.3.2 release

  ==> Input File <==

--------------------------------------------------------------------------
#psi4
#
memory 32 gb

molecule  {
0 1
  O        1.0620210     0.5679390    -0.5075070
  O       -1.0619730     0.5678990     0.5074520
  C        1.7540117    -0.2594949     0.5798378
  C       -1.7086770    -0.2057720    -0.5087890
  C       -0.0000550     1.3374600    -0.0000670
  C        2.8723760    -0.9214300    -0.1416400
  C       -2.8725180    -0.9212340     0.1416940
  H        2.0537520     0.4628900     1.3122050
  H        0.9992830    -0.9151760     0.9492220
  H       -2.0532400     0.4623650    -1.3124830
  H       -0.9991440    -0.9157750    -0.9486970
  H        0.3294190     1.9615920     0.8407020
  H       -0.3295380     1.9615190    -0.8408980
  H        3.4064450    -1.5299190     0.5938180
  H        2.5134590    -1.5743390    -0.9403860
  H        3.5688290    -0.1989250    -0.5723410
  H       -3.4064460    -1.5299900    -0.5936450
  H       -2.5139360    -1.5738270     0.9408480
  H       -3.5690030    -0.1984340     0.5718480
units angstrom
no_reorient  #important for SAPT in psi4, default
symmetry c1  #important for SAPT in psi4, default
}

set PROPERTIES_ORIGIN ["COM"]
properties('MP2/aug-cc-pvtz', properties = ['dipole'])
--------------------------------------------------------------------------

    Molecular point group: c1
  Charge       = 0
  Multiplicity = 1
  Basis Set: AUG-CC-PVTZ
    Blend: AUG-CC-PVTZ
  Basis Set: (AUG-CC-PVTZ AUX)
    Blend: AUG-CC-PVTZ-JKFIT

    Orbital Energies [Eh]
    ---------------------

    Doubly Occupied:

       1A    -20.555305     2A    -20.548836     3A    -11.317446
       4A    -11.275780     5A    -11.270852     6A    -11.217559
       7A    -11.212859     8A     -1.396141     9A     -1.320120
      10A     -1.037284    11A     -1.015368    12A     -0.887952
      13A     -0.848559    14A     -0.813510    15A     -0.685708
      16A     -0.671345    17A     -0.667456    18A     -0.627128
      19A     -0.613440    20A     -0.572572    21A     -0.540129
      22A     -0.531465    23A     -0.529595    24A     -0.510982
      25A     -0.507351    26A     -0.494962    27A     -0.452929
      28A     -0.437853    29A     -0.431958

  @DF-RHF Final Energy:  -346.15614062942547

   => Energetics <=

    Nuclear Repulsion Energy =            331.1289050243556744
    One-Electron Energy =               -1128.5852013774019724
    Two-Electron Energy =                 451.3001557236208896
    Total Energy =                       -346.1561406294254652
  Basis Set: (AUG-CC-PVTZ AUX)
    Blend: AUG-CC-PVTZ-RI
    Molecular point group: c1

    Geometry (in Angstrom), charge = 0, multiplicity = 1:

       Center              X                  Y                   Z               Mass
    ------------   -----------------  -----------------  -----------------  -----------------
         O            1.056810779163     0.540020268823    -0.515690261620    15.994914619570
         O           -1.067183220837     0.539980268823     0.499268738380    15.994914619570
         C            1.748801479163    -0.287413631177     0.571654538380    12.000000000000
         C           -1.713887220837    -0.233690731177    -0.516972261620    12.000000000000
         C           -0.005265220837     1.309541268823    -0.008250261620    12.000000000000
         C            2.867165779163    -0.949348731177    -0.149823261620    12.000000000000
         C           -2.877728220837    -0.949152731177     0.133510738380    12.000000000000
         H            2.048541779163     0.434971268823     1.304021738380     1.007825032230
         H            0.994072779163    -0.943094731177     0.941038738380     1.007825032230
         H           -2.058450220837     0.434446268823    -1.320666261620     1.007825032230
         H           -1.004354220837    -0.943693731177    -0.956880261620     1.007825032230
         H            0.324208779163     1.933673268823     0.832518738380     1.007825032230
         H           -0.334748220837     1.933600268823    -0.849081261620     1.007825032230
         H            3.401234779163    -1.557837731177     0.585634738380     1.007825032230
         H            2.508248779163    -1.602257731177    -0.948569261620     1.007825032230
         H            3.563618779163    -0.226843731177    -0.580524261620     1.007825032230
         H           -3.411656220837    -1.557908731177    -0.601828261620     1.007825032230
         H           -2.519146220837    -1.601745731177     0.932664738380     1.007825032230
         H           -3.574213220837    -0.226352731177     0.563664738380     1.007825032230

  Basis Set: AUG-CC-PVTZ
    Blend: AUG-CC-PVTZ
  Basis Set: (AUG-CC-PVTZ AUX)
    Blend: AUG-CC-PVTZ-JKFIT
	 Reference Energy          =    -346.1561406294254652 [Eh]
	 Singles Energy            =      -0.0000000000000000 [Eh]
	 Same-Spin Energy          =      -0.3399979983402613 [Eh]
	 Opposite-Spin Energy      =      -1.1644502092474989 [Eh]
	 Correlation Energy        =      -1.5044482075877603 [Eh]
	 Total Energy              =    -347.6605888370132220 [Eh]

	 ================> DF-SCS-MP2 Energies <==================
	-----------------------------------------------------------
	 SCS Same-Spin Scale       =       0.3333333333333333 [-]
	 SCS Opposite-Spin Scale   =       1.2000000000000000 [-]
	 SCS Same-Spin Energy      =      -0.1133326661134204 [Eh]
	 SCS Opposite-Spin Energy  =      -1.3973402510969986 [Eh]
	 SCS Correlation Energy    =      -1.5106729172104190 [Eh]
	 SCS Total Energy          =    -347.6668135466358649 [Eh]
	-----------------------------------------------------------

  Dipole Moment: [D]
     X:     0.2685      Y:    -0.5772      Z:     0.1759     Total:     0.6604

*** Psi4 exiting successfully. Buy a developer a beer!
