                               Psi4 1.3.2 release

  ==> Input File <==

--------------------------------------------------------------------------
#psi4
#
memory 32 gb

molecule  {
0 1
  O        1.0620210     0.5679390    -0.5075070
  O       -1.0619730     0.5678990     0.5074520
  C        1.7088310    -0.2054710     0.5088440
  C       -1.7086770    -0.2057720    -0.5087890
  C       -0.0000550     1.3374600    -0.0000670
  C        2.8723760    -0.9214300    -0.1416400
  C       -2.8725180    -0.9212340     0.1416940
  H        2.0537520     0.4628900     1.3122050
  H        0.9992830    -0.9151760     0.9492220
  H       -2.0532400     0.4623650    -1.3124830
  H       -0.9991440    -0.9157750    -0.9486970
  H        0.3127325     2.0230632     0.7981176
  H       -0.3295380     1.9615190    -0.8408980
  H        3.4064450    -1.5299190     0.5938180
  H        2.5134590    -1.5743390    -0.9403860
  H        3.5688290    -0.1989250    -0.5723410
  H       -3.4064460    -1.5299900    -0.5936450
  H       -2.5139360    -1.5738270     0.9408480
  H       -3.5690030    -0.1984340     0.5718480
units angstrom
no_reorient  #important for SAPT in psi4, default
symmetry c1  #important for SAPT in psi4, default
}

set PROPERTIES_ORIGIN ["COM"]
properties('MP2/aug-cc-pvtz', properties = ['dipole'])
--------------------------------------------------------------------------

    Molecular point group: c1
  Charge       = 0
  Multiplicity = 1
  Basis Set: AUG-CC-PVTZ
    Blend: AUG-CC-PVTZ
  Basis Set: (AUG-CC-PVTZ AUX)
    Blend: AUG-CC-PVTZ-JKFIT

    Orbital Energies [Eh]
    ---------------------

    Doubly Occupied:

       1A    -20.559941     2A    -20.559781     3A    -11.323526
       4A    -11.273658     5A    -11.273302     6A    -11.214429
       7A    -11.214314     8A     -1.410014     9A     -1.341738
      10A     -1.033167    11A     -1.012218    12A     -0.897189
      13A     -0.847167    14A     -0.812013    15A     -0.693591
      16A     -0.683960    17A     -0.669020    18A     -0.623017
      19A     -0.617099    20A     -0.578161    21A     -0.537967
      22A     -0.537063    23A     -0.525540    24A     -0.516097
      25A     -0.502278    26A     -0.493849    27A     -0.460408
      28A     -0.437676    29A     -0.434827

  @DF-RHF Final Energy:  -346.16528965085269

   => Energetics <=

    Nuclear Repulsion Energy =            332.4422413740552997
    One-Electron Energy =               -1131.0490453417237404
    Two-Electron Energy =                 452.4415143168156987
    Total Energy =                       -346.1652896508526851
  Basis Set: (AUG-CC-PVTZ AUX)
    Blend: AUG-CC-PVTZ-RI
    Molecular point group: c1

    Geometry (in Angstrom), charge = 0, multiplicity = 1:

       Center              X                  Y                   Z               Mass
    ------------   -----------------  -----------------  -----------------  -----------------
         O            1.062181315695     0.533196541265    -0.507092921503    15.994914619570
         O           -1.061812684305     0.533156541265     0.507866078497    15.994914619570
         C            1.708991315695    -0.240213458735     0.509258078497    12.000000000000
         C           -1.708516684305    -0.240514458735    -0.508374921503    12.000000000000
         C            0.000105315695     1.302717541265     0.000347078497    12.000000000000
         C            2.872536315695    -0.956172458735    -0.141225921503    12.000000000000
         C           -2.872357684305    -0.955976458735     0.142108078497    12.000000000000
         H            2.053912315695     0.428147541265     1.312619078497     1.007825032230
         H            0.999443315695    -0.949918458735     0.949636078497     1.007825032230
         H           -2.053079684305     0.427622541265    -1.312068921503     1.007825032230
         H           -0.998983684305    -0.950517458735    -0.948282921503     1.007825032230
         H            0.312892815695     1.988320741265     0.798531678497     1.007825032230
         H           -0.329377684305     1.926776541265    -0.840483921503     1.007825032230
         H            3.406605315695    -1.564661458735     0.594232078497     1.007825032230
         H            2.513619315695    -1.609081458735    -0.939971921503     1.007825032230
         H            3.568989315695    -0.233667458735    -0.571926921503     1.007825032230
         H           -3.406285684305    -1.564732458735    -0.593230921503     1.007825032230
         H           -2.513775684305    -1.608569458735     0.941262078497     1.007825032230
         H           -3.568842684305    -0.233176458735     0.572262078497     1.007825032230

  Basis Set: AUG-CC-PVTZ
    Blend: AUG-CC-PVTZ
  Basis Set: (AUG-CC-PVTZ AUX)
    Blend: AUG-CC-PVTZ-JKFIT
	 Reference Energy          =    -346.1652896508526851 [Eh]
	 Singles Energy            =      -0.0000000000000000 [Eh]
	 Same-Spin Energy          =      -0.3393773443881335 [Eh]
	 Opposite-Spin Energy      =      -1.1623382608738526 [Eh]
	 Correlation Energy        =      -1.5017156052619862 [Eh]
	 Total Energy              =    -347.6670052561146917 [Eh]

	 ================> DF-SCS-MP2 Energies <==================
	-----------------------------------------------------------
	 SCS Same-Spin Scale       =       0.3333333333333333 [-]
	 SCS Opposite-Spin Scale   =       1.2000000000000000 [-]
	 SCS Same-Spin Energy      =      -0.1131257814627112 [Eh]
	 SCS Opposite-Spin Energy  =      -1.3948059130486230 [Eh]
	 SCS Correlation Energy    =      -1.5079316945113341 [Eh]
	 SCS Total Energy          =    -347.6732213453640270 [Eh]
	-----------------------------------------------------------

  Dipole Moment: [D]
     X:    -0.0035      Y:    -0.3650      Z:     0.0010     Total:     0.3650

*** Psi4 exiting successfully. Buy a developer a beer!
