                               Psi4 1.3.2 release

  ==> Input File <==

--------------------------------------------------------------------------
#psi4
#
memory 32 gb

molecule  {
0 1
  O        1.0620210     0.5679390    -0.5075070
  O       -1.0619730     0.5678990     0.5074520
  C        1.7088310    -0.2054710     0.5088440
  C       -1.7086770    -0.2057720    -0.5087890
  C       -0.0755780     1.3921798     0.0360165
  C        2.8723760    -0.9214300    -0.1416400
  C       -2.8725180    -0.9212340     0.1416940
  H        2.0537520     0.4628900     1.3122050
  H        0.9992830    -0.9151760     0.9492220
  H       -2.0532400     0.4623650    -1.3124830
  H       -0.9991440    -0.9157750    -0.9486970
  H        0.3294190     1.9615920     0.8407020
  H       -0.3295380     1.9615190    -0.8408980
  H        3.4064450    -1.5299190     0.5938180
  H        2.5134590    -1.5743390    -0.9403860
  H        3.5688290    -0.1989250    -0.5723410
  H       -3.4064460    -1.5299900    -0.5936450
  H       -2.5139360    -1.5738270     0.9408480
  H       -3.5690030    -0.1984340     0.5718480
units angstrom
no_reorient  #important for SAPT in psi4, default
symmetry c1  #important for SAPT in psi4, default
}

set PROPERTIES_ORIGIN ["COM"]
properties('MP2/aug-cc-pvtz', properties = ['dipole'])
--------------------------------------------------------------------------

    Molecular point group: c1
  Charge       = 0
  Multiplicity = 1
  Basis Set: AUG-CC-PVTZ
    Blend: AUG-CC-PVTZ
  Basis Set: (AUG-CC-PVTZ AUX)
    Blend: AUG-CC-PVTZ-JKFIT

    Orbital Energies [Eh]
    ---------------------

    Doubly Occupied:

       1A    -20.567928     2A    -20.543940     3A    -11.325919
       4A    -11.278657     5A    -11.265117     6A    -11.217565
       7A    -11.208822     8A     -1.409752     9A     -1.322498
      10A     -1.035396    11A     -1.005484    12A     -0.902687
      13A     -0.845122    14A     -0.810943    15A     -0.691893
      16A     -0.679666    17A     -0.674895    18A     -0.621413
      19A     -0.613283    20A     -0.573608    21A     -0.539544
      22A     -0.534575    23A     -0.526353    24A     -0.512339
      25A     -0.503119    26A     -0.494352    27A     -0.464397
      28A     -0.432743    29A     -0.426039

  @DF-RHF Final Energy:  -346.15751853056219

   => Energetics <=

    Nuclear Repulsion Energy =            331.5381664065743621
    One-Electron Energy =               -1129.3352748721531498
    Two-Electron Energy =                 451.6395899350165450
    Total Energy =                       -346.1575185305621858
  Basis Set: (AUG-CC-PVTZ AUX)
    Blend: AUG-CC-PVTZ-RI
    Molecular point group: c1

    Geometry (in Angstrom), charge = 0, multiplicity = 1:

       Center              X                  Y                   Z               Mass
    ------------   -----------------  -----------------  -----------------  -----------------
         O            1.070726925377     0.527483012475    -0.511665390475    15.994914619570
         O           -1.053267074623     0.527443012475     0.503293609525    15.994914619570
         C            1.717536925377    -0.245926987525     0.504685609525    12.000000000000
         C           -1.699971074623    -0.246227987525    -0.512947390475    12.000000000000
         C           -0.066872074623     1.351723812475     0.031858109525    12.000000000000
         C            2.881081925377    -0.961885987525    -0.145798390475    12.000000000000
         C           -2.863812074623    -0.961689987525     0.137535609525    12.000000000000
         H            2.062457925377     0.422434012475     1.308046609525     1.007825032230
         H            1.007988925377    -0.955631987525     0.945063609525     1.007825032230
         H           -2.044534074623     0.421909012475    -1.316641390475     1.007825032230
         H           -0.990438074623    -0.956230987525    -0.952855390475     1.007825032230
         H            0.338124925377     1.921136012475     0.836543609525     1.007825032230
         H           -0.320832074623     1.921063012475    -0.845056390475     1.007825032230
         H            3.415150925377    -1.570374987525     0.589659609525     1.007825032230
         H            2.522164925377    -1.614794987525    -0.944544390475     1.007825032230
         H            3.577534925377    -0.239380987525    -0.576499390475     1.007825032230
         H           -3.397740074623    -1.570445987525    -0.597803390475     1.007825032230
         H           -2.505230074623    -1.614282987525     0.936689609525     1.007825032230
         H           -3.560297074623    -0.238889987525     0.567689609525     1.007825032230

  Basis Set: AUG-CC-PVTZ
    Blend: AUG-CC-PVTZ
  Basis Set: (AUG-CC-PVTZ AUX)
    Blend: AUG-CC-PVTZ-JKFIT
	 Reference Energy          =    -346.1575185305621858 [Eh]
	 Singles Energy            =      -0.0000000000000000 [Eh]
	 Same-Spin Energy          =      -0.3397166045833102 [Eh]
	 Opposite-Spin Energy      =      -1.1636711291835242 [Eh]
	 Correlation Energy        =      -1.5033877337668344 [Eh]
	 Total Energy              =    -347.6609062643290144 [Eh]

	 ================> DF-SCS-MP2 Energies <==================
	-----------------------------------------------------------
	 SCS Same-Spin Scale       =       0.3333333333333333 [-]
	 SCS Opposite-Spin Scale   =       1.2000000000000000 [-]
	 SCS Same-Spin Energy      =      -0.1132388681944367 [Eh]
	 SCS Opposite-Spin Energy  =      -1.3964053550202291 [Eh]
	 SCS Correlation Energy    =      -1.5096442232146658 [Eh]
	 SCS Total Energy          =    -347.6671627537768359 [Eh]
	-----------------------------------------------------------

  Dipole Moment: [D]
     X:    -0.5932      Y:    -0.1792      Z:     0.0938     Total:     0.6267

*** Psi4 exiting successfully. Buy a developer a beer!
