                               Psi4 1.3.2 release

  ==> Input File <==

--------------------------------------------------------------------------
#psi4
#
memory 32 gb

molecule  {
0 1
  O        1.0620210     0.5679390    -0.5075070
  O       -1.0619730     0.5678990     0.5074520
  C        1.6442685    -0.1667019     0.5745218
  C       -1.7086770    -0.2057720    -0.5087890
  C       -0.0000550     1.3374600    -0.0000670
  C        2.8723760    -0.9214300    -0.1416400
  C       -2.8725180    -0.9212340     0.1416940
  H        2.0537520     0.4628900     1.3122050
  H        0.9992830    -0.9151760     0.9492220
  H       -2.0532400     0.4623650    -1.3124830
  H       -0.9991440    -0.9157750    -0.9486970
  H        0.3294190     1.9615920     0.8407020
  H       -0.3295380     1.9615190    -0.8408980
  H        3.4064450    -1.5299190     0.5938180
  H        2.5134590    -1.5743390    -0.9403860
  H        3.5688290    -0.1989250    -0.5723410
  H       -3.4064460    -1.5299900    -0.5936450
  H       -2.5139360    -1.5738270     0.9408480
  H       -3.5690030    -0.1984340     0.5718480
units angstrom
no_reorient  #important for SAPT in psi4, default
symmetry c1  #important for SAPT in psi4, default
}

set PROPERTIES_ORIGIN ["COM"]
properties('MP2/aug-cc-pvtz', properties = ['dipole'])
--------------------------------------------------------------------------

    Molecular point group: c1
  Charge       = 0
  Multiplicity = 1
  Basis Set: AUG-CC-PVTZ
    Blend: AUG-CC-PVTZ
  Basis Set: (AUG-CC-PVTZ AUX)
    Blend: AUG-CC-PVTZ-JKFIT

    Orbital Energies [Eh]
    ---------------------

    Doubly Occupied:

       1A    -20.562681     2A    -20.559873     3A    -11.323139
       4A    -11.274037     5A    -11.270434     6A    -11.215264
       7A    -11.214864     8A     -1.412730     9A     -1.343071
      10A     -1.028170    11A     -1.000600    12A     -0.893736
      13A     -0.853100    14A     -0.817903    15A     -0.695394
      16A     -0.683328    17A     -0.674689    18A     -0.624112
      19A     -0.617250    20A     -0.578696    21A     -0.536963
      22A     -0.534377    23A     -0.523487    24A     -0.518073
      25A     -0.502836    26A     -0.477362    27A     -0.462144
      28A     -0.446129    29A     -0.435238

  @DF-RHF Final Energy:  -346.15568049987138

   => Energetics <=

    Nuclear Repulsion Energy =            332.4674860770316513
    One-Electron Energy =               -1131.0869719068443828
    Two-Electron Energy =                 452.4638053299412945
    Total Energy =                       -346.1556804998713801
  Basis Set: (AUG-CC-PVTZ AUX)
    Blend: AUG-CC-PVTZ-RI
    Molecular point group: c1

    Geometry (in Angstrom), charge = 0, multiplicity = 1:

       Center              X                  Y                   Z               Mass
    ------------   -----------------  -----------------  -----------------  -----------------
         O            1.069463269660     0.529321997306    -0.515077370439    15.994914619570
         O           -1.054530730340     0.529281997306     0.499881629561    15.994914619570
         C            1.651710769660    -0.205318902694     0.566951429561    12.000000000000
         C           -1.701234730340    -0.244389002694    -0.516359370439    12.000000000000
         C            0.007387269660     1.298842997306    -0.007637370439    12.000000000000
         C            2.879818269660    -0.960047002694    -0.149210370439    12.000000000000
         C           -2.865075730340    -0.959851002694     0.134123629561    12.000000000000
         H            2.061194269660     0.424272997306     1.304634629561     1.007825032230
         H            1.006725269660    -0.953793002694     0.941651629561     1.007825032230
         H           -2.045797730340     0.423747997306    -1.320053370439     1.007825032230
         H           -0.991701730340    -0.954392002694    -0.956267370439     1.007825032230
         H            0.336861269660     1.922974997306     0.833131629561     1.007825032230
         H           -0.322095730340     1.922901997306    -0.848468370439     1.007825032230
         H            3.413887269660    -1.568536002694     0.586247629561     1.007825032230
         H            2.520901269660    -1.612956002694    -0.947956370439     1.007825032230
         H            3.576271269660    -0.237542002694    -0.579911370439     1.007825032230
         H           -3.399003730340    -1.568607002694    -0.601215370439     1.007825032230
         H           -2.506493730340    -1.612444002694     0.933277629561     1.007825032230
         H           -3.561560730340    -0.237051002694     0.564277629561     1.007825032230

  Basis Set: AUG-CC-PVTZ
    Blend: AUG-CC-PVTZ
  Basis Set: (AUG-CC-PVTZ AUX)
    Blend: AUG-CC-PVTZ-JKFIT
	 Reference Energy          =    -346.1556804998713801 [Eh]
	 Singles Energy            =      -0.0000000000000000 [Eh]
	 Same-Spin Energy          =      -0.3394510839419124 [Eh]
	 Opposite-Spin Energy      =      -1.1632155925941956 [Eh]
	 Correlation Energy        =      -1.5026666765361081 [Eh]
	 Total Energy              =    -347.6583471764074602 [Eh]

	 ================> DF-SCS-MP2 Energies <==================
	-----------------------------------------------------------
	 SCS Same-Spin Scale       =       0.3333333333333333 [-]
	 SCS Opposite-Spin Scale   =       1.2000000000000000 [-]
	 SCS Same-Spin Energy      =      -0.1131503613139708 [Eh]
	 SCS Opposite-Spin Energy  =      -1.3958587111130347 [Eh]
	 SCS Correlation Energy    =      -1.5090090724270055 [Eh]
	 SCS Total Energy          =    -347.6646895722983572 [Eh]
	-----------------------------------------------------------

  Dipole Moment: [D]
     X:    -0.1191      Y:    -0.2995      Z:     0.0697     Total:     0.3298

*** Psi4 exiting successfully. Buy a developer a beer!
