                               Psi4 1.3.2 release

  ==> Input File <==

--------------------------------------------------------------------------
#psi4
#
memory 32 gb

molecule  {
0 1
  O        1.0620210     0.5679390    -0.5075070
  O       -1.0619730     0.5678990     0.5074520
  C        1.7088310    -0.2054710     0.5088440
  C       -1.7086770    -0.2057720    -0.5087890
  C       -0.0000550     1.3374600    -0.0000670
  C        2.8723760    -0.9214300    -0.1416400
  C       -2.8725180    -0.9212340     0.1416940
  H        2.0537520     0.4628900     1.3122050
  H        0.9992830    -0.9151760     0.9492220
  H       -2.0532400     0.4623650    -1.3124830
  H       -0.9991440    -0.9157750    -0.9486970
  H        0.3212715     1.9927267     0.8199093
  H       -0.3295380     1.9615190    -0.8408980
  H        3.4064450    -1.5299190     0.5938180
  H        2.5134590    -1.5743390    -0.9403860
  H        3.5688290    -0.1989250    -0.5723410
  H       -3.4064460    -1.5299900    -0.5936450
  H       -2.5139360    -1.5738270     0.9408480
  H       -3.5690030    -0.1984340     0.5718480
units angstrom
no_reorient  #important for SAPT in psi4, default
symmetry c1  #important for SAPT in psi4, default
}

set PROPERTIES_ORIGIN ["COM"]
properties('MP2/aug-cc-pvtz', properties = ['dipole'])
--------------------------------------------------------------------------

    Molecular point group: c1
  Charge       = 0
  Multiplicity = 1
  Basis Set: AUG-CC-PVTZ
    Blend: AUG-CC-PVTZ
  Basis Set: (AUG-CC-PVTZ AUX)
    Blend: AUG-CC-PVTZ-JKFIT

    Orbital Energies [Eh]
    ---------------------

    Doubly Occupied:

       1A    -20.559550     2A    -20.559472     3A    -11.323654
       4A    -11.273529     5A    -11.273342     6A    -11.214385
       7A    -11.214323     8A     -1.410059     9A     -1.341644
      10A     -1.033175    11A     -1.012220    12A     -0.896761
      13A     -0.847361    14A     -0.811867    15A     -0.692643
      16A     -0.683985    17A     -0.670694    18A     -0.621851
      19A     -0.617415    20A     -0.578107    21A     -0.537977
      22A     -0.537030    23A     -0.525713    24A     -0.515608
      25A     -0.502068    26A     -0.494233    27A     -0.461196
      28A     -0.437757    29A     -0.434581

  @DF-RHF Final Energy:  -346.16572432572491

   => Energetics <=

    Nuclear Repulsion Energy =            332.4896005093488043
    One-Electron Energy =               -1131.1462500976540468
    Two-Electron Energy =                 452.4909252625803902
    Total Energy =                       -346.1657243257249092
  Basis Set: (AUG-CC-PVTZ AUX)
    Blend: AUG-CC-PVTZ-RI
    Molecular point group: c1

    Geometry (in Angstrom), charge = 0, multiplicity = 1:

       Center              X                  Y                   Z               Mass
    ------------   -----------------  -----------------  -----------------  -----------------
         O            1.062098634012     0.533490284430    -0.507303926823    15.994914619570
         O           -1.061895365988     0.533450284430     0.507655073177    15.994914619570
         C            1.708908634012    -0.239919715570     0.509047073177    12.000000000000
         C           -1.708599365988    -0.240220715570    -0.508585926823    12.000000000000
         C            0.000022634012     1.303011284430     0.000136073177    12.000000000000
         C            2.872453634012    -0.955878715570    -0.141436926823    12.000000000000
         C           -2.872440365988    -0.955682715570     0.141897073177    12.000000000000
         H            2.053829634012     0.428441284430     1.312408073177     1.007825032230
         H            0.999360634012    -0.949624715570     0.949425073177     1.007825032230
         H           -2.053162365988     0.427916284430    -1.312279926823     1.007825032230
         H           -0.999066365988    -0.950223715570    -0.948493926823     1.007825032230
         H            0.321349134012     1.958277984430     0.820112373177     1.007825032230
         H           -0.329460365988     1.927070284430    -0.840694926823     1.007825032230
         H            3.406522634012    -1.564367715570     0.594021073177     1.007825032230
         H            2.513536634012    -1.608787715570    -0.940182926823     1.007825032230
         H            3.568906634012    -0.233373715570    -0.572137926823     1.007825032230
         H           -3.406368365988    -1.564438715570    -0.593441926823     1.007825032230
         H           -2.513858365988    -1.608275715570     0.941051073177     1.007825032230
         H           -3.568925365988    -0.232882715570     0.572051073177     1.007825032230

  Basis Set: AUG-CC-PVTZ
    Blend: AUG-CC-PVTZ
  Basis Set: (AUG-CC-PVTZ AUX)
    Blend: AUG-CC-PVTZ-JKFIT
	 Reference Energy          =    -346.1657243257249092 [Eh]
	 Singles Energy            =      -0.0000000000000000 [Eh]
	 Same-Spin Energy          =      -0.3394047147190745 [Eh]
	 Opposite-Spin Energy      =      -1.1623701504242459 [Eh]
	 Correlation Energy        =      -1.5017748651433203 [Eh]
	 Total Energy              =    -347.6674991908682273 [Eh]

	 ================> DF-SCS-MP2 Energies <==================
	-----------------------------------------------------------
	 SCS Same-Spin Scale       =       0.3333333333333333 [-]
	 SCS Opposite-Spin Scale   =       1.2000000000000000 [-]
	 SCS Same-Spin Energy      =      -0.1131349049063581 [Eh]
	 SCS Opposite-Spin Energy  =      -1.3948441805090950 [Eh]
	 SCS Correlation Energy    =      -1.5079790854154531 [Eh]
	 SCS Total Energy          =    -347.6737034111403659 [Eh]
	-----------------------------------------------------------

  Dipole Moment: [D]
     X:    -0.0019      Y:    -0.3738      Z:     0.0010     Total:     0.3738

*** Psi4 exiting successfully. Buy a developer a beer!
