                               Psi4 1.3.2 release

  ==> Input File <==

--------------------------------------------------------------------------
#psi4
#
memory 32 gb

molecule  {
0 1
  O        1.0620210     0.5679390    -0.5075070
  O       -1.0619730     0.5678990     0.5074520
  C        1.7088310    -0.2054710     0.5088440
  C       -1.7086770    -0.2057720    -0.5087890
  C       -0.0000550     1.3374600    -0.0000670
  C        2.8723760    -0.9214300    -0.1416400
  C       -2.8725180    -0.9212340     0.1416940
  H        2.0537520     0.4628900     1.3122050
  H        0.9992830    -0.9151760     0.9492220
  H       -2.0532400     0.4623650    -1.3124830
  H       -0.9991440    -0.9157750    -0.9486970
  H        0.3371651     1.9296968     0.8604703
  H       -0.3295380     1.9615190    -0.8408980
  H        3.4064450    -1.5299190     0.5938180
  H        2.5134590    -1.5743390    -0.9403860
  H        3.5688290    -0.1989250    -0.5723410
  H       -3.4064460    -1.5299900    -0.5936450
  H       -2.5139360    -1.5738270     0.9408480
  H       -3.5690030    -0.1984340     0.5718480
units angstrom
no_reorient  #important for SAPT in psi4, default
symmetry c1  #important for SAPT in psi4, default
}

set PROPERTIES_ORIGIN ["COM"]
properties('MP2/aug-cc-pvtz', properties = ['dipole'])
--------------------------------------------------------------------------

    Molecular point group: c1
  Charge       = 0
  Multiplicity = 1
  Basis Set: AUG-CC-PVTZ
    Blend: AUG-CC-PVTZ
  Basis Set: (AUG-CC-PVTZ AUX)
    Blend: AUG-CC-PVTZ-JKFIT

    Orbital Energies [Eh]
    ---------------------

    Doubly Occupied:

       1A    -20.558869     2A    -20.558771     3A    -11.323889
       4A    -11.273434     5A    -11.273250     6A    -11.214352
       7A    -11.214291     8A     -1.410182     9A     -1.341469
      10A     -1.033207    11A     -1.012231    12A     -0.895981
      13A     -0.847790    14A     -0.811621    15A     -0.690859
      16A     -0.684037    17A     -0.674094    18A     -0.619521
      19A     -0.617952    20A     -0.578016    21A     -0.538001
      22A     -0.536971    23A     -0.526025    24A     -0.514661
      25A     -0.501634    26A     -0.494859    27A     -0.462475
      28A     -0.437782    29A     -0.434095

  @DF-RHF Final Energy:  -346.16560807764614

   => Energetics <=

    Nuclear Repulsion Energy =            332.5914308699785238
    One-Electron Energy =               -1131.3534387256502214
    Two-Electron Energy =                 452.5963997780256136
    Total Energy =                       -346.1656080776461408
  Basis Set: (AUG-CC-PVTZ AUX)
    Blend: AUG-CC-PVTZ-RI
    Molecular point group: c1

    Geometry (in Angstrom), charge = 0, multiplicity = 1:

       Center              X                  Y                   Z               Mass
    ------------   -----------------  -----------------  -----------------  -----------------
         O            1.061944738990     0.534100592220    -0.507696672080    15.994914619570
         O           -1.062049261010     0.534060592220     0.507262327920    15.994914619570
         C            1.708754738990    -0.239309407780     0.508654327920    12.000000000000
         C           -1.708753261010    -0.239610407780    -0.508978672080    12.000000000000
         C           -0.000131261010     1.303621592220    -0.000256672080    12.000000000000
         C            2.872299738990    -0.955268407780    -0.141829672080    12.000000000000
         C           -2.872594261010    -0.955072407780     0.141504327920    12.000000000000
         H            2.053675738990     0.429051592220     1.312015327920     1.007825032230
         H            0.999206738990    -0.949014407780     0.949032327920     1.007825032230
         H           -2.053316261010     0.428526592220    -1.312672672080     1.007825032230
         H           -0.999220261010    -0.949613407780    -0.948886672080     1.007825032230
         H            0.337088838990     1.895858392220     0.860280627920     1.007825032230
         H           -0.329614261010     1.927680592220    -0.841087672080     1.007825032230
         H            3.406368738990    -1.563757407780     0.593628327920     1.007825032230
         H            2.513382738990    -1.608177407780    -0.940575672080     1.007825032230
         H            3.568752738990    -0.232763407780    -0.572530672080     1.007825032230
         H           -3.406522261010    -1.563828407780    -0.593834672080     1.007825032230
         H           -2.514012261010    -1.607665407780     0.940658327920     1.007825032230
         H           -3.569079261010    -0.232272407780     0.571658327920     1.007825032230

  Basis Set: AUG-CC-PVTZ
    Blend: AUG-CC-PVTZ
  Basis Set: (AUG-CC-PVTZ AUX)
    Blend: AUG-CC-PVTZ-JKFIT
	 Reference Energy          =    -346.1656080776461408 [Eh]
	 Singles Energy            =      -0.0000000000000000 [Eh]
	 Same-Spin Energy          =      -0.3395059337055061 [Eh]
	 Opposite-Spin Energy      =      -1.1625130474013501 [Eh]
	 Correlation Energy        =      -1.5020189811068563 [Eh]
	 Total Energy              =    -347.6676270587529984 [Eh]

	 ================> DF-SCS-MP2 Energies <==================
	-----------------------------------------------------------
	 SCS Same-Spin Scale       =       0.3333333333333333 [-]
	 SCS Opposite-Spin Scale   =       1.2000000000000000 [-]
	 SCS Same-Spin Energy      =      -0.1131686445685020 [Eh]
	 SCS Opposite-Spin Energy  =      -1.3950156568816201 [Eh]
	 SCS Correlation Energy    =      -1.5081843014501222 [Eh]
	 SCS Total Energy          =    -347.6737923790962554 [Eh]
	-----------------------------------------------------------

  Dipole Moment: [D]
     X:     0.0011      Y:    -0.3917      Z:    -0.0018     Total:     0.3917

*** Psi4 exiting successfully. Buy a developer a beer!
