                               Psi4 1.3.2 release

  ==> Input File <==

--------------------------------------------------------------------------
#psi4
#
memory 32 gb

molecule  {
0 1
  O        1.0620210     0.5679390    -0.5075070
  O       -1.0619730     0.5678990     0.5074520
  C        1.7088310    -0.2054710     0.5088440
  C       -1.7086770    -0.2057720    -0.5087890
  C       -0.0000550     1.3374600    -0.0000670
  C        2.8723760    -0.9214300    -0.1416400
  C       -2.8725180    -0.9212340     0.1416940
  H        2.0537520     0.4628900     1.3122050
  H        0.9992830    -0.9151760     0.9492220
  H       -2.0532400     0.4623650    -1.3124830
  H       -0.9991440    -0.9157750    -0.9486970
  H        0.3294190     1.9615920     0.8407020
  H       -0.3295380     1.9615190    -0.8408980
  H        3.4064450    -1.5299190     0.5938180
  H        2.5134590    -1.5743390    -0.9403860
  H        3.5688290    -0.1989250    -0.5723410
  H       -3.4064460    -1.5299900    -0.5936450
  H       -2.5139360    -1.5738270     0.9408480
  H       -3.5690030    -0.1984340     0.5718480
units angstrom
no_reorient  #important for SAPT in psi4, default
symmetry c1  #important for SAPT in psi4, default
}

set PROPERTIES_ORIGIN ["COM"]
properties('MP2/aug-cc-pvtz', properties = ['dipole'])
--------------------------------------------------------------------------

    Molecular point group: c1
  Charge       = 0
  Multiplicity = 1
  Basis Set: AUG-CC-PVTZ
    Blend: AUG-CC-PVTZ
  Basis Set: (AUG-CC-PVTZ AUX)
    Blend: AUG-CC-PVTZ-JKFIT

    Orbital Energies [Eh]
    ---------------------

    Doubly Occupied:

       1A    -20.559174     2A    -20.559154     3A    -11.323775
       4A    -11.273393     5A    -11.273386     6A    -11.214339
       7A    -11.214335     8A     -1.410114     9A     -1.341554
      10A     -1.033188    11A     -1.012224    12A     -0.896359
      13A     -0.847568    14A     -0.811736    15A     -0.691729
      16A     -0.684011    17A     -0.672390    18A     -0.620677
      19A     -0.617708    20A     -0.578059    21A     -0.537989
      22A     -0.536998    23A     -0.525875    24A     -0.515129
      25A     -0.501851    26A     -0.494575    27A     -0.461886
      28A     -0.437789    29A     -0.434338

  @DF-RHF Final Energy:  -346.16583101422952

   => Energetics <=

    Nuclear Repulsion Energy =            332.5393263224038947
    One-Electron Energy =               -1131.2477141743381708
    Two-Electron Energy =                 452.5425568377047512
    Total Energy =                       -346.1658310142295250
  Basis Set: (AUG-CC-PVTZ AUX)
    Blend: AUG-CC-PVTZ-RI
    Molecular point group: c1

    Geometry (in Angstrom), charge = 0, multiplicity = 1:

       Center              X                  Y                   Z               Mass
    ------------   -----------------  -----------------  -----------------  -----------------
         O            1.062019743157     0.533791756429    -0.507505258997    15.994914619570
         O           -1.061974256843     0.533751756429     0.507453741003    15.994914619570
         C            1.708829743157    -0.239618243571     0.508845741003    12.000000000000
         C           -1.708678256843    -0.239919243571    -0.508787258997    12.000000000000
         C           -0.000056256843     1.303312756429    -0.000065258997    12.000000000000
         C            2.872374743157    -0.955577243571    -0.141638258997    12.000000000000
         C           -2.872519256843    -0.955381243571     0.141695741003    12.000000000000
         H            2.053750743157     0.428742756429     1.312206741003     1.007825032230
         H            0.999281743157    -0.949323243571     0.949223741003     1.007825032230
         H           -2.053241256843     0.428217756429    -1.312481258997     1.007825032230
         H           -0.999145256843    -0.949922243571    -0.948695258997     1.007825032230
         H            0.329417743157     1.927444756429     0.840703741003     1.007825032230
         H           -0.329539256843     1.927371756429    -0.840896258997     1.007825032230
         H            3.406443743157    -1.564066243571     0.593819741003     1.007825032230
         H            2.513457743157    -1.608486243571    -0.940384258997     1.007825032230
         H            3.568827743157    -0.233072243571    -0.572339258997     1.007825032230
         H           -3.406447256843    -1.564137243571    -0.593643258997     1.007825032230
         H           -2.513937256843    -1.607974243571     0.940849741003     1.007825032230
         H           -3.569004256843    -0.232581243571     0.571849741003     1.007825032230

  Basis Set: AUG-CC-PVTZ
    Blend: AUG-CC-PVTZ
  Basis Set: (AUG-CC-PVTZ AUX)
    Blend: AUG-CC-PVTZ-JKFIT
	 Reference Energy          =    -346.1658310142295250 [Eh]
	 Singles Energy            =      -0.0000000000000000 [Eh]
	 Same-Spin Energy          =      -0.3394475502197323 [Eh]
	 Opposite-Spin Energy      =      -1.1624285730428443 [Eh]
	 Correlation Energy        =      -1.5018761232625766 [Eh]
	 Total Energy              =    -347.6677071374921297 [Eh]

	 ================> DF-SCS-MP2 Energies <==================
	-----------------------------------------------------------
	 SCS Same-Spin Scale       =       0.3333333333333333 [-]
	 SCS Opposite-Spin Scale   =       1.2000000000000000 [-]
	 SCS Same-Spin Energy      =      -0.1131491834065774 [Eh]
	 SCS Opposite-Spin Energy  =      -1.3949142876514131 [Eh]
	 SCS Correlation Energy    =      -1.5080634710579905 [Eh]
	 SCS Total Energy          =    -347.6738944852875193 [Eh]
	-----------------------------------------------------------

  Dipole Moment: [D]
     X:    -0.0003      Y:    -0.3827      Z:     0.0001     Total:     0.3827

*** Psi4 exiting successfully. Buy a developer a beer!
