                               Psi4 1.3.2 release

  ==> Input File <==

--------------------------------------------------------------------------
#psi4
#
memory 32 gb

molecule  {
0 1
  O        1.0620210     0.5679390    -0.5075070
  O       -1.0619730     0.5678990     0.5074520
  C        1.7088310    -0.2054710     0.5088440
  C       -1.7086770    -0.2057720    -0.5087890
  C       -0.0000550     1.3374600    -0.0000670
  C        2.8723760    -0.9214300    -0.1416400
  C       -2.8725180    -0.9212340     0.1416940
  H        2.0537520     0.4628900     1.3122050
  H        0.9992830    -0.9151760     0.9492220
  H       -2.0532400     0.4623650    -1.3124830
  H       -0.9991440    -0.9157750    -0.9486970
  H        0.3038124     2.0525643     0.7753534
  H       -0.3295380     1.9615190    -0.8408980
  H        3.4064450    -1.5299190     0.5938180
  H        2.5134590    -1.5743390    -0.9403860
  H        3.5688290    -0.1989250    -0.5723410
  H       -3.4064460    -1.5299900    -0.5936450
  H       -2.5139360    -1.5738270     0.9408480
  H       -3.5690030    -0.1984340     0.5718480
units angstrom
no_reorient  #important for SAPT in psi4, default
symmetry c1  #important for SAPT in psi4, default
}

set PROPERTIES_ORIGIN ["COM"]
properties('MP2/aug-cc-pvtz', properties = ['dipole'])
--------------------------------------------------------------------------

    Molecular point group: c1
  Charge       = 0
  Multiplicity = 1
  Basis Set: AUG-CC-PVTZ
    Blend: AUG-CC-PVTZ
  Basis Set: (AUG-CC-PVTZ AUX)
    Blend: AUG-CC-PVTZ-JKFIT

    Orbital Energies [Eh]
    ---------------------

    Doubly Occupied:

       1A    -20.560334     2A    -20.560092     3A    -11.323393
       4A    -11.273778     5A    -11.273265     6A    -11.214469
       7A    -11.214307     8A     -1.409980     9A     -1.341834
      10A     -1.033165    11A     -1.012218    12A     -0.897645
      13A     -0.846984    14A     -0.812175    15A     -0.694568
      16A     -0.683934    17A     -0.667377    18A     -0.624167
      19A     -0.616763    20A     -0.578218    21A     -0.537957
      22A     -0.537099    23A     -0.525357    24A     -0.516590
      25A     -0.502477    26A     -0.493434    27A     -0.459527
      28A     -0.437533    29A     -0.435075

  @DF-RHF Final Energy:  -346.16452845449055

   => Energetics <=

    Nuclear Repulsion Energy =            332.3972393544909210
    One-Electron Energy =               -1130.9561026368526200
    Two-Electron Energy =                 452.3943348278711483
    Total Energy =                       -346.1645284544905508
  Basis Set: (AUG-CC-PVTZ AUX)
    Blend: AUG-CC-PVTZ-RI
    Molecular point group: c1

    Geometry (in Angstrom), charge = 0, multiplicity = 1:

       Center              X                  Y                   Z               Mass
    ------------   -----------------  -----------------  -----------------  -----------------
         O            1.062267687505     0.532910887137    -0.506872499630    15.994914619570
         O           -1.061726312495     0.532870887137     0.508086500370    15.994914619570
         C            1.709077687505    -0.240499112863     0.509478500370    12.000000000000
         C           -1.708430312495    -0.240800112863    -0.508154499630    12.000000000000
         C            0.000191687505     1.302431887137     0.000567500370    12.000000000000
         C            2.872622687505    -0.956458112863    -0.141005499630    12.000000000000
         C           -2.872271312495    -0.956262112863     0.142328500370    12.000000000000
         H            2.053998687505     0.427861887137     1.312839500370     1.007825032230
         H            0.999529687505    -0.950204112863     0.949856500370     1.007825032230
         H           -2.052993312495     0.427336887137    -1.311848499630     1.007825032230
         H           -0.998897312495    -0.950803112863    -0.948062499630     1.007825032230
         H            0.304059087505     2.017536187137     0.775987900370     1.007825032230
         H           -0.329291312495     1.926490887137    -0.840263499630     1.007825032230
         H            3.406691687505    -1.564947112863     0.594452500370     1.007825032230
         H            2.513705687505    -1.609367112863    -0.939751499630     1.007825032230
         H            3.569075687505    -0.233953112863    -0.571706499630     1.007825032230
         H           -3.406199312495    -1.565018112863    -0.593010499630     1.007825032230
         H           -2.513689312495    -1.608855112863     0.941482500370     1.007825032230
         H           -3.568756312495    -0.233462112863     0.572482500370     1.007825032230

  Basis Set: AUG-CC-PVTZ
    Blend: AUG-CC-PVTZ
  Basis Set: (AUG-CC-PVTZ AUX)
    Blend: AUG-CC-PVTZ-JKFIT
	 Reference Energy          =    -346.1645284544905508 [Eh]
	 Singles Energy            =      -0.0000000000000000 [Eh]
	 Same-Spin Energy          =      -0.3393654001609052 [Eh]
	 Opposite-Spin Energy      =      -1.1623334281762205 [Eh]
	 Correlation Energy        =      -1.5016988283371258 [Eh]
	 Total Energy              =    -347.6662272828276627 [Eh]

	 ================> DF-SCS-MP2 Energies <==================
	-----------------------------------------------------------
	 SCS Same-Spin Scale       =       0.3333333333333333 [-]
	 SCS Opposite-Spin Scale   =       1.2000000000000000 [-]
	 SCS Same-Spin Energy      =      -0.1131218000536351 [Eh]
	 SCS Opposite-Spin Energy  =      -1.3948001138114645 [Eh]
	 SCS Correlation Energy    =      -1.5079219138650997 [Eh]
	 SCS Total Energy          =    -347.6724503683556691 [Eh]
	-----------------------------------------------------------

  Dipole Moment: [D]
     X:    -0.0053      Y:    -0.3562      Z:     0.0001     Total:     0.3562

*** Psi4 exiting successfully. Buy a developer a beer!
