                               Psi4 1.3.2 release

  ==> Input File <==

--------------------------------------------------------------------------
#psi4
#
memory 32 gb

molecule  {
0 1
  O        1.0620210     0.5679390    -0.5075070
  O       -1.0786816     0.5596181     0.5240820
  C        1.7088310    -0.2054710     0.5088440
  C       -1.7086770    -0.2057720    -0.5087890
  C       -0.0000550     1.3374600    -0.0000670
  C        2.8723760    -0.9214300    -0.1416400
  C       -2.8725180    -0.9212340     0.1416940
  H        2.0537520     0.4628900     1.3122050
  H        0.9992830    -0.9151760     0.9492220
  H       -2.0532400     0.4623650    -1.3124830
  H       -0.9991440    -0.9157750    -0.9486970
  H        0.3294190     1.9615920     0.8407020
  H       -0.3295380     1.9615190    -0.8408980
  H        3.4064450    -1.5299190     0.5938180
  H        2.5134590    -1.5743390    -0.9403860
  H        3.5688290    -0.1989250    -0.5723410
  H       -3.4064460    -1.5299900    -0.5936450
  H       -2.5139360    -1.5738270     0.9408480
  H       -3.5690030    -0.1984340     0.5718480
units angstrom
no_reorient  #important for SAPT in psi4, default
symmetry c1  #important for SAPT in psi4, default
}

set PROPERTIES_ORIGIN ["COM"]
properties('MP2/aug-cc-pvtz', properties = ['dipole'])
--------------------------------------------------------------------------

    Molecular point group: c1
  Charge       = 0
  Multiplicity = 1
  Basis Set: AUG-CC-PVTZ
    Blend: AUG-CC-PVTZ
  Basis Set: (AUG-CC-PVTZ AUX)
    Blend: AUG-CC-PVTZ-JKFIT

    Orbital Energies [Eh]
    ---------------------

    Doubly Occupied:

       1A    -20.561390     2A    -20.559877     3A    -11.326000
       4A    -11.274157     5A    -11.272176     6A    -11.214884
       7A    -11.212886     8A     -1.406437     9A     -1.340184
      10A     -1.032206    11A     -1.011268    12A     -0.896061
      13A     -0.846538    14A     -0.812933    15A     -0.689849
      16A     -0.682146    17A     -0.671077    18A     -0.620300
      19A     -0.617102    20A     -0.578409    21A     -0.537635
      22A     -0.535737    23A     -0.525503    24A     -0.515062
      25A     -0.501296    26A     -0.493496    27A     -0.464574
      28A     -0.438512    29A     -0.434470

  @DF-RHF Final Energy:  -346.16403867228541

   => Energetics <=

    Nuclear Repulsion Energy =            332.0780618165554188
    One-Electron Energy =               -1130.3398772194025241
    Two-Electron Energy =                 452.0977767305616908
    Total Energy =                       -346.1640386722854146
  Basis Set: (AUG-CC-PVTZ AUX)
    Blend: AUG-CC-PVTZ-RI
    Molecular point group: c1

    Geometry (in Angstrom), charge = 0, multiplicity = 1:

       Center              X                  Y                   Z               Mass
    ------------   -----------------  -----------------  -----------------  -----------------
         O            1.064587412776     0.535064311601    -0.510060849876    15.994914619570
         O           -1.076115187224     0.526743411601     0.521528150124    15.994914619570
         C            1.711397412776    -0.238345688399     0.506290150124    12.000000000000
         C           -1.706110587224    -0.238646688399    -0.511342849876    12.000000000000
         C            0.002511412776     1.304585311601    -0.002620849876    12.000000000000
         C            2.874942412776    -0.954304688399    -0.144193849876    12.000000000000
         C           -2.869951587224    -0.954108688399     0.139140150124    12.000000000000
         H            2.056318412776     0.430015311601     1.309651150124     1.007825032230
         H            1.001849412776    -0.948050688399     0.946668150124     1.007825032230
         H           -2.050673587224     0.429490311601    -1.315036849876     1.007825032230
         H           -0.996577587224    -0.948649688399    -0.951250849876     1.007825032230
         H            0.331985412776     1.928717311601     0.838148150124     1.007825032230
         H           -0.326971587224     1.928644311601    -0.843451849876     1.007825032230
         H            3.409011412776    -1.562793688399     0.591264150124     1.007825032230
         H            2.516025412776    -1.607213688399    -0.942939849876     1.007825032230
         H            3.571395412776    -0.231799688399    -0.574894849876     1.007825032230
         H           -3.403879587224    -1.562864688399    -0.596198849876     1.007825032230
         H           -2.511369587224    -1.606701688399     0.938294150124     1.007825032230
         H           -3.566436587224    -0.231308688399     0.569294150124     1.007825032230

  Basis Set: AUG-CC-PVTZ
    Blend: AUG-CC-PVTZ
  Basis Set: (AUG-CC-PVTZ AUX)
    Blend: AUG-CC-PVTZ-JKFIT
	 Reference Energy          =    -346.1640386722854146 [Eh]
	 Singles Energy            =      -0.0000000000000000 [Eh]
	 Same-Spin Energy          =      -0.3396725667581518 [Eh]
	 Opposite-Spin Energy      =      -1.1632826113404324 [Eh]
	 Correlation Energy        =      -1.5029551780985844 [Eh]
	 Total Energy              =    -347.6669938503840172 [Eh]

	 ================> DF-SCS-MP2 Energies <==================
	-----------------------------------------------------------
	 SCS Same-Spin Scale       =       0.3333333333333333 [-]
	 SCS Opposite-Spin Scale   =       1.2000000000000000 [-]
	 SCS Same-Spin Energy      =      -0.1132241889193839 [Eh]
	 SCS Opposite-Spin Energy  =      -1.3959391336085190 [Eh]
	 SCS Correlation Energy    =      -1.5091633225279029 [Eh]
	 SCS Total Energy          =    -347.6732019948133257 [Eh]
	-----------------------------------------------------------

  Dipole Moment: [D]
     X:     0.1084      Y:    -0.3396      Z:    -0.0363     Total:     0.3583

*** Psi4 exiting successfully. Buy a developer a beer!
