                               Psi4 1.3.2 release

  ==> Input File <==

--------------------------------------------------------------------------
#psi4
#
memory 32 gb

molecule  {
0 1
  O        1.0371442     0.5273285    -0.4956154
  O       -1.0619730     0.5678990     0.5074520
  C        1.7088310    -0.2054710     0.5088440
  C       -1.7086770    -0.2057720    -0.5087890
  C       -0.0000550     1.3374600    -0.0000670
  C        2.8723760    -0.9214300    -0.1416400
  C       -2.8725180    -0.9212340     0.1416940
  H        2.0537520     0.4628900     1.3122050
  H        0.9992830    -0.9151760     0.9492220
  H       -2.0532400     0.4623650    -1.3124830
  H       -0.9991440    -0.9157750    -0.9486970
  H        0.3294190     1.9615920     0.8407020
  H       -0.3295380     1.9615190    -0.8408980
  H        3.4064450    -1.5299190     0.5938180
  H        2.5134590    -1.5743390    -0.9403860
  H        3.5688290    -0.1989250    -0.5723410
  H       -3.4064460    -1.5299900    -0.5936450
  H       -2.5139360    -1.5738270     0.9408480
  H       -3.5690030    -0.1984340     0.5718480
units angstrom
no_reorient  #important for SAPT in psi4, default
symmetry c1  #important for SAPT in psi4, default
}

set PROPERTIES_ORIGIN ["COM"]
properties('MP2/aug-cc-pvtz', properties = ['dipole'])
--------------------------------------------------------------------------

    Molecular point group: c1
  Charge       = 0
  Multiplicity = 1
  Basis Set: AUG-CC-PVTZ
    Blend: AUG-CC-PVTZ
  Basis Set: (AUG-CC-PVTZ AUX)
    Blend: AUG-CC-PVTZ-JKFIT

    Orbital Energies [Eh]
    ---------------------

    Doubly Occupied:

       1A    -20.557860     2A    -20.557656     3A    -11.325070
       4A    -11.272620     5A    -11.271567     6A    -11.213786
       7A    -11.213730     8A     -1.413222     9A     -1.342520
      10A     -1.033436    11A     -1.011177    12A     -0.898204
      13A     -0.847639    14A     -0.810717    15A     -0.694245
      16A     -0.684803    17A     -0.672294    18A     -0.622765
      19A     -0.617705    20A     -0.577783    21A     -0.537685
      22A     -0.537132    23A     -0.526225    24A     -0.516248
      25A     -0.500913    26A     -0.493913    27A     -0.461567
      28A     -0.436190    29A     -0.432621

  @DF-RHF Final Energy:  -346.16611427016744

   => Energetics <=

    Nuclear Repulsion Energy =            333.2150154991092563
    One-Electron Energy =               -1132.5996725287061508
    Two-Electron Energy =                 453.2185427594293969
    Total Energy =                       -346.1661142701674407
  Basis Set: (AUG-CC-PVTZ AUX)
    Blend: AUG-CC-PVTZ-RI
    Molecular point group: c1

    Geometry (in Angstrom), charge = 0, multiplicity = 1:

       Center              X                  Y                   Z               Mass
    ------------   -----------------  -----------------  -----------------  -----------------
         O            1.040965848941     0.499422015503    -0.497441083200    15.994914619570
         O           -1.058151351059     0.539992515503     0.505626316800    15.994914619570
         C            1.712652648941    -0.233377484497     0.507018316800    12.000000000000
         C           -1.704855351059    -0.233678484497    -0.510614683200    12.000000000000
         C            0.003766648941     1.309553515503    -0.001892683200    12.000000000000
         C            2.876197648941    -0.949336484497    -0.143465683200    12.000000000000
         C           -2.868696351059    -0.949140484497     0.139868316800    12.000000000000
         H            2.057573648941     0.434983515503     1.310379316800     1.007825032230
         H            1.003104648941    -0.943082484497     0.947396316800     1.007825032230
         H           -2.049418351059     0.434458515503    -1.314308683200     1.007825032230
         H           -0.995322351059    -0.943681484497    -0.950522683200     1.007825032230
         H            0.333240648941     1.933685515503     0.838876316800     1.007825032230
         H           -0.325716351059     1.933612515503    -0.842723683200     1.007825032230
         H            3.410266648941    -1.557825484497     0.591992316800     1.007825032230
         H            2.517280648941    -1.602245484497    -0.942211683200     1.007825032230
         H            3.572650648941    -0.226831484497    -0.574166683200     1.007825032230
         H           -3.402624351059    -1.557896484497    -0.595470683200     1.007825032230
         H           -2.510114351059    -1.601733484497     0.939022316800     1.007825032230
         H           -3.565181351059    -0.226340484497     0.570022316800     1.007825032230

  Basis Set: AUG-CC-PVTZ
    Blend: AUG-CC-PVTZ
  Basis Set: (AUG-CC-PVTZ AUX)
    Blend: AUG-CC-PVTZ-JKFIT
	 Reference Energy          =    -346.1661142701674407 [Eh]
	 Singles Energy            =      -0.0000000000000000 [Eh]
	 Same-Spin Energy          =      -0.3393264869903311 [Eh]
	 Opposite-Spin Energy      =      -1.1618592911557255 [Eh]
	 Correlation Energy        =      -1.5011857781460565 [Eh]
	 Total Energy              =    -347.6673000483135070 [Eh]

	 ================> DF-SCS-MP2 Energies <==================
	-----------------------------------------------------------
	 SCS Same-Spin Scale       =       0.3333333333333333 [-]
	 SCS Opposite-Spin Scale   =       1.2000000000000000 [-]
	 SCS Same-Spin Energy      =      -0.1131088289967770 [Eh]
	 SCS Opposite-Spin Energy  =      -1.3942311493868706 [Eh]
	 SCS Correlation Energy    =      -1.5073399783836476 [Eh]
	 SCS Total Energy          =    -347.6734542485510815 [Eh]
	-----------------------------------------------------------

  Dipole Moment: [D]
     X:     0.0341      Y:    -0.2632      Z:    -0.0363     Total:     0.2679

*** Psi4 exiting successfully. Buy a developer a beer!
