                               Psi4 1.3.2 release

  ==> Input File <==

--------------------------------------------------------------------------
#psi4
#
memory 32 gb

molecule  {
0 1
  O        1.0620210     0.5679390    -0.5075070
  O       -1.0808292     0.6492641     0.4525949
  C        1.7088310    -0.2054710     0.5088440
  C       -1.7086770    -0.2057720    -0.5087890
  C       -0.0000550     1.3374600    -0.0000670
  C        2.8723760    -0.9214300    -0.1416400
  C       -2.8725180    -0.9212340     0.1416940
  H        2.0537520     0.4628900     1.3122050
  H        0.9992830    -0.9151760     0.9492220
  H       -2.0532400     0.4623650    -1.3124830
  H       -0.9991440    -0.9157750    -0.9486970
  H        0.3294190     1.9615920     0.8407020
  H       -0.3295380     1.9615190    -0.8408980
  H        3.4064450    -1.5299190     0.5938180
  H        2.5134590    -1.5743390    -0.9403860
  H        3.5688290    -0.1989250    -0.5723410
  H       -3.4064460    -1.5299900    -0.5936450
  H       -2.5139360    -1.5738270     0.9408480
  H       -3.5690030    -0.1984340     0.5718480
units angstrom
no_reorient  #important for SAPT in psi4, default
symmetry c1  #important for SAPT in psi4, default
}

set PROPERTIES_ORIGIN ["COM"]
properties('MP2/aug-cc-pvtz', properties = ['dipole'])
--------------------------------------------------------------------------

    Molecular point group: c1
  Charge       = 0
  Multiplicity = 1
  Basis Set: AUG-CC-PVTZ
    Blend: AUG-CC-PVTZ
  Basis Set: (AUG-CC-PVTZ AUX)
    Blend: AUG-CC-PVTZ-JKFIT

    Orbital Energies [Eh]
    ---------------------

    Doubly Occupied:

       1A    -20.557819     2A    -20.557757     3A    -11.318692
       4A    -11.276195     5A    -11.273802     6A    -11.217412
       7A    -11.214542     8A     -1.418967     9A     -1.346925
      10A     -1.036886    11A     -1.014513    12A     -0.897954
      13A     -0.849658    14A     -0.809705    15A     -0.695627
      16A     -0.689956    17A     -0.677274    18A     -0.621971
      19A     -0.617341    20A     -0.578716    21A     -0.542133
      22A     -0.538870    23A     -0.527692    24A     -0.514173
      25A     -0.504253    26A     -0.497466    27A     -0.458022
      28A     -0.437501    29A     -0.430549

  @DF-RHF Final Energy:  -346.16477501952397

   => Energetics <=

    Nuclear Repulsion Energy =            332.8992027665120190
    One-Electron Energy =               -1131.8832137941549263
    Two-Electron Energy =                 452.8192360081189918
    Total Energy =                       -346.1647750195239723
  Basis Set: (AUG-CC-PVTZ AUX)
    Blend: AUG-CC-PVTZ-RI
    Molecular point group: c1

    Geometry (in Angstrom), charge = 0, multiplicity = 1:

       Center              X                  Y                   Z               Mass
    ------------   -----------------  -----------------  -----------------  -----------------
         O            1.064917442059     0.521288093924    -0.499075174546    15.994914619570
         O           -1.077932757941     0.602613193924     0.461026725454    15.994914619570
         C            1.711727442059    -0.252121906076     0.517275825454    12.000000000000
         C           -1.705780557941    -0.252422906076    -0.500357174546    12.000000000000
         C            0.002841442059     1.290809093924     0.008364825454    12.000000000000
         C            2.875272442059    -0.968080906076    -0.133208174546    12.000000000000
         C           -2.869621557941    -0.967884906076     0.150125825454    12.000000000000
         H            2.056648442059     0.416239093924     1.320636825454     1.007825032230
         H            1.002179442059    -0.961826906076     0.957653825454     1.007825032230
         H           -2.050343557941     0.415714093924    -1.304051174546     1.007825032230
         H           -0.996247557941    -0.962425906076    -0.940265174546     1.007825032230
         H            0.332315442059     1.914941093924     0.849133825454     1.007825032230
         H           -0.326641557941     1.914868093924    -0.832466174546     1.007825032230
         H            3.409341442059    -1.576569906076     0.602249825454     1.007825032230
         H            2.516355442059    -1.620989906076    -0.931954174546     1.007825032230
         H            3.571725442059    -0.245575906076    -0.563909174546     1.007825032230
         H           -3.403549557941    -1.576640906076    -0.585213174546     1.007825032230
         H           -2.511039557941    -1.620477906076     0.949279825454     1.007825032230
         H           -3.566106557941    -0.245084906076     0.580279825454     1.007825032230

  Basis Set: AUG-CC-PVTZ
    Blend: AUG-CC-PVTZ
  Basis Set: (AUG-CC-PVTZ AUX)
    Blend: AUG-CC-PVTZ-JKFIT
	 Reference Energy          =    -346.1647750195239723 [Eh]
	 Singles Energy            =      -0.0000000000000000 [Eh]
	 Same-Spin Energy          =      -0.3391285973526789 [Eh]
	 Opposite-Spin Energy      =      -1.1609872281081630 [Eh]
	 Correlation Energy        =      -1.5001158254608420 [Eh]
	 Total Energy              =    -347.6648908449848250 [Eh]

	 ================> DF-SCS-MP2 Energies <==================
	-----------------------------------------------------------
	 SCS Same-Spin Scale       =       0.3333333333333333 [-]
	 SCS Opposite-Spin Scale   =       1.2000000000000000 [-]
	 SCS Same-Spin Energy      =      -0.1130428657842263 [Eh]
	 SCS Opposite-Spin Energy  =      -1.3931846737297955 [Eh]
	 SCS Correlation Energy    =      -1.5062275395140219 [Eh]
	 SCS Total Energy          =    -347.6710025590380155 [Eh]
	-----------------------------------------------------------

  Dipole Moment: [D]
     X:    -0.0892      Y:    -0.6312      Z:     0.1280     Total:     0.6502

*** Psi4 exiting successfully. Buy a developer a beer!
