                               Psi4 1.3.2 release

  ==> Input File <==

--------------------------------------------------------------------------
#psi4
#
memory 32 gb

molecule  {
0 1
  O        1.0620210     0.5679390    -0.5075070
  O       -1.0955822     0.5511040     0.5403974
  C        1.7088310    -0.2054710     0.5088440
  C       -1.7086770    -0.2057720    -0.5087890
  C       -0.0000550     1.3374600    -0.0000670
  C        2.8723760    -0.9214300    -0.1416400
  C       -2.8725180    -0.9212340     0.1416940
  H        2.0537520     0.4628900     1.3122050
  H        0.9992830    -0.9151760     0.9492220
  H       -2.0532400     0.4623650    -1.3124830
  H       -0.9991440    -0.9157750    -0.9486970
  H        0.3294190     1.9615920     0.8407020
  H       -0.3295380     1.9615190    -0.8408980
  H        3.4064450    -1.5299190     0.5938180
  H        2.5134590    -1.5743390    -0.9403860
  H        3.5688290    -0.1989250    -0.5723410
  H       -3.4064460    -1.5299900    -0.5936450
  H       -2.5139360    -1.5738270     0.9408480
  H       -3.5690030    -0.1984340     0.5718480
units angstrom
no_reorient  #important for SAPT in psi4, default
symmetry c1  #important for SAPT in psi4, default
}

set PROPERTIES_ORIGIN ["COM"]
properties('MP2/aug-cc-pvtz', properties = ['dipole'])
--------------------------------------------------------------------------

    Molecular point group: c1
  Charge       = 0
  Multiplicity = 1
  Basis Set: AUG-CC-PVTZ
    Blend: AUG-CC-PVTZ
  Basis Set: (AUG-CC-PVTZ AUX)
    Blend: AUG-CC-PVTZ-JKFIT

    Orbital Energies [Eh]
    ---------------------

    Doubly Occupied:

       1A    -20.563582     2A    -20.560489     3A    -11.328221
       4A    -11.274923     5A    -11.271035     6A    -11.215428
       7A    -11.211456     8A     -1.403479     9A     -1.338457
      10A     -1.031568    11A     -1.010017    12A     -0.896014
      13A     -0.845438    14A     -0.814083    15A     -0.688267
      16A     -0.680317    17A     -0.669912    18A     -0.620143
      19A     -0.616312    20A     -0.578668    21A     -0.537590
      22A     -0.534443    23A     -0.525138    24A     -0.514964
      25A     -0.501038    26A     -0.491948    27A     -0.467041
      28A     -0.439035    29A     -0.434471

  @DF-RHF Final Energy:  -346.16141764461884

   => Energetics <=

    Nuclear Repulsion Energy =            331.6274892387561977
    One-Electron Energy =               -1129.4508645926464396
    Two-Electron Energy =                 451.6619577092714053
    Total Energy =                       -346.1614176446188367
  Basis Set: (AUG-CC-PVTZ AUX)
    Blend: AUG-CC-PVTZ-RI
    Molecular point group: c1

    Geometry (in Angstrom), charge = 0, multiplicity = 1:

       Center              X                  Y                   Z               Mass
    ------------   -----------------  -----------------  -----------------  -----------------
         O            1.067184587714     0.536372703441    -0.512568095062    15.994914619570
         O           -1.090418612286     0.519537703441     0.535336304938    15.994914619570
         C            1.713994587714    -0.237037296559     0.503782904938    12.000000000000
         C           -1.703513412286    -0.237338296559    -0.513850095062    12.000000000000
         C            0.005108587714     1.305893703441    -0.005128095062    12.000000000000
         C            2.877539587714    -0.952996296559    -0.146701095062    12.000000000000
         C           -2.867354412286    -0.952800296559     0.136632904938    12.000000000000
         H            2.058915587714     0.431323703441     1.307143904938     1.007825032230
         H            1.004446587714    -0.946742296559     0.944160904938     1.007825032230
         H           -2.048076412286     0.430798703441    -1.317544095062     1.007825032230
         H           -0.993980412286    -0.947341296559    -0.953758095062     1.007825032230
         H            0.334582587714     1.930025703441     0.835640904938     1.007825032230
         H           -0.324374412286     1.929952703441    -0.845959095062     1.007825032230
         H            3.411608587714    -1.561485296559     0.588756904938     1.007825032230
         H            2.518622587714    -1.605905296559    -0.945447095062     1.007825032230
         H            3.573992587714    -0.230491296559    -0.577402095062     1.007825032230
         H           -3.401282412286    -1.561556296559    -0.598706095062     1.007825032230
         H           -2.508772412286    -1.605393296559     0.935786904938     1.007825032230
         H           -3.563839412286    -0.230000296559     0.566786904938     1.007825032230

  Basis Set: AUG-CC-PVTZ
    Blend: AUG-CC-PVTZ
  Basis Set: (AUG-CC-PVTZ AUX)
    Blend: AUG-CC-PVTZ-JKFIT
	 Reference Energy          =    -346.1614176446188367 [Eh]
	 Singles Energy            =      -0.0000000000000000 [Eh]
	 Same-Spin Energy          =      -0.3399311558003958 [Eh]
	 Opposite-Spin Energy      =      -1.1641999784056818 [Eh]
	 Correlation Energy        =      -1.5041311342060777 [Eh]
	 Total Energy              =    -347.6655487788249275 [Eh]

	 ================> DF-SCS-MP2 Energies <==================
	-----------------------------------------------------------
	 SCS Same-Spin Scale       =       0.3333333333333333 [-]
	 SCS Opposite-Spin Scale   =       1.2000000000000000 [-]
	 SCS Same-Spin Energy      =      -0.1133103852667986 [Eh]
	 SCS Opposite-Spin Energy  =      -1.3970399740868180 [Eh]
	 SCS Correlation Energy    =      -1.5103503593536167 [Eh]
	 SCS Total Energy          =    -347.6717680039724314 [Eh]
	-----------------------------------------------------------

  Dipole Moment: [D]
     X:     0.2153      Y:    -0.2978      Z:    -0.0711     Total:     0.3743

*** Psi4 exiting successfully. Buy a developer a beer!
