                               Psi4 1.3.2 release

  ==> Input File <==

--------------------------------------------------------------------------
#psi4
#
memory 32 gb

molecule  {
0 1
  O        1.0856039     0.6094870    -0.5187803
  O       -1.0619730     0.5678990     0.5074520
  C        1.7088310    -0.2054710     0.5088440
  C       -1.7086770    -0.2057720    -0.5087890
  C       -0.0000550     1.3374600    -0.0000670
  C        2.8723760    -0.9214300    -0.1416400
  C       -2.8725180    -0.9212340     0.1416940
  H        2.0537520     0.4628900     1.3122050
  H        0.9992830    -0.9151760     0.9492220
  H       -2.0532400     0.4623650    -1.3124830
  H       -0.9991440    -0.9157750    -0.9486970
  H        0.3294190     1.9615920     0.8407020
  H       -0.3295380     1.9615190    -0.8408980
  H        3.4064450    -1.5299190     0.5938180
  H        2.5134590    -1.5743390    -0.9403860
  H        3.5688290    -0.1989250    -0.5723410
  H       -3.4064460    -1.5299900    -0.5936450
  H       -2.5139360    -1.5738270     0.9408480
  H       -3.5690030    -0.1984340     0.5718480
units angstrom
no_reorient  #important for SAPT in psi4, default
symmetry c1  #important for SAPT in psi4, default
}

set PROPERTIES_ORIGIN ["COM"]
properties('MP2/aug-cc-pvtz', properties = ['dipole'])
--------------------------------------------------------------------------

    Molecular point group: c1
  Charge       = 0
  Multiplicity = 1
  Basis Set: AUG-CC-PVTZ
    Blend: AUG-CC-PVTZ
  Basis Set: (AUG-CC-PVTZ AUX)
    Blend: AUG-CC-PVTZ-JKFIT

    Orbital Energies [Eh]
    ---------------------

    Doubly Occupied:

       1A    -20.560604     2A    -20.560350     3A    -11.322456
       4A    -11.275398     5A    -11.274108     6A    -11.215035
       7A    -11.214860     8A     -1.407154     9A     -1.340153
      10A     -1.032919    11A     -1.013296    12A     -0.894448
      13A     -0.847491    14A     -0.812783    15A     -0.689302
      16A     -0.683102    17A     -0.672387    18A     -0.618386
      19A     -0.617654    20A     -0.578267    21A     -0.538373
      22A     -0.537002    23A     -0.525543    24A     -0.513794
      25A     -0.502671    26A     -0.495286    27A     -0.462874
      28A     -0.438453    29A     -0.435586

  @DF-RHF Final Energy:  -346.16397377516188

   => Energetics <=

    Nuclear Repulsion Energy =            331.8472920281866436
    One-Electron Energy =               -1129.8630662837101681
    Two-Electron Energy =                 451.8518004803616464
    Total Energy =                       -346.1639737751618782
  Basis Set: (AUG-CC-PVTZ AUX)
    Blend: AUG-CC-PVTZ-RI
    Molecular point group: c1

    Geometry (in Angstrom), charge = 0, multiplicity = 1:

       Center              X                  Y                   Z               Mass
    ------------   -----------------  -----------------  -----------------  -----------------
         O            1.081978575559     0.568954928416    -0.517046151140    15.994914619570
         O           -1.065598324441     0.527366928416     0.509186148860    15.994914619570
         C            1.705205675559    -0.246003071584     0.510578148860    12.000000000000
         C           -1.712302324441    -0.246304071584    -0.507054851140    12.000000000000
         C           -0.003680324441     1.296927928416     0.001667148860    12.000000000000
         C            2.868750675559    -0.961962071584    -0.139905851140    12.000000000000
         C           -2.876143324441    -0.961766071584     0.143428148860    12.000000000000
         H            2.050126675559     0.422357928416     1.313939148860     1.007825032230
         H            0.995657675559    -0.955708071584     0.950956148860     1.007825032230
         H           -2.056865324441     0.421832928416    -1.310748851140     1.007825032230
         H           -1.002769324441    -0.956307071584    -0.946962851140     1.007825032230
         H            0.325793675559     1.921059928416     0.842436148860     1.007825032230
         H           -0.333163324441     1.920986928416    -0.839163851140     1.007825032230
         H            3.402819675559    -1.570451071584     0.595552148860     1.007825032230
         H            2.509833675559    -1.614871071584    -0.938651851140     1.007825032230
         H            3.565203675559    -0.239457071584    -0.570606851140     1.007825032230
         H           -3.410071324441    -1.570522071584    -0.591910851140     1.007825032230
         H           -2.517561324441    -1.614359071584     0.942582148860     1.007825032230
         H           -3.572628324441    -0.238966071584     0.573582148860     1.007825032230

  Basis Set: AUG-CC-PVTZ
    Blend: AUG-CC-PVTZ
  Basis Set: (AUG-CC-PVTZ AUX)
    Blend: AUG-CC-PVTZ-JKFIT
	 Reference Energy          =    -346.1639737751618782 [Eh]
	 Singles Energy            =      -0.0000000000000000 [Eh]
	 Same-Spin Energy          =      -0.3396258102515498 [Eh]
	 Opposite-Spin Energy      =      -1.1631490154000748 [Eh]
	 Correlation Energy        =      -1.5027748256516245 [Eh]
	 Total Energy              =    -347.6667486008134915 [Eh]

	 ================> DF-SCS-MP2 Energies <==================
	-----------------------------------------------------------
	 SCS Same-Spin Scale       =       0.3333333333333333 [-]
	 SCS Opposite-Spin Scale   =       1.2000000000000000 [-]
	 SCS Same-Spin Energy      =      -0.1132086034171833 [Eh]
	 SCS Opposite-Spin Energy  =      -1.3957788184800897 [Eh]
	 SCS Correlation Energy    =      -1.5089874218972730 [Eh]
	 SCS Total Energy          =    -347.6729611970591236 [Eh]
	-----------------------------------------------------------

  Dipole Moment: [D]
     X:    -0.0293      Y:    -0.5041      Z:     0.0359     Total:     0.5062

*** Psi4 exiting successfully. Buy a developer a beer!
