                               Psi4 1.3.2 release

  ==> Input File <==

--------------------------------------------------------------------------
#psi4
#
memory 32 gb

molecule  {
0 1
  O        1.0620210     0.5679390    -0.5075070
  O       -1.0710126     0.6090780     0.4806262
  C        1.7088310    -0.2054710     0.5088440
  C       -1.7086770    -0.2057720    -0.5087890
  C       -0.0000550     1.3374600    -0.0000670
  C        2.8723760    -0.9214300    -0.1416400
  C       -2.8725180    -0.9212340     0.1416940
  H        2.0537520     0.4628900     1.3122050
  H        0.9992830    -0.9151760     0.9492220
  H       -2.0532400     0.4623650    -1.3124830
  H       -0.9991440    -0.9157750    -0.9486970
  H        0.3294190     1.9615920     0.8407020
  H       -0.3295380     1.9615190    -0.8408980
  H        3.4064450    -1.5299190     0.5938180
  H        2.5134590    -1.5743390    -0.9403860
  H        3.5688290    -0.1989250    -0.5723410
  H       -3.4064460    -1.5299900    -0.5936450
  H       -2.5139360    -1.5738270     0.9408480
  H       -3.5690030    -0.1984340     0.5718480
units angstrom
no_reorient  #important for SAPT in psi4, default
symmetry c1  #important for SAPT in psi4, default
}

set PROPERTIES_ORIGIN ["COM"]
properties('MP2/aug-cc-pvtz', properties = ['dipole'])
--------------------------------------------------------------------------

    Molecular point group: c1
  Charge       = 0
  Multiplicity = 1
  Basis Set: AUG-CC-PVTZ
    Blend: AUG-CC-PVTZ
  Basis Set: (AUG-CC-PVTZ AUX)
    Blend: AUG-CC-PVTZ-JKFIT

    Orbital Energies [Eh]
    ---------------------

    Doubly Occupied:

       1A    -20.558535     2A    -20.558394     3A    -11.321129
       4A    -11.274796     5A    -11.273576     6A    -11.215903
       7A    -11.214423     8A     -1.414372     9A     -1.344406
      10A     -1.034954    11A     -1.013494    12A     -0.896969
      13A     -0.848731    14A     -0.810732    15A     -0.693586
      16A     -0.687047    17A     -0.674835    18A     -0.620717
      19A     -0.618206    20A     -0.578419    21A     -0.539768
      22A     -0.538141    23A     -0.526783    24A     -0.514689
      25A     -0.502850    26A     -0.496311    27A     -0.459364
      28A     -0.437282    29A     -0.433736

  @DF-RHF Final Energy:  -346.16629693895675

   => Energetics <=

    Nuclear Repulsion Energy =            332.7314894029162815
    One-Electron Energy =               -1131.5912765610394217
    Two-Electron Energy =                 452.6934902191663923
    Total Energy =                       -346.1662969389567479
  Basis Set: (AUG-CC-PVTZ AUX)
    Blend: AUG-CC-PVTZ-RI
    Molecular point group: c1

    Geometry (in Angstrom), charge = 0, multiplicity = 1:

       Center              X                  Y                   Z               Mass
    ------------   -----------------  -----------------  -----------------  -----------------
         O            1.063408890440     0.527463633950    -0.503382843494    15.994914619570
         O           -1.069624709560     0.568602633950     0.484750356506    15.994914619570
         C            1.710218890440    -0.245946366050     0.512968156506    12.000000000000
         C           -1.707289109560    -0.246247366050    -0.504664843494    12.000000000000
         C            0.001332890440     1.296984633950     0.004057156506    12.000000000000
         C            2.873763890440    -0.961905366050    -0.137515843494    12.000000000000
         C           -2.871130109560    -0.961709366050     0.145818156506    12.000000000000
         H            2.055139890440     0.422414633950     1.316329156506     1.007825032230
         H            1.000670890440    -0.955651366050     0.953346156506     1.007825032230
         H           -2.051852109560     0.421889633950    -1.308358843494     1.007825032230
         H           -0.997756109560    -0.956250366050    -0.944572843494     1.007825032230
         H            0.330806890440     1.921116633950     0.844826156506     1.007825032230
         H           -0.328150109560     1.921043633950    -0.836773843494     1.007825032230
         H            3.407832890440    -1.570394366050     0.597942156506     1.007825032230
         H            2.514846890440    -1.614814366050    -0.936261843494     1.007825032230
         H            3.570216890440    -0.239400366050    -0.568216843494     1.007825032230
         H           -3.405058109560    -1.570465366050    -0.589520843494     1.007825032230
         H           -2.512548109560    -1.614302366050     0.944972156506     1.007825032230
         H           -3.567615109560    -0.238909366050     0.575972156506     1.007825032230

  Basis Set: AUG-CC-PVTZ
    Blend: AUG-CC-PVTZ
  Basis Set: (AUG-CC-PVTZ AUX)
    Blend: AUG-CC-PVTZ-JKFIT
	 Reference Energy          =    -346.1662969389567479 [Eh]
	 Singles Energy            =      -0.0000000000000000 [Eh]
	 Same-Spin Energy          =      -0.3392545174060536 [Eh]
	 Opposite-Spin Energy      =      -1.1616224100009429 [Eh]
	 Correlation Energy        =      -1.5008769274069964 [Eh]
	 Total Energy              =    -347.6671738663637257 [Eh]

	 ================> DF-SCS-MP2 Energies <==================
	-----------------------------------------------------------
	 SCS Same-Spin Scale       =       0.3333333333333333 [-]
	 SCS Opposite-Spin Scale   =       1.2000000000000000 [-]
	 SCS Same-Spin Energy      =      -0.1130848391353512 [Eh]
	 SCS Opposite-Spin Energy  =      -1.3939468920011315 [Eh]
	 SCS Correlation Energy    =      -1.5070317311364827 [Eh]
	 SCS Total Energy          =    -347.6733286700932126 [Eh]
	-----------------------------------------------------------

  Dipole Moment: [D]
     X:    -0.0475      Y:    -0.5073      Z:     0.0620     Total:     0.5132

*** Psi4 exiting successfully. Buy a developer a beer!
