                               Psi4 1.3.2 release

  ==> Input File <==

--------------------------------------------------------------------------
#psi4
#
memory 32 gb

molecule  {
0 1
  O        1.0497425     0.5475134    -0.5016376
  O       -1.0619730     0.5678990     0.5074520
  C        1.7088310    -0.2054710     0.5088440
  C       -1.7086770    -0.2057720    -0.5087890
  C       -0.0000550     1.3374600    -0.0000670
  C        2.8723760    -0.9214300    -0.1416400
  C       -2.8725180    -0.9212340     0.1416940
  H        2.0537520     0.4628900     1.3122050
  H        0.9992830    -0.9151760     0.9492220
  H       -2.0532400     0.4623650    -1.3124830
  H       -0.9991440    -0.9157750    -0.9486970
  H        0.3294190     1.9615920     0.8407020
  H       -0.3295380     1.9615190    -0.8408980
  H        3.4064450    -1.5299190     0.5938180
  H        2.5134590    -1.5743390    -0.9403860
  H        3.5688290    -0.1989250    -0.5723410
  H       -3.4064460    -1.5299900    -0.5936450
  H       -2.5139360    -1.5738270     0.9408480
  H       -3.5690030    -0.1984340     0.5718480
units angstrom
no_reorient  #important for SAPT in psi4, default
symmetry c1  #important for SAPT in psi4, default
}

set PROPERTIES_ORIGIN ["COM"]
properties('MP2/aug-cc-pvtz', properties = ['dipole'])
--------------------------------------------------------------------------

    Molecular point group: c1
  Charge       = 0
  Multiplicity = 1
  Basis Set: AUG-CC-PVTZ
    Blend: AUG-CC-PVTZ
  Basis Set: (AUG-CC-PVTZ AUX)
    Blend: AUG-CC-PVTZ-JKFIT

    Orbital Energies [Eh]
    ---------------------

    Doubly Occupied:

       1A    -20.558523     2A    -20.558421     3A    -11.324427
       4A    -11.273014     5A    -11.272452     6A    -11.214067
       7A    -11.214021     8A     -1.411654     9A     -1.342092
      10A     -1.033316    11A     -1.011697    12A     -0.897292
      13A     -0.847605    14A     -0.811222    15A     -0.692981
      16A     -0.684421    17A     -0.672354    18A     -0.621750
      19A     -0.617713    20A     -0.577932    21A     -0.537821
      22A     -0.537054    23A     -0.526050    24A     -0.515726
      25A     -0.501386    26A     -0.494238    27A     -0.461642
      28A     -0.437078    29A     -0.433560

  @DF-RHF Final Energy:  -346.16616839825213

   => Energetics <=

    Nuclear Repulsion Energy =            332.8794094957352172
    One-Electron Energy =               -1131.9281416936971709
    Two-Electron Energy =                 452.8825637997098283
    Total Energy =                       -346.1661683982521254
  Basis Set: (AUG-CC-PVTZ AUX)
    Blend: AUG-CC-PVTZ-RI
    Molecular point group: c1

    Geometry (in Angstrom), charge = 0, multiplicity = 1:

       Center              X                  Y                   Z               Mass
    ------------   -----------------  -----------------  -----------------  -----------------
         O            1.051628123651     0.516505030576    -0.502537830441    15.994914619570
         O           -1.060087376349     0.536890630576     0.506551769559    15.994914619570
         C            1.710716623651    -0.236479369424     0.507943769559    12.000000000000
         C           -1.706791376349    -0.236780369424    -0.509689230441    12.000000000000
         C            0.001830623651     1.306451630576    -0.000967230441    12.000000000000
         C            2.874261623651    -0.952438369424    -0.142540230441    12.000000000000
         C           -2.870632376349    -0.952242369424     0.140793769559    12.000000000000
         H            2.055637623651     0.431881630576     1.311304769559     1.007825032230
         H            1.001168623651    -0.946184369424     0.948321769559     1.007825032230
         H           -2.051354376349     0.431356630576    -1.313383230441     1.007825032230
         H           -0.997258376349    -0.946783369424    -0.949597230441     1.007825032230
         H            0.331304623651     1.930583630576     0.839801769559     1.007825032230
         H           -0.327652376349     1.930510630576    -0.841798230441     1.007825032230
         H            3.408330623651    -1.560927369424     0.592917769559     1.007825032230
         H            2.515344623651    -1.605347369424    -0.941286230441     1.007825032230
         H            3.570714623651    -0.229933369424    -0.573241230441     1.007825032230
         H           -3.404560376349    -1.560998369424    -0.594545230441     1.007825032230
         H           -2.512050376349    -1.604835369424     0.939947769559     1.007825032230
         H           -3.567117376349    -0.229442369424     0.570947769559     1.007825032230

  Basis Set: AUG-CC-PVTZ
    Blend: AUG-CC-PVTZ
  Basis Set: (AUG-CC-PVTZ AUX)
    Blend: AUG-CC-PVTZ-JKFIT
	 Reference Energy          =    -346.1661683982521254 [Eh]
	 Singles Energy            =      -0.0000000000000000 [Eh]
	 Same-Spin Energy          =      -0.3393798842850995 [Eh]
	 Opposite-Spin Energy      =      -1.1621249796275155 [Eh]
	 Correlation Energy        =      -1.5015048639126150 [Eh]
	 Total Energy              =    -347.6676732621647261 [Eh]

	 ================> DF-SCS-MP2 Energies <==================
	-----------------------------------------------------------
	 SCS Same-Spin Scale       =       0.3333333333333333 [-]
	 SCS Opposite-Spin Scale   =       1.2000000000000000 [-]
	 SCS Same-Spin Energy      =      -0.1131266280950332 [Eh]
	 SCS Opposite-Spin Energy  =      -1.3945499755530186 [Eh]
	 SCS Correlation Energy    =      -1.5076766036480518 [Eh]
	 SCS Total Energy          =    -347.6738450019001903 [Eh]
	-----------------------------------------------------------

  Dipole Moment: [D]
     X:     0.0162      Y:    -0.3226      Z:    -0.0181     Total:     0.3236

*** Psi4 exiting successfully. Buy a developer a beer!
