                               Psi4 1.4a3.dev225

  ==> Input File <==

--------------------------------------------------------------------------
#psi4
#
memory 32 gb

molecule  {
0 1
  O        1.0619850     0.5679060    -0.5074190
  O       -1.0619850     0.5679070     0.5074170
  C        1.7177628    -0.2163937     0.5229755
  C       -1.7087210    -0.2055970    -0.5087750
  C        0.0000010     1.3374800    -0.0000030
  C        2.8724190    -0.9213410    -0.1416800
  C       -2.8724250    -0.9213350     0.1416820
  H        2.0535020     0.4626010     1.3123700
  H        0.9992280    -0.9154830     0.9489700
  H       -2.0534850     0.4625820    -1.3123800
  H       -0.9992230    -0.9155040    -0.9489490
  H        0.3294410     1.9615530     0.8408220
  H       -0.3294430     1.9615480    -0.8408310
  H        3.4062720    -1.5300890     0.5937210
  H        2.5136630    -1.5739790    -0.9407190
  H        3.5689960    -0.1987040    -0.5719490
  H       -3.4062730    -1.5300900    -0.5937160
  H       -2.5136820    -1.5739620     0.9407340
  H       -3.5690030    -0.1986870     0.5719320
units angstrom
no_reorient  #important for SAPT in psi4, default
symmetry c1  #important for SAPT in psi4, default
}

set PROPERTIES_ORIGIN ["COM"]
properties('MP2/aug-cc-pvtz', properties = ['dipole'])
--------------------------------------------------------------------------

    Molecular point group: c1
  Charge       = 0
  Multiplicity = 1
  Basis Set: AUG-CC-PVTZ
    Blend: AUG-CC-PVTZ
  Basis Set: (AUG-CC-PVTZ AUX)
    Blend: AUG-CC-PVTZ-JKFIT

    Orbital Energies [Eh]
    ---------------------

    Doubly Occupied:

       1A    -20.558377     2A    -20.557176     3A    -11.322495
       4A    -11.273550     5A    -11.272872     6A    -11.214896
       7A    -11.214037     8A     -1.406694     9A     -1.337321
      10A     -1.033597    11A     -1.013171    12A     -0.894545
      13A     -0.847519    14A     -0.812284    15A     -0.690178
      16A     -0.681470    17A     -0.671295    18A     -0.621218
      19A     -0.617478    20A     -0.576406    21A     -0.537865
      22A     -0.535793    23A     -0.525954    24A     -0.514242
      25A     -0.503686    26A     -0.495190    27A     -0.460593
      28A     -0.437946    29A     -0.434601

  @DF-RHF Final Energy:  -346.16509669201190

   => Energetics <=

    Nuclear Repulsion Energy =            332.2544149528097250
    One-Electron Energy =               -1130.7141287855183691
    Two-Electron Energy =                 452.2946171406967437
    Total Energy =                       -346.1650966920119004
  Basis Set: (AUG-CC-PVTZ AUX)
    Blend: AUG-CC-PVTZ-RI
    Molecular point group: c1

    Geometry (in Angstrom), charge = 0, multiplicity = 1:

       Center              X                  Y                   Z               Mass
    ------------   -----------------  -----------------  -----------------  -----------------
         O            1.060943198888     0.535002685708    -0.509055826908    15.994914619570
         O           -1.063026801112     0.535003685708     0.505780173092    15.994914619570
         C            1.716720998888    -0.249297014292     0.521338673092    12.000000000000
         C           -1.709762801112    -0.238500314292    -0.510411826908    12.000000000000
         C           -0.001040801112     1.304576685708    -0.001639826908    12.000000000000
         C            2.871377198888    -0.954244314292    -0.143316826908    12.000000000000
         C           -2.873466801112    -0.954238314292     0.140045173092    12.000000000000
         H            2.052460198888     0.429697685708     1.310733173092     1.007825032230
         H            0.998186198888    -0.948386314292     0.947333173092     1.007825032230
         H           -2.054526801112     0.429678685708    -1.314016826908     1.007825032230
         H           -1.000264801112    -0.948407314292    -0.950585826908     1.007825032230
         H            0.328399198888     1.928649685708     0.839185173092     1.007825032230
         H           -0.330484801112     1.928644685708    -0.842467826908     1.007825032230
         H            3.405230198888    -1.562992314292     0.592084173092     1.007825032230
         H            2.512621198888    -1.606882314292    -0.942355826908     1.007825032230
         H            3.567954198888    -0.231607314292    -0.573585826908     1.007825032230
         H           -3.407314801112    -1.562993314292    -0.595352826908     1.007825032230
         H           -2.514723801112    -1.606865314292     0.939097173092     1.007825032230
         H           -3.570044801112    -0.231590314292     0.570295173092     1.007825032230

  Basis Set: AUG-CC-PVTZ
    Blend: AUG-CC-PVTZ
  Basis Set: (AUG-CC-PVTZ AUX)
    Blend: AUG-CC-PVTZ-JKFIT
	 Reference Energy          =    -346.1650966920119004 [Eh]
	 Singles Energy            =      -0.0000000000000000 [Eh]
	 Same-Spin Energy          =      -0.3395103058150532 [Eh]
	 Opposite-Spin Energy      =      -1.1627510720993537 [Eh]
	 Correlation Energy        =      -1.5022613779144069 [Eh]
	 Total Energy              =    -347.6673580699263084 [Eh]

	 ================> DF-SCS-MP2 Energies <==================
	-----------------------------------------------------------
	 SCS Same-Spin Scale       =       0.3333333333333333 [-]
	 SCS Opposite-Spin Scale   =       1.2000000000000000 [-]
	 SCS Same-Spin Energy      =      -0.1131701019383511 [Eh]
	 SCS Opposite-Spin Energy  =      -1.3953012865192245 [Eh]
	 SCS Correlation Energy    =      -1.5084713884575756 [Eh]
	 SCS Total Energy          =    -347.6735680804694653 [Eh]
	-----------------------------------------------------------

  Dipole Moment: [D]
     X:     0.0561      Y:    -0.4229      Z:     0.0385     Total:     0.4283

*** Psi4 exiting successfully. Buy a developer a beer!
