                               Psi4 1.3.2 release

  ==> Input File <==

--------------------------------------------------------------------------
#psi4
#
memory 32 gb

molecule  {
0 1
  O        1.0620210     0.5679390    -0.5075070
  O       -1.0619730     0.5678990     0.5074520
  C        1.7088310    -0.2054710     0.5088440
  C       -1.7086770    -0.2057720    -0.5087890
  C       -0.1511011     1.4468995     0.0721000
  C        2.8723760    -0.9214300    -0.1416400
  C       -2.8725180    -0.9212340     0.1416940
  H        2.0537520     0.4628900     1.3122050
  H        0.9992830    -0.9151760     0.9492220
  H       -2.0532400     0.4623650    -1.3124830
  H       -0.9991440    -0.9157750    -0.9486970
  H        0.3294190     1.9615920     0.8407020
  H       -0.3295380     1.9615190    -0.8408980
  H        3.4064450    -1.5299190     0.5938180
  H        2.5134590    -1.5743390    -0.9403860
  H        3.5688290    -0.1989250    -0.5723410
  H       -3.4064460    -1.5299900    -0.5936450
  H       -2.5139360    -1.5738270     0.9408480
  H       -3.5690030    -0.1984340     0.5718480
units angstrom
no_reorient  #important for SAPT in psi4, default
symmetry c1  #important for SAPT in psi4, default
}

set PROPERTIES_ORIGIN ["COM"]
properties('MP2/aug-cc-pvtz', properties = ['dipole'])
--------------------------------------------------------------------------

    Molecular point group: c1
  Charge       = 0
  Multiplicity = 1
  Basis Set: AUG-CC-PVTZ
    Blend: AUG-CC-PVTZ
  Basis Set: (AUG-CC-PVTZ AUX)
    Blend: AUG-CC-PVTZ-JKFIT

    Orbital Energies [Eh]
    ---------------------

    Doubly Occupied:

       1A    -20.577496     2A    -20.526987     3A    -11.331794
       4A    -11.284078     5A    -11.256956     6A    -11.220856
       7A    -11.203177     8A     -1.421352     9A     -1.297977
      10A     -1.041401    11A     -0.996312    12A     -0.909790
      13A     -0.845727    14A     -0.807187    15A     -0.698676
      16A     -0.690553    17A     -0.672372    18A     -0.618007
      19A     -0.606423    20A     -0.569982    21A     -0.544266
      22A     -0.533204    23A     -0.527178    24A     -0.505541
      25A     -0.504802    26A     -0.494228    27A     -0.467607
      28A     -0.416731    29A     -0.413375

  @DF-RHF Final Energy:  -346.13788788231756

   => Energetics <=

    Nuclear Repulsion Energy =            330.5804527404932855
    One-Electron Energy =               -1127.4686083398669325
    Two-Electron Energy =                 450.7502677170561469
    Total Energy =                       -346.1378878823175569
  Basis Set: (AUG-CC-PVTZ AUX)
    Blend: AUG-CC-PVTZ-RI
    Molecular point group: c1

    Geometry (in Angstrom), charge = 0, multiplicity = 1:

       Center              X                  Y                   Z               Mass
    ------------   -----------------  -----------------  -----------------  -----------------
         O            1.079434119126     0.521174280050    -0.515825521954    15.994914619570
         O           -1.044559880874     0.521134280050     0.499133478046    15.994914619570
         C            1.726244119126    -0.252235719950     0.500525478046    12.000000000000
         C           -1.691263880874    -0.252536719950    -0.517107521954    12.000000000000
         C           -0.133687980874     1.400134780050     0.063781478046    12.000000000000
         C            2.889789119126    -0.968194719950    -0.149958521954    12.000000000000
         C           -2.855104880874    -0.967998719950     0.133375478046    12.000000000000
         H            2.071165119126     0.416125280050     1.303886478046     1.007825032230
         H            1.016696119126    -0.961940719950     0.940903478046     1.007825032230
         H           -2.035826880874     0.415600280050    -1.320801521954     1.007825032230
         H           -0.981730880874    -0.962539719950    -0.957015521954     1.007825032230
         H            0.346832119126     1.914827280050     0.832383478046     1.007825032230
         H           -0.312124880874     1.914754280050    -0.849216521954     1.007825032230
         H            3.423858119126    -1.576683719950     0.585499478046     1.007825032230
         H            2.530872119126    -1.621103719950    -0.948704521954     1.007825032230
         H            3.586242119126    -0.245689719950    -0.580659521954     1.007825032230
         H           -3.389032880874    -1.576754719950    -0.601963521954     1.007825032230
         H           -2.496522880874    -1.620591719950     0.932529478046     1.007825032230
         H           -3.551589880874    -0.245198719950     0.563529478046     1.007825032230

  Basis Set: AUG-CC-PVTZ
    Blend: AUG-CC-PVTZ
  Basis Set: (AUG-CC-PVTZ AUX)
    Blend: AUG-CC-PVTZ-JKFIT
	 Reference Energy          =    -346.1378878823175569 [Eh]
	 Singles Energy            =      -0.0000000000000000 [Eh]
	 Same-Spin Energy          =      -0.3406467750847172 [Eh]
	 Opposite-Spin Energy      =      -1.1659308425325308 [Eh]
	 Correlation Energy        =      -1.5065776176172481 [Eh]
	 Total Energy              =    -347.6444654999348245 [Eh]

	 ================> DF-SCS-MP2 Energies <==================
	-----------------------------------------------------------
	 SCS Same-Spin Scale       =       0.3333333333333333 [-]
	 SCS Opposite-Spin Scale   =       1.2000000000000000 [-]
	 SCS Same-Spin Energy      =      -0.1135489250282391 [Eh]
	 SCS Opposite-Spin Energy  =      -1.3991170110390370 [Eh]
	 SCS Correlation Energy    =      -1.5126659360672761 [Eh]
	 SCS Total Energy          =    -347.6505538183848216 [Eh]
	-----------------------------------------------------------

  Dipole Moment: [D]
     X:    -1.1651      Y:    -0.0170      Z:     0.1801     Total:     1.1791

*** Psi4 exiting successfully. Buy a developer a beer!
