                               Psi4 1.3.2 release

  ==> Input File <==

--------------------------------------------------------------------------
#psi4
#
memory 32 gb

molecule  {
0 1
  O        1.0620210     0.5679390    -0.5075070
  O       -1.0396208     0.4389129     0.5803776
  C        1.7088310    -0.2054710     0.5088440
  C       -1.7086770    -0.2057720    -0.5087890
  C       -0.0000550     1.3374600    -0.0000670
  C        2.8723760    -0.9214300    -0.1416400
  C       -2.8725180    -0.9212340     0.1416940
  H        2.0537520     0.4628900     1.3122050
  H        0.9992830    -0.9151760     0.9492220
  H       -2.0532400     0.4623650    -1.3124830
  H       -0.9991440    -0.9157750    -0.9486970
  H        0.3294190     1.9615920     0.8407020
  H       -0.3295380     1.9615190    -0.8408980
  H        3.4064450    -1.5299190     0.5938180
  H        2.5134590    -1.5743390    -0.9403860
  H        3.5688290    -0.1989250    -0.5723410
  H       -3.4064460    -1.5299900    -0.5936450
  H       -2.5139360    -1.5738270     0.9408480
  H       -3.5690030    -0.1984340     0.5718480
units angstrom
no_reorient  #important for SAPT in psi4, default
symmetry c1  #important for SAPT in psi4, default
}

set PROPERTIES_ORIGIN ["COM"]
properties('MP2/aug-cc-pvtz', properties = ['dipole'])
--------------------------------------------------------------------------

    Molecular point group: c1
  Charge       = 0
  Multiplicity = 1
  Basis Set: AUG-CC-PVTZ
    Blend: AUG-CC-PVTZ
  Basis Set: (AUG-CC-PVTZ AUX)
    Blend: AUG-CC-PVTZ-JKFIT

    Orbital Energies [Eh]
    ---------------------

    Doubly Occupied:

       1A    -20.562437     2A    -20.560122     3A    -11.332726
       4A    -11.273018     5A    -11.269306     6A    -11.214244
       7A    -11.209457     8A     -1.400421     9A     -1.331169
      10A     -1.029539    11A     -1.006594    12A     -0.896862
      13A     -0.842999    14A     -0.814498    15A     -0.687405
      16A     -0.674563    17A     -0.665904    18A     -0.623750
      19A     -0.612253    20A     -0.576571    21A     -0.536789
      22A     -0.530996    23A     -0.523322    24A     -0.515438
      25A     -0.502055    26A     -0.486469    27A     -0.471935
      28A     -0.436183    29A     -0.430894

  @DF-RHF Final Energy:  -346.15285320467882

   => Energetics <=

    Nuclear Repulsion Energy =            331.8543423908489558
    One-Electron Energy =               -1129.9785533833414775
    Two-Electron Energy =                 451.9713577878137016
    Total Energy =                       -346.1528532046788200
  Basis Set: (AUG-CC-PVTZ AUX)
    Blend: AUG-CC-PVTZ-RI
    Molecular point group: c1

    Geometry (in Angstrom), charge = 0, multiplicity = 1:

       Center              X                  Y                   Z               Mass
    ------------   -----------------  -----------------  -----------------  -----------------
         O            1.058584801578     0.553613506322    -0.518711993707    15.994914619570
         O           -1.043056998422     0.424587406322     0.569172606293    15.994914619570
         C            1.705394801578    -0.219796493678     0.497639006293    12.000000000000
         C           -1.712113198422    -0.220097493678    -0.519993993707    12.000000000000
         C           -0.003491198422     1.323134506322    -0.011271993707    12.000000000000
         C            2.868939801578    -0.935755493678    -0.152844993707    12.000000000000
         C           -2.875954198422    -0.935559493678     0.130489006293    12.000000000000
         H            2.050315801578     0.448564506322     1.301000006293     1.007825032230
         H            0.995846801578    -0.929501493678     0.938017006293     1.007825032230
         H           -2.056676198422     0.448039506322    -1.323687993707     1.007825032230
         H           -1.002580198422    -0.930100493678    -0.959901993707     1.007825032230
         H            0.325982801578     1.947266506322     0.829497006293     1.007825032230
         H           -0.332974198422     1.947193506322    -0.852102993707     1.007825032230
         H            3.403008801578    -1.544244493678     0.582613006293     1.007825032230
         H            2.510022801578    -1.588664493678    -0.951590993707     1.007825032230
         H            3.565392801578    -0.213250493678    -0.583545993707     1.007825032230
         H           -3.409882198422    -1.544315493678    -0.604849993707     1.007825032230
         H           -2.517372198422    -1.588152493678     0.929643006293     1.007825032230
         H           -3.572439198422    -0.212759493678     0.560643006293     1.007825032230

  Basis Set: AUG-CC-PVTZ
    Blend: AUG-CC-PVTZ
  Basis Set: (AUG-CC-PVTZ AUX)
    Blend: AUG-CC-PVTZ-JKFIT
	 Reference Energy          =    -346.1528532046788200 [Eh]
	 Singles Energy            =      -0.0000000000000000 [Eh]
	 Same-Spin Energy          =      -0.3404579245339799 [Eh]
	 Opposite-Spin Energy      =      -1.1658831438874462 [Eh]
	 Correlation Energy        =      -1.5063410684214260 [Eh]
	 Total Energy              =    -347.6591942731002405 [Eh]

	 ================> DF-SCS-MP2 Energies <==================
	-----------------------------------------------------------
	 SCS Same-Spin Scale       =       0.3333333333333333 [-]
	 SCS Opposite-Spin Scale   =       1.2000000000000000 [-]
	 SCS Same-Spin Energy      =      -0.1134859748446600 [Eh]
	 SCS Opposite-Spin Energy  =      -1.3990597726649354 [Eh]
	 SCS Correlation Energy    =      -1.5125457475095954 [Eh]
	 SCS Total Energy          =    -347.6653989521884114 [Eh]
	-----------------------------------------------------------

  Dipole Moment: [D]
     X:     0.1676      Y:    -0.0117      Z:    -0.1577     Total:     0.2305

*** Psi4 exiting successfully. Buy a developer a beer!
