                               Psi4 1.4a3.dev225

  ==> Input File <==

--------------------------------------------------------------------------
#psi4
#
memory 32 gb

molecule  {
0 1
  O        1.0619850     0.5679060    -0.5074190
  O       -1.0619850     0.5679070     0.5074170
  C        1.7087270    -0.2055870     0.5087780
  C       -1.7087210    -0.2055970    -0.5087750
  C       -0.0377586     1.3648427     0.0180385
  C        2.8724190    -0.9213410    -0.1416800
  C       -2.8724250    -0.9213350     0.1416820
  H        2.0535020     0.4626010     1.3123700
  H        0.9992280    -0.9154830     0.9489700
  H       -2.0534850     0.4625820    -1.3123800
  H       -0.9992230    -0.9155040    -0.9489490
  H        0.3294410     1.9615530     0.8408220
  H       -0.3294430     1.9615480    -0.8408310
  H        3.4062720    -1.5300890     0.5937210
  H        2.5136630    -1.5739790    -0.9407190
  H        3.5689960    -0.1987040    -0.5719490
  H       -3.4062730    -1.5300900    -0.5937160
  H       -2.5136820    -1.5739620     0.9407340
  H       -3.5690030    -0.1986870     0.5719320
units angstrom
no_reorient  #important for SAPT in psi4, default
symmetry c1  #important for SAPT in psi4, default
}

set PROPERTIES_ORIGIN ["COM"]
properties('MP2/aug-cc-pvtz', properties = ['dipole'])
--------------------------------------------------------------------------

    Molecular point group: c1
  Charge       = 0
  Multiplicity = 1
  Basis Set: AUG-CC-PVTZ
    Blend: AUG-CC-PVTZ
  Basis Set: (AUG-CC-PVTZ AUX)
    Blend: AUG-CC-PVTZ-JKFIT

    Orbital Energies [Eh]
    ---------------------

    Doubly Occupied:

       1A    -20.563499     2A    -20.551727     3A    -11.324396
       4A    -11.276004     5A    -11.269209     6A    -11.215947
       7A    -11.211573     8A     -1.407380     9A     -1.333645
      10A     -1.033439    11A     -1.009498    12A     -0.899341
      13A     -0.846026    14A     -0.811679    15A     -0.690485
      16A     -0.679752    17A     -0.674518    18A     -0.621541
      19A     -0.615914    20A     -0.575945    21A     -0.538228
      22A     -0.535521    23A     -0.526054    24A     -0.514502
      25A     -0.501875    26A     -0.494607    27A     -0.463354
      28A     -0.436386    29A     -0.431205

  @DF-RHF Final Energy:  -346.16346923050230

   => Energetics <=

    Nuclear Repulsion Energy =            332.0341541709333342
    One-Electron Energy =               -1130.2887508653586792
    Two-Electron Energy =                 452.0911274639230442
    Total Energy =                       -346.1634692305023009
  Basis Set: (AUG-CC-PVTZ AUX)
    Blend: AUG-CC-PVTZ-RI
    Molecular point group: c1

    Geometry (in Angstrom), charge = 0, multiplicity = 1:

       Center              X                  Y                   Z               Mass
    ------------   -----------------  -----------------  -----------------  -----------------
         O            1.066338324544     0.530602067075    -0.509499008567    15.994914619570
         O           -1.057631675456     0.530603067075     0.505336991433    15.994914619570
         C            1.713080324544    -0.242890932925     0.506697991433    12.000000000000
         C           -1.704367675456    -0.242900932925    -0.510855008567    12.000000000000
         C           -0.033405275456     1.327538767075     0.015958491433    12.000000000000
         C            2.876772324544    -0.958644932925    -0.143760008567    12.000000000000
         C           -2.868071675456    -0.958638932925     0.139601991433    12.000000000000
         H            2.057855324544     0.425297067075     1.310289991433     1.007825032230
         H            1.003581324544    -0.952786932925     0.946889991433     1.007825032230
         H           -2.049131675456     0.425278067075    -1.314460008567     1.007825032230
         H           -0.994869675456    -0.952807932925    -0.951029008567     1.007825032230
         H            0.333794324544     1.924249067075     0.838741991433     1.007825032230
         H           -0.325089675456     1.924244067075    -0.842911008567     1.007825032230
         H            3.410625324544    -1.567392932925     0.591640991433     1.007825032230
         H            2.518016324544    -1.611282932925    -0.942799008567     1.007825032230
         H            3.573349324544    -0.236007932925    -0.574029008567     1.007825032230
         H           -3.401919675456    -1.567393932925    -0.595796008567     1.007825032230
         H           -2.509328675456    -1.611265932925     0.938653991433     1.007825032230
         H           -3.564649675456    -0.235990932925     0.569851991433     1.007825032230

  Basis Set: AUG-CC-PVTZ
    Blend: AUG-CC-PVTZ
  Basis Set: (AUG-CC-PVTZ AUX)
    Blend: AUG-CC-PVTZ-JKFIT
	 Reference Energy          =    -346.1634692305023009 [Eh]
	 Singles Energy            =      -0.0000000000000000 [Eh]
	 Same-Spin Energy          =      -0.3394859166106702 [Eh]
	 Opposite-Spin Energy      =      -1.1628904273909904 [Eh]
	 Correlation Energy        =      -1.5023763440016606 [Eh]
	 Total Energy              =    -347.6658455745039760 [Eh]

	 ================> DF-SCS-MP2 Energies <==================
	-----------------------------------------------------------
	 SCS Same-Spin Scale       =       0.3333333333333333 [-]
	 SCS Opposite-Spin Scale   =       1.2000000000000000 [-]
	 SCS Same-Spin Energy      =      -0.1131619722035567 [Eh]
	 SCS Opposite-Spin Energy  =      -1.3954685128691884 [Eh]
	 SCS Correlation Energy    =      -1.5086304850727452 [Eh]
	 SCS Total Energy          =    -347.6720997155750297 [Eh]
	-----------------------------------------------------------

  Dipole Moment: [D]
     X:    -0.2995      Y:    -0.2751      Z:     0.0481     Total:     0.4095

*** Psi4 exiting successfully. Buy a developer a beer!
