                               Psi4 1.3.2 release

  ==> Input File <==

--------------------------------------------------------------------------
#psi4
#
memory 32 gb

molecule  {
0 1
  O        1.0620210     0.5679390    -0.5075070
  O       -1.1299383     0.5333869     0.5720645
  C        1.7088310    -0.2054710     0.5088440
  C       -1.7086770    -0.2057720    -0.5087890
  C       -0.0000550     1.3374600    -0.0000670
  C        2.8723760    -0.9214300    -0.1416400
  C       -2.8725180    -0.9212340     0.1416940
  H        2.0537520     0.4628900     1.3122050
  H        0.9992830    -0.9151760     0.9492220
  H       -2.0532400     0.4623650    -1.3124830
  H       -0.9991440    -0.9157750    -0.9486970
  H        0.3294190     1.9615920     0.8407020
  H       -0.3295380     1.9615190    -0.8408980
  H        3.4064450    -1.5299190     0.5938180
  H        2.5134590    -1.5743390    -0.9403860
  H        3.5688290    -0.1989250    -0.5723410
  H       -3.4064460    -1.5299900    -0.5936450
  H       -2.5139360    -1.5738270     0.9408480
  H       -3.5690030    -0.1984340     0.5718480
units angstrom
no_reorient  #important for SAPT in psi4, default
symmetry c1  #important for SAPT in psi4, default
}

set PROPERTIES_ORIGIN ["COM"]
properties('MP2/aug-cc-pvtz', properties = ['dipole'])
--------------------------------------------------------------------------

    Molecular point group: c1
  Charge       = 0
  Multiplicity = 1
  Basis Set: AUG-CC-PVTZ
    Blend: AUG-CC-PVTZ
  Basis Set: (AUG-CC-PVTZ AUX)
    Blend: AUG-CC-PVTZ-JKFIT

    Orbital Energies [Eh]
    ---------------------

    Doubly Occupied:

       1A    -20.567863     2A    -20.561419     3A    -11.332636
       4A    -11.276446     5A    -11.268955     6A    -11.216507
       7A    -11.208664     8A     -1.399513     9A     -1.334110
      10A     -1.031153    11A     -1.006801    12A     -0.896549
      13A     -0.843177    14A     -0.816212    15A     -0.685946
      16A     -0.676823    17A     -0.667961    18A     -0.620260
      19A     -0.614476    20A     -0.578888    21A     -0.537798
      22A     -0.532334    23A     -0.524357    24A     -0.514696
      25A     -0.501109    26A     -0.488218    27A     -0.471105
      28A     -0.439454    29A     -0.433994

  @DF-RHF Final Energy:  -346.15397764260393

   => Energetics <=

    Nuclear Repulsion Energy =            330.7590992639555907
    One-Electron Energy =               -1127.7313033070986421
    Two-Electron Energy =                 450.8182264005391175
    Total Energy =                       -346.1539776426039339
  Basis Set: (AUG-CC-PVTZ AUX)
    Blend: AUG-CC-PVTZ-RI
    Molecular point group: c1

    Geometry (in Angstrom), charge = 0, multiplicity = 1:

       Center              X                  Y                   Z               Mass
    ------------   -----------------  -----------------  -----------------  -----------------
         O            1.072464211034     0.539095352820    -0.517434490247    15.994914619570
         O           -1.119495088966     0.504543252820     0.562137009753    15.994914619570
         C            1.719274211034    -0.234314647180     0.498916509753    12.000000000000
         C           -1.698233788966    -0.234615647180    -0.518716490247    12.000000000000
         C            0.010388211034     1.308616352820    -0.009994490247    12.000000000000
         C            2.882819211034    -0.950273647180    -0.151567490247    12.000000000000
         C           -2.862074788966    -0.950077647180     0.131766509753    12.000000000000
         H            2.064195211034     0.434046352820     1.302277509753     1.007825032230
         H            1.009726211034    -0.944019647180     0.939294509753     1.007825032230
         H           -2.042796788966     0.433521352820    -1.322410490247     1.007825032230
         H           -0.988700788966    -0.944618647180    -0.958624490247     1.007825032230
         H            0.339862211034     1.932748352820     0.830774509753     1.007825032230
         H           -0.319094788966     1.932675352820    -0.850825490247     1.007825032230
         H            3.416888211034    -1.558762647180     0.583890509753     1.007825032230
         H            2.523902211034    -1.603182647180    -0.950313490247     1.007825032230
         H            3.579272211034    -0.227768647180    -0.582268490247     1.007825032230
         H           -3.396002788966    -1.558833647180    -0.603572490247     1.007825032230
         H           -2.503492788966    -1.602670647180     0.930920509753     1.007825032230
         H           -3.558559788966    -0.227277647180     0.561920509753     1.007825032230

  Basis Set: AUG-CC-PVTZ
    Blend: AUG-CC-PVTZ
  Basis Set: (AUG-CC-PVTZ AUX)
    Blend: AUG-CC-PVTZ-JKFIT
	 Reference Energy          =    -346.1539776426039339 [Eh]
	 Singles Energy            =      -0.0000000000000000 [Eh]
	 Same-Spin Energy          =      -0.3405451327574476 [Eh]
	 Opposite-Spin Energy      =      -1.1662157701461935 [Eh]
	 Correlation Energy        =      -1.5067609029036411 [Eh]
	 Total Energy              =    -347.6607385455075701 [Eh]

	 ================> DF-SCS-MP2 Energies <==================
	-----------------------------------------------------------
	 SCS Same-Spin Scale       =       0.3333333333333333 [-]
	 SCS Opposite-Spin Scale   =       1.2000000000000000 [-]
	 SCS Same-Spin Energy      =      -0.1135150442524825 [Eh]
	 SCS Opposite-Spin Energy  =      -1.3994589241754321 [Eh]
	 SCS Correlation Energy    =      -1.5129739684279147 [Eh]
	 SCS Total Energy          =    -347.6669516110318341 [Eh]
	-----------------------------------------------------------

  Dipole Moment: [D]
     X:     0.4242      Y:    -0.2174      Z:    -0.1364     Total:     0.4959

*** Psi4 exiting successfully. Buy a developer a beer!
