                               Psi4 1.3.2 release

  ==> Input File <==

--------------------------------------------------------------------------
#psi4
#
memory 32 gb

molecule  {
0 1
  O        1.0620210     0.5679390    -0.5075070
  O       -1.0619730     0.5678990     0.5074520
  C        1.7702423    -0.2404722     0.4382147
  C       -1.7086770    -0.2057720    -0.5087890
  C       -0.0000550     1.3374600    -0.0000670
  C        2.8723760    -0.9214300    -0.1416400
  C       -2.8725180    -0.9212340     0.1416940
  H        2.0537520     0.4628900     1.3122050
  H        0.9992830    -0.9151760     0.9492220
  H       -2.0532400     0.4623650    -1.3124830
  H       -0.9991440    -0.9157750    -0.9486970
  H        0.3294190     1.9615920     0.8407020
  H       -0.3295380     1.9615190    -0.8408980
  H        3.4064450    -1.5299190     0.5938180
  H        2.5134590    -1.5743390    -0.9403860
  H        3.5688290    -0.1989250    -0.5723410
  H       -3.4064460    -1.5299900    -0.5936450
  H       -2.5139360    -1.5738270     0.9408480
  H       -3.5690030    -0.1984340     0.5718480
units angstrom
no_reorient  #important for SAPT in psi4, default
symmetry c1  #important for SAPT in psi4, default
}

set PROPERTIES_ORIGIN ["COM"]
properties('MP2/aug-cc-pvtz', properties = ['dipole'])
--------------------------------------------------------------------------

    Molecular point group: c1
  Charge       = 0
  Multiplicity = 1
  Basis Set: AUG-CC-PVTZ
    Blend: AUG-CC-PVTZ
  Basis Set: (AUG-CC-PVTZ AUX)
    Blend: AUG-CC-PVTZ-JKFIT

    Orbital Energies [Eh]
    ---------------------

    Doubly Occupied:

       1A    -20.558782     2A    -20.556506     3A    -11.325155
       4A    -11.279207     5A    -11.272918     6A    -11.213901
       7A    -11.212884     8A     -1.408241     9A     -1.340604
      10A     -1.049201    11A     -1.018672    12A     -0.899510
      13A     -0.843407    14A     -0.803016    15A     -0.691176
      16A     -0.683827    17A     -0.671190    18A     -0.622885
      19A     -0.618000    20A     -0.580462    21A     -0.551761
      22A     -0.538254    23A     -0.529987    24A     -0.513780
      25A     -0.505750    26A     -0.490520    27A     -0.457217
      28A     -0.436846    29A     -0.419674

  @DF-RHF Final Energy:  -346.15383482032956

   => Energetics <=

    Nuclear Repulsion Energy =            332.7183158209215890
    One-Electron Energy =               -1131.5576327577255142
    Two-Electron Energy =                 452.6854821164743612
    Total Energy =                       -346.1538348203295641
  Basis Set: (AUG-CC-PVTZ AUX)
    Blend: AUG-CC-PVTZ-RI
    Molecular point group: c1

    Geometry (in Angstrom), charge = 0, multiplicity = 1:

       Center              X                  Y                   Z               Mass
    ------------   -----------------  -----------------  -----------------  -----------------
         O            1.054939524158     0.537827107597    -0.499362280233    15.994914619570
         O           -1.069054475842     0.537787107597     0.515596719767    15.994914619570
         C            1.763160824158    -0.270584092403     0.446359419767    12.000000000000
         C           -1.715758475842    -0.235883892403    -0.500644280233    12.000000000000
         C           -0.007136475842     1.307348107597     0.008077719767    12.000000000000
         C            2.865294524158    -0.951541892403    -0.133495280233    12.000000000000
         C           -2.879599475842    -0.951345892403     0.149838719767    12.000000000000
         H            2.046670524158     0.432778107597     1.320349719767     1.007825032230
         H            0.992201524158    -0.945287892403     0.957366719767     1.007825032230
         H           -2.060321475842     0.432253107597    -1.304338280233     1.007825032230
         H           -1.006225475842    -0.945886892403    -0.940552280233     1.007825032230
         H            0.322337524158     1.931480107597     0.848846719767     1.007825032230
         H           -0.336619475842     1.931407107597    -0.832753280233     1.007825032230
         H            3.399363524158    -1.560030892403     0.601962719767     1.007825032230
         H            2.506377524158    -1.604450892403    -0.932241280233     1.007825032230
         H            3.561747524158    -0.229036892403    -0.564196280233     1.007825032230
         H           -3.413527475842    -1.560101892403    -0.585500280233     1.007825032230
         H           -2.521017475842    -1.603938892403     0.948992719767     1.007825032230
         H           -3.576084475842    -0.228545892403     0.579992719767     1.007825032230

  Basis Set: AUG-CC-PVTZ
    Blend: AUG-CC-PVTZ
  Basis Set: (AUG-CC-PVTZ AUX)
    Blend: AUG-CC-PVTZ-JKFIT
	 Reference Energy          =    -346.1538348203295641 [Eh]
	 Singles Energy            =      -0.0000000000000000 [Eh]
	 Same-Spin Energy          =      -0.3402335659185859 [Eh]
	 Opposite-Spin Energy      =      -1.1630989215314753 [Eh]
	 Correlation Energy        =      -1.5033324874500611 [Eh]
	 Total Energy              =    -347.6571673077796163 [Eh]

	 ================> DF-SCS-MP2 Energies <==================
	-----------------------------------------------------------
	 SCS Same-Spin Scale       =       0.3333333333333333 [-]
	 SCS Opposite-Spin Scale   =       1.2000000000000000 [-]
	 SCS Same-Spin Energy      =      -0.1134111886395286 [Eh]
	 SCS Opposite-Spin Energy  =      -1.3957187058377702 [Eh]
	 SCS Correlation Energy    =      -1.5091298944772988 [Eh]
	 SCS Total Energy          =    -347.6629647148068898 [Eh]
	-----------------------------------------------------------

  Dipole Moment: [D]
     X:     0.1169      Y:    -0.4679      Z:    -0.1038     Total:     0.4933

*** Psi4 exiting successfully. Buy a developer a beer!
