                               Psi4 1.3.2 release

  ==> Input File <==

--------------------------------------------------------------------------
#psi4
#
memory 32 gb

molecule  {
0 1
  O        1.0620210     0.5679390    -0.5075070
  O       -1.0619730     0.5678990     0.5074520
  C        1.7088310    -0.2054710     0.5088440
  C       -1.7086770    -0.2057720    -0.5087890
  C        0.0754680     1.2827402    -0.0361505
  C        2.8723760    -0.9214300    -0.1416400
  C       -2.8725180    -0.9212340     0.1416940
  H        2.0537520     0.4628900     1.3122050
  H        0.9992830    -0.9151760     0.9492220
  H       -2.0532400     0.4623650    -1.3124830
  H       -0.9991440    -0.9157750    -0.9486970
  H        0.3294190     1.9615920     0.8407020
  H       -0.3295380     1.9615190    -0.8408980
  H        3.4064450    -1.5299190     0.5938180
  H        2.5134590    -1.5743390    -0.9403860
  H        3.5688290    -0.1989250    -0.5723410
  H       -3.4064460    -1.5299900    -0.5936450
  H       -2.5139360    -1.5738270     0.9408480
  H       -3.5690030    -0.1984340     0.5718480
units angstrom
no_reorient  #important for SAPT in psi4, default
symmetry c1  #important for SAPT in psi4, default
}

set PROPERTIES_ORIGIN ["COM"]
properties('MP2/aug-cc-pvtz', properties = ['dipole'])
--------------------------------------------------------------------------

    Molecular point group: c1
  Charge       = 0
  Multiplicity = 1
  Basis Set: AUG-CC-PVTZ
    Blend: AUG-CC-PVTZ
  Basis Set: (AUG-CC-PVTZ AUX)
    Blend: AUG-CC-PVTZ-JKFIT

    Orbital Energies [Eh]
    ---------------------

    Doubly Occupied:

       1A    -20.573767     2A    -20.550218     3A    -11.325054
       4A    -11.282351     5A    -11.268108     6A    -11.220148
       7A    -11.211001     8A     -1.438558     9A     -1.342248
      10A     -1.040677    11A     -1.011288    12A     -0.893433
      13A     -0.850773    14A     -0.810523    15A     -0.704940
      16A     -0.694125    17A     -0.672143    18A     -0.623303
      19A     -0.614444    20A     -0.579754    21A     -0.543305
      22A     -0.539459    23A     -0.524585    24A     -0.512734
      25A     -0.508976    26A     -0.492123    27A     -0.455248
      28A     -0.438814    29A     -0.429441

  @DF-RHF Final Energy:  -346.15626911671308

   => Energetics <=

    Nuclear Repulsion Energy =            333.6469513286664323
    One-Electron Energy =               -1133.3033536282573550
    Two-Electron Energy =                 453.5001331828778461
    Total Energy =                       -346.1562691167130765
  Basis Set: (AUG-CC-PVTZ AUX)
    Blend: AUG-CC-PVTZ-RI
    Molecular point group: c1

    Geometry (in Angstrom), charge = 0, multiplicity = 1:

       Center              X                  Y                   Z               Mass
    ------------   -----------------  -----------------  -----------------  -----------------
         O            1.053312560937     0.540100500383    -0.503345127519    15.994914619570
         O           -1.070681439063     0.540060500383     0.511613872481    15.994914619570
         C            1.700122560937    -0.233309499617     0.513005872481    12.000000000000
         C           -1.717385439063    -0.233610499617    -0.504627127519    12.000000000000
         C            0.066759560937     1.254901700383    -0.031988627519    12.000000000000
         C            2.863667560937    -0.949268499617    -0.137478127519    12.000000000000
         C           -2.881226439063    -0.949072499617     0.145855872481    12.000000000000
         H            2.045043560937     0.435051500383     1.316366872481     1.007825032230
         H            0.990574560937    -0.943014499617     0.953383872481     1.007825032230
         H           -2.061948439063     0.434526500383    -1.308321127519     1.007825032230
         H           -1.007852439063    -0.943613499617    -0.944535127519     1.007825032230
         H            0.320710560937     1.933753500383     0.844863872481     1.007825032230
         H           -0.338246439063     1.933680500383    -0.836736127519     1.007825032230
         H            3.397736560937    -1.557757499617     0.597979872481     1.007825032230
         H            2.504750560937    -1.602177499617    -0.936224127519     1.007825032230
         H            3.560120560937    -0.226763499617    -0.568179127519     1.007825032230
         H           -3.415154439063    -1.557828499617    -0.589483127519     1.007825032230
         H           -2.522644439063    -1.601665499617     0.945009872481     1.007825032230
         H           -3.577711439063    -0.226272499617     0.576009872481     1.007825032230

  Basis Set: AUG-CC-PVTZ
    Blend: AUG-CC-PVTZ
  Basis Set: (AUG-CC-PVTZ AUX)
    Blend: AUG-CC-PVTZ-JKFIT
	 Reference Energy          =    -346.1562691167130765 [Eh]
	 Singles Energy            =      -0.0000000000000000 [Eh]
	 Same-Spin Energy          =      -0.3399952732295041 [Eh]
	 Opposite-Spin Energy      =      -1.1625482500449751 [Eh]
	 Correlation Energy        =      -1.5025435232744793 [Eh]
	 Total Energy              =    -347.6588126399875591 [Eh]

	 ================> DF-SCS-MP2 Energies <==================
	-----------------------------------------------------------
	 SCS Same-Spin Scale       =       0.3333333333333333 [-]
	 SCS Opposite-Spin Scale   =       1.2000000000000000 [-]
	 SCS Same-Spin Energy      =      -0.1133317577431680 [Eh]
	 SCS Opposite-Spin Energy  =      -1.3950579000539700 [Eh]
	 SCS Correlation Energy    =      -1.5083896577971381 [Eh]
	 SCS Total Energy          =    -347.6646587745102011 [Eh]
	-----------------------------------------------------------

  Dipole Moment: [D]
     X:     0.6305      Y:    -0.6364      Z:    -0.1063     Total:     0.9022

*** Psi4 exiting successfully. Buy a developer a beer!
