                               Psi4 1.3.2 release

  ==> Input File <==

--------------------------------------------------------------------------
#psi4
#
memory 32 gb

molecule  {
0 1
  O        0.9836313     0.4491169    -0.4700363
  O       -1.0619730     0.5678990     0.5074520
  C        1.7088310    -0.2054710     0.5088440
  C       -1.7086770    -0.2057720    -0.5087890
  C       -0.0000550     1.3374600    -0.0000670
  C        2.8723760    -0.9214300    -0.1416400
  C       -2.8725180    -0.9212340     0.1416940
  H        2.0537520     0.4628900     1.3122050
  H        0.9992830    -0.9151760     0.9492220
  H       -2.0532400     0.4623650    -1.3124830
  H       -0.9991440    -0.9157750    -0.9486970
  H        0.3294190     1.9615920     0.8407020
  H       -0.3295380     1.9615190    -0.8408980
  H        3.4064450    -1.5299190     0.5938180
  H        2.5134590    -1.5743390    -0.9403860
  H        3.5688290    -0.1989250    -0.5723410
  H       -3.4064460    -1.5299900    -0.5936450
  H       -2.5139360    -1.5738270     0.9408480
  H       -3.5690030    -0.1984340     0.5718480
units angstrom
no_reorient  #important for SAPT in psi4, default
symmetry c1  #important for SAPT in psi4, default
}

set PROPERTIES_ORIGIN ["COM"]
properties('MP2/aug-cc-pvtz', properties = ['dipole'])
--------------------------------------------------------------------------

    Molecular point group: c1
  Charge       = 0
  Multiplicity = 1
  Basis Set: AUG-CC-PVTZ
    Blend: AUG-CC-PVTZ
  Basis Set: (AUG-CC-PVTZ AUX)
    Blend: AUG-CC-PVTZ-JKFIT

    Orbital Energies [Eh]
    ---------------------

    Doubly Occupied:

       1A    -20.555040     2A    -20.554397     3A    -11.327500
       4A    -11.270895     5A    -11.268541     6A    -11.212802
       7A    -11.212580     8A     -1.419543     9A     -1.343111
      10A     -1.033790    11A     -1.009158    12A     -0.901578
      13A     -0.847766    14A     -0.808818    15A     -0.699246
      16A     -0.686001    17A     -0.671812    18A     -0.626172
      19A     -0.617471    20A     -0.576880    21A     -0.538123
      22A     -0.536970    23A     -0.526818    24A     -0.517526
      25A     -0.499143    26A     -0.492698    27A     -0.462500
      28A     -0.432506    29A     -0.426332

  @DF-RHF Final Energy:  -346.16208302108555

   => Energetics <=

    Nuclear Repulsion Energy =            334.5053999330939973
    One-Electron Energy =               -1135.1835307868113887
    Two-Electron Energy =                 454.5160478326318980
    Total Energy =                       -346.1620830210855502
  Basis Set: (AUG-CC-PVTZ AUX)
    Blend: AUG-CC-PVTZ-RI
    Molecular point group: c1

    Geometry (in Angstrom), charge = 0, multiplicity = 1:

       Center              X                  Y                   Z               Mass
    ------------   -----------------  -----------------  -----------------  -----------------
         O            0.995676465428     0.433229468517    -0.475792813908    15.994914619570
         O           -1.049927834572     0.552011568517     0.501695486092    15.994914619570
         C            1.720876165428    -0.221358431483     0.503087486092    12.000000000000
         C           -1.696631834572    -0.221659431483    -0.514545513908    12.000000000000
         C            0.011990165428     1.321572568517    -0.005823513908    12.000000000000
         C            2.884421165428    -0.937317431483    -0.147396513908    12.000000000000
         C           -2.860472834572    -0.937121431483     0.135937486092    12.000000000000
         H            2.065797165428     0.447002568517     1.306448486092     1.007825032230
         H            1.011328165428    -0.931063431483     0.943465486092     1.007825032230
         H           -2.041194834572     0.446477568517    -1.318239513908     1.007825032230
         H           -0.987098834572    -0.931662431483    -0.954453513908     1.007825032230
         H            0.341464165428     1.945704568517     0.834945486092     1.007825032230
         H           -0.317492834572     1.945631568517    -0.846654513908     1.007825032230
         H            3.418490165428    -1.545806431483     0.588061486092     1.007825032230
         H            2.525504165428    -1.590226431483    -0.946142513908     1.007825032230
         H            3.580874165428    -0.214812431483    -0.578097513908     1.007825032230
         H           -3.394400834572    -1.545877431483    -0.599401513908     1.007825032230
         H           -2.501890834572    -1.589714431483     0.935091486092     1.007825032230
         H           -3.556957834572    -0.214321431483     0.566091486092     1.007825032230

  Basis Set: AUG-CC-PVTZ
    Blend: AUG-CC-PVTZ
  Basis Set: (AUG-CC-PVTZ AUX)
    Blend: AUG-CC-PVTZ-JKFIT
	 Reference Energy          =    -346.1620830210855502 [Eh]
	 Singles Energy            =      -0.0000000000000000 [Eh]
	 Same-Spin Energy          =      -0.3392552498962618 [Eh]
	 Opposite-Spin Energy      =      -1.1611761686543687 [Eh]
	 Correlation Energy        =      -1.5004314185506304 [Eh]
	 Total Energy              =    -347.6625144396361975 [Eh]

	 ================> DF-SCS-MP2 Energies <==================
	-----------------------------------------------------------
	 SCS Same-Spin Scale       =       0.3333333333333333 [-]
	 SCS Opposite-Spin Scale   =       1.2000000000000000 [-]
	 SCS Same-Spin Energy      =      -0.1130850832987539 [Eh]
	 SCS Opposite-Spin Energy  =      -1.3934114023852424 [Eh]
	 SCS Correlation Energy    =      -1.5064964856839964 [Eh]
	 SCS Total Energy          =    -347.6685795067695608 [Eh]
	-----------------------------------------------------------

  Dipole Moment: [D]
     X:     0.1203      Y:    -0.0338      Z:    -0.1090     Total:     0.1658

*** Psi4 exiting successfully. Buy a developer a beer!
