                               Psi4 1.3.2 release

  ==> Input File <==

--------------------------------------------------------------------------
#psi4
#
memory 32 gb

molecule  {
0 1
  O        1.0739760     0.5885990    -0.5132218
  O       -1.0619730     0.5678990     0.5074520
  C        1.7088310    -0.2054710     0.5088440
  C       -1.7086770    -0.2057720    -0.5087890
  C       -0.0000550     1.3374600    -0.0000670
  C        2.8723760    -0.9214300    -0.1416400
  C       -2.8725180    -0.9212340     0.1416940
  H        2.0537520     0.4628900     1.3122050
  H        0.9992830    -0.9151760     0.9492220
  H       -2.0532400     0.4623650    -1.3124830
  H       -0.9991440    -0.9157750    -0.9486970
  H        0.3294190     1.9615920     0.8407020
  H       -0.3295380     1.9615190    -0.8408980
  H        3.4064450    -1.5299190     0.5938180
  H        2.5134590    -1.5743390    -0.9403860
  H        3.5688290    -0.1989250    -0.5723410
  H       -3.4064460    -1.5299900    -0.5936450
  H       -2.5139360    -1.5738270     0.9408480
  H       -3.5690030    -0.1984340     0.5718480
units angstrom
no_reorient  #important for SAPT in psi4, default
symmetry c1  #important for SAPT in psi4, default
}

set PROPERTIES_ORIGIN ["COM"]
properties('MP2/aug-cc-pvtz', properties = ['dipole'])
--------------------------------------------------------------------------

    Molecular point group: c1
  Charge       = 0
  Multiplicity = 1
  Basis Set: AUG-CC-PVTZ
    Blend: AUG-CC-PVTZ
  Basis Set: (AUG-CC-PVTZ AUX)
    Blend: AUG-CC-PVTZ-JKFIT

    Orbital Energies [Eh]
    ---------------------

    Doubly Occupied:

       1A    -20.559896     2A    -20.559769     3A    -11.323117
       4A    -11.274368     5A    -11.273758     6A    -11.214673
       7A    -11.214604     8A     -1.408611     9A     -1.340907
      10A     -1.033055    11A     -1.012757    12A     -0.895410
      13A     -0.847530    14A     -0.812257    15A     -0.690499
      16A     -0.683572    17A     -0.672400    18A     -0.619551
      19A     -0.617690    20A     -0.578169    21A     -0.538174
      22A     -0.536980    23A     -0.525705    24A     -0.514474
      25A     -0.502289    26A     -0.494924    27A     -0.462301
      28A     -0.438257    29A     -0.435003

  @DF-RHF Final Energy:  -346.16509973314896

   => Energetics <=

    Nuclear Repulsion Energy =            332.1951547706096335
    One-Electron Energy =               -1130.5591090098801033
    Two-Electron Energy =                 452.1988545061215063
    Total Energy =                       -346.1650997331489634
  Basis Set: (AUG-CC-PVTZ AUX)
    Blend: AUG-CC-PVTZ-RI
    Molecular point group: c1

    Geometry (in Angstrom), charge = 0, multiplicity = 1:

       Center              X                  Y                   Z               Mass
    ------------   -----------------  -----------------  -----------------  -----------------
         O            1.072137576052     0.551276861205    -0.512341845482    15.994914619570
         O           -1.063811423948     0.530576861205     0.508331954518    15.994914619570
         C            1.706992576052    -0.242793138795     0.509723954518    12.000000000000
         C           -1.710515423948    -0.243094138795    -0.507909045482    12.000000000000
         C           -0.001893423948     1.300137861205     0.000812954518    12.000000000000
         C            2.870537576052    -0.958752138795    -0.140760045482    12.000000000000
         C           -2.874356423948    -0.958556138795     0.142573954518    12.000000000000
         H            2.051913576052     0.425567861205     1.313084954518     1.007825032230
         H            0.997444576052    -0.952498138795     0.950101954518     1.007825032230
         H           -2.055078423948     0.425042861205    -1.311603045482     1.007825032230
         H           -1.000982423948    -0.953097138795    -0.947817045482     1.007825032230
         H            0.327580576052     1.924269861205     0.841581954518     1.007825032230
         H           -0.331376423948     1.924196861205    -0.840018045482     1.007825032230
         H            3.404606576052    -1.567241138795     0.594697954518     1.007825032230
         H            2.511620576052    -1.611661138795    -0.939506045482     1.007825032230
         H            3.566990576052    -0.236247138795    -0.571461045482     1.007825032230
         H           -3.408284423948    -1.567312138795    -0.592765045482     1.007825032230
         H           -2.515774423948    -1.611149138795     0.941727954518     1.007825032230
         H           -3.570841423948    -0.235756138795     0.572727954518     1.007825032230

  Basis Set: AUG-CC-PVTZ
    Blend: AUG-CC-PVTZ
  Basis Set: (AUG-CC-PVTZ AUX)
    Blend: AUG-CC-PVTZ-JKFIT
	 Reference Energy          =    -346.1650997331489634 [Eh]
	 Singles Energy            =      -0.0000000000000000 [Eh]
	 Same-Spin Energy          =      -0.3395295157126383 [Eh]
	 Opposite-Spin Energy      =      -1.1627699706703016 [Eh]
	 Correlation Energy        =      -1.5022994863829400 [Eh]
	 Total Energy              =    -347.6673992195318874 [Eh]

	 ================> DF-SCS-MP2 Energies <==================
	-----------------------------------------------------------
	 SCS Same-Spin Scale       =       0.3333333333333333 [-]
	 SCS Opposite-Spin Scale   =       1.2000000000000000 [-]
	 SCS Same-Spin Energy      =      -0.1131765052375461 [Eh]
	 SCS Opposite-Spin Energy  =      -1.3953239648043618 [Eh]
	 SCS Correlation Energy    =      -1.5085004700419080 [Eh]
	 SCS Total Energy          =    -347.6736002031908583 [Eh]
	-----------------------------------------------------------

  Dipole Moment: [D]
     X:    -0.0155      Y:    -0.4432      Z:     0.0181     Total:     0.4438

*** Psi4 exiting successfully. Buy a developer a beer!
