                               Psi4 1.4a3.dev225

  ==> Input File <==

--------------------------------------------------------------------------
#psi4
#
memory 32 gb

molecule  {
0 1
  O        1.0619850     0.5679060    -0.5074190
  O       -1.0619850     0.5679070     0.5074170
  C        1.7313165    -0.2326037     0.5442719
  C       -1.7087210    -0.2055970    -0.5087750
  C        0.0000010     1.3374800    -0.0000030
  C        2.8724190    -0.9213410    -0.1416800
  C       -2.8724250    -0.9213350     0.1416820
  H        2.0535020     0.4626010     1.3123700
  H        0.9992280    -0.9154830     0.9489700
  H       -2.0534850     0.4625820    -1.3123800
  H       -0.9992230    -0.9155040    -0.9489490
  H        0.3294410     1.9615530     0.8408220
  H       -0.3294430     1.9615480    -0.8408310
  H        3.4062720    -1.5300890     0.5937210
  H        2.5136630    -1.5739790    -0.9407190
  H        3.5689960    -0.1987040    -0.5719490
  H       -3.4062730    -1.5300900    -0.5937160
  H       -2.5136820    -1.5739620     0.9407340
  H       -3.5690030    -0.1986870     0.5719320
units angstrom
no_reorient  #important for SAPT in psi4, default
symmetry c1  #important for SAPT in psi4, default
}

set PROPERTIES_ORIGIN ["COM"]
properties('MP2/aug-cc-pvtz', properties = ['dipole'])
--------------------------------------------------------------------------

    Molecular point group: c1
  Charge       = 0
  Multiplicity = 1
  Basis Set: AUG-CC-PVTZ
    Blend: AUG-CC-PVTZ
  Basis Set: (AUG-CC-PVTZ AUX)
    Blend: AUG-CC-PVTZ-JKFIT

    Orbital Energies [Eh]
    ---------------------

    Doubly Occupied:

       1A    -20.557213     2A    -20.554129     3A    -11.320590
       4A    -11.274091     5A    -11.272109     6A    -11.215813
       7A    -11.213594     8A     -1.402216     9A     -1.330855
      10A     -1.034600    11A     -1.014302    12A     -0.891941
      13A     -0.847680    14A     -0.812938    15A     -0.688222
      16A     -0.677593    17A     -0.669744    18A     -0.623200
      19A     -0.616137    20A     -0.574421    21A     -0.538060
      22A     -0.534007    23A     -0.526965    24A     -0.512814
      25A     -0.505872    26A     -0.495651    27A     -0.458126
      28A     -0.438394    29A     -0.433941

  @DF-RHF Final Energy:  -346.16278434697523

   => Energetics <=

    Nuclear Repulsion Energy =            331.8276933247288980
    One-Electron Energy =               -1129.9105215579502328
    Two-Electron Energy =                 451.9200438862461056
    Total Energy =                       -346.1627843469752293
  Basis Set: (AUG-CC-PVTZ AUX)
    Blend: AUG-CC-PVTZ-RI
    Molecular point group: c1

    Geometry (in Angstrom), charge = 0, multiplicity = 1:

       Center              X                  Y                   Z               Mass
    ------------   -----------------  -----------------  -----------------  -----------------
         O            1.059380568489     0.536871565702    -0.511511127087    15.994914619570
         O           -1.064589431511     0.536872565702     0.503324872913    15.994914619570
         C            1.728712068489    -0.263638134298     0.540179772913    12.000000000000
         C           -1.711325431511    -0.236631434298    -0.512867127087    12.000000000000
         C           -0.002603431511     1.306445565702    -0.004095127087    12.000000000000
         C            2.869814568489    -0.952375434298    -0.145772127087    12.000000000000
         C           -2.875029431511    -0.952369434298     0.137589872913    12.000000000000
         H            2.050897568489     0.431566565702     1.308277872913     1.007825032230
         H            0.996623568489    -0.946517434298     0.944877872913     1.007825032230
         H           -2.056089431511     0.431547565702    -1.316472127087     1.007825032230
         H           -1.001827431511    -0.946538434298    -0.953041127087     1.007825032230
         H            0.326836568489     1.930518565702     0.836729872913     1.007825032230
         H           -0.332047431511     1.930513565702    -0.844923127087     1.007825032230
         H            3.403667568489    -1.561123434298     0.589628872913     1.007825032230
         H            2.511058568489    -1.605013434298    -0.944811127087     1.007825032230
         H            3.566391568489    -0.229738434298    -0.576041127087     1.007825032230
         H           -3.408877431511    -1.561124434298    -0.597808127087     1.007825032230
         H           -2.516286431511    -1.604996434298     0.936641872913     1.007825032230
         H           -3.571607431511    -0.229721434298     0.567839872913     1.007825032230

  Basis Set: AUG-CC-PVTZ
    Blend: AUG-CC-PVTZ
  Basis Set: (AUG-CC-PVTZ AUX)
    Blend: AUG-CC-PVTZ-JKFIT
	 Reference Energy          =    -346.1627843469752293 [Eh]
	 Singles Energy            =      -0.0000000000000000 [Eh]
	 Same-Spin Energy          =      -0.3396511325135104 [Eh]
	 Opposite-Spin Energy      =      -1.1633182411357268 [Eh]
	 Correlation Energy        =      -1.5029693736492371 [Eh]
	 Total Energy              =    -347.6657537206244797 [Eh]

	 ================> DF-SCS-MP2 Energies <==================
	-----------------------------------------------------------
	 SCS Same-Spin Scale       =       0.3333333333333333 [-]
	 SCS Opposite-Spin Scale   =       1.2000000000000000 [-]
	 SCS Same-Spin Energy      =      -0.1132170441711701 [Eh]
	 SCS Opposite-Spin Energy  =      -1.3959818893628722 [Eh]
	 SCS Correlation Energy    =      -1.5091989335340423 [Eh]
	 SCS Total Energy          =    -347.6719832805092665 [Eh]
	-----------------------------------------------------------

  Dipole Moment: [D]
     X:     0.1379      Y:    -0.4821      Z:     0.0930     Total:     0.5100

*** Psi4 exiting successfully. Buy a developer a beer!
