                               Psi4 1.3.2 release

  ==> Input File <==

--------------------------------------------------------------------------
#psi4
#
memory 32 gb

molecule  {
0 1
  O        1.0620210     0.5679390    -0.5075070
  O       -0.9971584     0.5986419     0.4378885
  C        1.7088310    -0.2054710     0.5088440
  C       -1.7086770    -0.2057720    -0.5087890
  C       -0.0000550     1.3374600    -0.0000670
  C        2.8723760    -0.9214300    -0.1416400
  C       -2.8725180    -0.9212340     0.1416940
  H        2.0537520     0.4628900     1.3122050
  H        0.9992830    -0.9151760     0.9492220
  H       -2.0532400     0.4623650    -1.3124830
  H       -0.9991440    -0.9157750    -0.9486970
  H        0.3294190     1.9615920     0.8407020
  H       -0.3295380     1.9615190    -0.8408980
  H        3.4064450    -1.5299190     0.5938180
  H        2.5134590    -1.5743390    -0.9403860
  H        3.5688290    -0.1989250    -0.5723410
  H       -3.4064460    -1.5299900    -0.5936450
  H       -2.5139360    -1.5738270     0.9408480
  H       -3.5690030    -0.1984340     0.5718480
units angstrom
no_reorient  #important for SAPT in psi4, default
symmetry c1  #important for SAPT in psi4, default
}

set PROPERTIES_ORIGIN ["COM"]
properties('MP2/aug-cc-pvtz', properties = ['dipole'])
--------------------------------------------------------------------------

    Molecular point group: c1
  Charge       = 0
  Multiplicity = 1
  Basis Set: AUG-CC-PVTZ
    Blend: AUG-CC-PVTZ
  Basis Set: (AUG-CC-PVTZ AUX)
    Blend: AUG-CC-PVTZ-JKFIT

    Orbital Energies [Eh]
    ---------------------

    Doubly Occupied:

       1A    -20.555459     2A    -20.549789     3A    -11.314933
       4A    -11.279160     5A    -11.270244     6A    -11.220420
       7A    -11.212088     8A     -1.432102     9A     -1.343429
      10A     -1.040487    11A     -1.013215    12A     -0.900559
      13A     -0.850361    14A     -0.806612    15A     -0.701949
      16A     -0.692188    17A     -0.679248    18A     -0.623353
      19A     -0.618992    20A     -0.575967    21A     -0.545614
      22A     -0.538658    23A     -0.527542    24A     -0.515037
      25A     -0.504779    26A     -0.495488    27A     -0.449393
      28A     -0.433463    29A     -0.432064

  @DF-RHF Final Energy:  -346.16310231705233

   => Energetics <=

    Nuclear Repulsion Energy =            334.4863527704727062
    One-Electron Energy =               -1135.0537266733556407
    Two-Electron Energy =                 454.4042715858306565
    Total Energy =                       -346.1631023170523349
  Basis Set: (AUG-CC-PVTZ AUX)
    Blend: AUG-CC-PVTZ-RI
    Molecular point group: c1

    Geometry (in Angstrom), charge = 0, multiplicity = 1:

       Center              X                  Y                   Z               Mass
    ------------   -----------------  -----------------  -----------------  -----------------
         O            1.052059454485     0.529067386324    -0.496815190077    15.994914619570
         O           -1.007119945515     0.559770286324     0.448580309923    15.994914619570
         C            1.698869454485    -0.244342613676     0.519535809923    12.000000000000
         C           -1.718638545515    -0.244643613676    -0.498097190077    12.000000000000
         C           -0.010016545515     1.298588386324     0.010624809923    12.000000000000
         C            2.862414454485    -0.960301613676    -0.130948190077    12.000000000000
         C           -2.882479545515    -0.960105613676     0.152385809923    12.000000000000
         H            2.043790454485     0.424018386324     1.322896809923     1.007825032230
         H            0.989321454485    -0.954047613676     0.959913809923     1.007825032230
         H           -2.063201545515     0.423493386324    -1.301791190077     1.007825032230
         H           -1.009105545515    -0.954646613676    -0.938005190077     1.007825032230
         H            0.319457454485     1.922720386324     0.851393809923     1.007825032230
         H           -0.339499545515     1.922647386324    -0.830206190077     1.007825032230
         H            3.396483454485    -1.568790613676     0.604509809923     1.007825032230
         H            2.503497454485    -1.613210613676    -0.929694190077     1.007825032230
         H            3.558867454485    -0.237796613676    -0.561649190077     1.007825032230
         H           -3.416407545515    -1.568861613676    -0.582953190077     1.007825032230
         H           -2.523897545515    -1.612698613676     0.951539809923     1.007825032230
         H           -3.578964545515    -0.237305613676     0.582539809923     1.007825032230

  Basis Set: AUG-CC-PVTZ
    Blend: AUG-CC-PVTZ
  Basis Set: (AUG-CC-PVTZ AUX)
    Blend: AUG-CC-PVTZ-JKFIT
	 Reference Energy          =    -346.1631023170523349 [Eh]
	 Singles Energy            =      -0.0000000000000000 [Eh]
	 Same-Spin Energy          =      -0.3388973012378231 [Eh]
	 Opposite-Spin Energy      =      -1.1596832359987128 [Eh]
	 Correlation Energy        =      -1.4985805372365359 [Eh]
	 Total Energy              =    -347.6616828542888697 [Eh]

	 ================> DF-SCS-MP2 Energies <==================
	-----------------------------------------------------------
	 SCS Same-Spin Scale       =       0.3333333333333333 [-]
	 SCS Opposite-Spin Scale   =       1.2000000000000000 [-]
	 SCS Same-Spin Energy      =      -0.1129657670792744 [Eh]
	 SCS Opposite-Spin Energy  =      -1.3916198831984554 [Eh]
	 SCS Correlation Energy    =      -1.5045856502777297 [Eh]
	 SCS Total Energy          =    -347.6676879673300391 [Eh]
	-----------------------------------------------------------

  Dipole Moment: [D]
     X:    -0.4557      Y:    -0.5705      Z:     0.1594     Total:     0.7474

*** Psi4 exiting successfully. Buy a developer a beer!
