                               Psi4 1.3.2 release

  ==> Input File <==

--------------------------------------------------------------------------
#psi4
#
memory 32 gb

molecule  {
0 1
  O        1.0620210     0.5679390    -0.5075070
  O       -1.0619730     0.5678990     0.5074520
  C        1.7244912    -0.2145815     0.4916378
  C       -1.7086770    -0.2057720    -0.5087890
  C       -0.0000550     1.3374600    -0.0000670
  C        2.8723760    -0.9214300    -0.1416400
  C       -2.8725180    -0.9212340     0.1416940
  H        2.0537520     0.4628900     1.3122050
  H        0.9992830    -0.9151760     0.9492220
  H       -2.0532400     0.4623650    -1.3124830
  H       -0.9991440    -0.9157750    -0.9486970
  H        0.3294190     1.9615920     0.8407020
  H       -0.3295380     1.9615190    -0.8408980
  H        3.4064450    -1.5299190     0.5938180
  H        2.5134590    -1.5743390    -0.9403860
  H        3.5688290    -0.1989250    -0.5723410
  H       -3.4064460    -1.5299900    -0.5936450
  H       -2.5139360    -1.5738270     0.9408480
  H       -3.5690030    -0.1984340     0.5718480
units angstrom
no_reorient  #important for SAPT in psi4, default
symmetry c1  #important for SAPT in psi4, default
}

set PROPERTIES_ORIGIN ["COM"]
properties('MP2/aug-cc-pvtz', properties = ['dipole'])
--------------------------------------------------------------------------

    Molecular point group: c1
  Charge       = 0
  Multiplicity = 1
  Basis Set: AUG-CC-PVTZ
    Blend: AUG-CC-PVTZ
  Basis Set: (AUG-CC-PVTZ AUX)
    Blend: AUG-CC-PVTZ-JKFIT

    Orbital Energies [Eh]
    ---------------------

    Doubly Occupied:

       1A    -20.559044     2A    -20.558411     3A    -11.324054
       4A    -11.274590     5A    -11.273260     6A    -11.214223
       7A    -11.214009     8A     -1.409580     9A     -1.341265
      10A     -1.035954    11A     -1.014504    12A     -0.897106
      13A     -0.846373    14A     -0.809783    15A     -0.691303
      16A     -0.684052    17A     -0.671962    18A     -0.620870
      19A     -0.617543    20A     -0.578329    21A     -0.539333
      22A     -0.537823    23A     -0.527424    24A     -0.514302
      25A     -0.504252    26A     -0.494244    27A     -0.460925
      28A     -0.437087    29A     -0.431695

  @DF-RHF Final Energy:  -346.16510859160945

   => Energetics <=

    Nuclear Repulsion Energy =            332.5734569676976093
    One-Electron Energy =               -1131.3105266279603711
    Two-Electron Energy =                 452.5719610686532519
    Total Energy =                       -346.1651085916094530
  Basis Set: (AUG-CC-PVTZ AUX)
    Blend: AUG-CC-PVTZ-RI
    Molecular point group: c1

    Geometry (in Angstrom), charge = 0, multiplicity = 1:

       Center              X                  Y                   Z               Mass
    ------------   -----------------  -----------------  -----------------  -----------------
         O            1.060214250592     0.534842122325    -0.505521525317    15.994914619570
         O           -1.063779749408     0.534802122325     0.509437474683    15.994914619570
         C            1.722684450592    -0.247678377675     0.493623274683    12.000000000000
         C           -1.710483749408    -0.238868877675    -0.506803525317    12.000000000000
         C           -0.001861749408     1.304363122325     0.001918474683    12.000000000000
         C            2.870569250592    -0.954526877675    -0.139654525317    12.000000000000
         C           -2.874324749408    -0.954330877675     0.143679474683    12.000000000000
         H            2.051945250592     0.429793122325     1.314190474683     1.007825032230
         H            0.997476250592    -0.948272877675     0.951207474683     1.007825032230
         H           -2.055046749408     0.429268122325    -1.310497525317     1.007825032230
         H           -1.000950749408    -0.948871877675    -0.946711525317     1.007825032230
         H            0.327612250592     1.928495122325     0.842687474683     1.007825032230
         H           -0.331344749408     1.928422122325    -0.838912525317     1.007825032230
         H            3.404638250592    -1.563015877675     0.595803474683     1.007825032230
         H            2.511652250592    -1.607435877675    -0.938400525317     1.007825032230
         H            3.567022250592    -0.232021877675    -0.570355525317     1.007825032230
         H           -3.408252749408    -1.563086877675    -0.591659525317     1.007825032230
         H           -2.515742749408    -1.606923877675     0.942833474683     1.007825032230
         H           -3.570809749408    -0.231530877675     0.573833474683     1.007825032230

  Basis Set: AUG-CC-PVTZ
    Blend: AUG-CC-PVTZ
  Basis Set: (AUG-CC-PVTZ AUX)
    Blend: AUG-CC-PVTZ-JKFIT
	 Reference Energy          =    -346.1651085916094530 [Eh]
	 Singles Energy            =      -0.0000000000000000 [Eh]
	 Same-Spin Energy          =      -0.3395690211872610 [Eh]
	 Opposite-Spin Energy      =      -1.1624587090737997 [Eh]
	 Correlation Energy        =      -1.5020277302610605 [Eh]
	 Total Energy              =    -347.6671363218704869 [Eh]

	 ================> DF-SCS-MP2 Energies <==================
	-----------------------------------------------------------
	 SCS Same-Spin Scale       =       0.3333333333333333 [-]
	 SCS Opposite-Spin Scale   =       1.2000000000000000 [-]
	 SCS Same-Spin Energy      =      -0.1131896737290870 [Eh]
	 SCS Opposite-Spin Energy  =      -1.3949504508885595 [Eh]
	 SCS Correlation Energy    =      -1.5081401246176465 [Eh]
	 SCS Total Energy          =    -347.6732487162270786 [Eh]
	-----------------------------------------------------------

  Dipole Moment: [D]
     X:     0.0290      Y:    -0.4037      Z:    -0.0225     Total:     0.4054

*** Psi4 exiting successfully. Buy a developer a beer!
