                               Psi4 1.3.2 release

  ==> Input File <==

--------------------------------------------------------------------------
#psi4
#
memory 32 gb

molecule  {
0 1
  O        1.1078640     0.6519220    -0.5294217
  O       -1.0619730     0.5678990     0.5074520
  C        1.7088310    -0.2054710     0.5088440
  C       -1.7086770    -0.2057720    -0.5087890
  C       -0.0000550     1.3374600    -0.0000670
  C        2.8723760    -0.9214300    -0.1416400
  C       -2.8725180    -0.9212340     0.1416940
  H        2.0537520     0.4628900     1.3122050
  H        0.9992830    -0.9151760     0.9492220
  H       -2.0532400     0.4623650    -1.3124830
  H       -0.9991440    -0.9157750    -0.9486970
  H        0.3294190     1.9615920     0.8407020
  H       -0.3295380     1.9615190    -0.8408980
  H        3.4064450    -1.5299190     0.5938180
  H        2.5134590    -1.5743390    -0.9403860
  H        3.5688290    -0.1989250    -0.5723410
  H       -3.4064460    -1.5299900    -0.5936450
  H       -2.5139360    -1.5738270     0.9408480
  H       -3.5690030    -0.1984340     0.5718480
units angstrom
no_reorient  #important for SAPT in psi4, default
symmetry c1  #important for SAPT in psi4, default
}

set PROPERTIES_ORIGIN ["COM"]
properties('MP2/aug-cc-pvtz', properties = ['dipole'])
--------------------------------------------------------------------------

    Molecular point group: c1
  Charge       = 0
  Multiplicity = 1
  Basis Set: AUG-CC-PVTZ
    Blend: AUG-CC-PVTZ
  Basis Set: (AUG-CC-PVTZ AUX)
    Blend: AUG-CC-PVTZ-JKFIT

    Orbital Energies [Eh]
    ---------------------

    Doubly Occupied:

       1A    -20.561962     2A    -20.561409     3A    -11.321134
       4A    -11.277594     5A    -11.274767     6A    -11.215830
       7A    -11.215347     8A     -1.404412     9A     -1.338337
      10A     -1.032649    11A     -1.014392    12A     -0.892497
      13A     -0.847408    14A     -0.813840    15A     -0.687059
      16A     -0.682053    17A     -0.672288    18A     -0.617641
      19A     -0.615864    20A     -0.578442    21A     -0.538810
      22A     -0.537160    23A     -0.525251    24A     -0.512576
      25A     -0.503069    26A     -0.496048    27A     -0.464363
      28A     -0.438041    29A     -0.436559

  @DF-RHF Final Energy:  -346.16054284759798

   => Energetics <=

    Nuclear Repulsion Energy =            331.1421129490511248
    One-Electron Energy =               -1128.4517081622216210
    Two-Electron Energy =                 451.1490523655725156
    Total Energy =                       -346.1605428475979807
  Basis Set: (AUG-CC-PVTZ AUX)
    Blend: AUG-CC-PVTZ-RI
    Molecular point group: c1

    Geometry (in Angstrom), charge = 0, multiplicity = 1:

       Center              X                  Y                   Z               Mass
    ------------   -----------------  -----------------  -----------------  -----------------
         O            1.100817887313     0.604868791978    -0.526052249590    15.994914619570
         O           -1.069019112687     0.520845791978     0.510821450410    15.994914619570
         C            1.701784887313    -0.252524208022     0.512213450410    12.000000000000
         C           -1.715723112687    -0.252825208022    -0.505419549590    12.000000000000
         C           -0.007101112687     1.290406791978     0.003302450410    12.000000000000
         C            2.865329887313    -0.968483208022    -0.138270549590    12.000000000000
         C           -2.879564112687    -0.968287208022     0.145063450410    12.000000000000
         H            2.046705887313     0.415836791978     1.315574450410     1.007825032230
         H            0.992236887313    -0.962229208022     0.952591450410     1.007825032230
         H           -2.060286112687     0.415311791978    -1.309113549590     1.007825032230
         H           -1.006190112687    -0.962828208022    -0.945327549590     1.007825032230
         H            0.322372887313     1.914538791978     0.844071450410     1.007825032230
         H           -0.336584112687     1.914465791978    -0.837528549590     1.007825032230
         H            3.399398887313    -1.576972208022     0.597187450410     1.007825032230
         H            2.506412887313    -1.621392208022    -0.937016549590     1.007825032230
         H            3.561782887313    -0.245978208022    -0.568971549590     1.007825032230
         H           -3.413492112687    -1.577043208022    -0.590275549590     1.007825032230
         H           -2.520982112687    -1.620880208022     0.944217450410     1.007825032230
         H           -3.576049112687    -0.245487208022     0.575217450410     1.007825032230

  Basis Set: AUG-CC-PVTZ
    Blend: AUG-CC-PVTZ
  Basis Set: (AUG-CC-PVTZ AUX)
    Blend: AUG-CC-PVTZ-JKFIT
	 Reference Energy          =    -346.1605428475979807 [Eh]
	 Singles Energy            =      -0.0000000000000000 [Eh]
	 Same-Spin Energy          =      -0.3398614629040854 [Eh]
	 Opposite-Spin Energy      =      -1.1640190890689863 [Eh]
	 Correlation Energy        =      -1.5038805519730718 [Eh]
	 Total Energy              =    -347.6644233995710351 [Eh]

	 ================> DF-SCS-MP2 Energies <==================
	-----------------------------------------------------------
	 SCS Same-Spin Scale       =       0.3333333333333333 [-]
	 SCS Opposite-Spin Scale   =       1.2000000000000000 [-]
	 SCS Same-Spin Energy      =      -0.1132871543013618 [Eh]
	 SCS Opposite-Spin Energy  =      -1.3968229068827835 [Eh]
	 SCS Correlation Energy    =      -1.5101100611841454 [Eh]
	 SCS Total Energy          =    -347.6706529087821309 [Eh]
	-----------------------------------------------------------

  Dipole Moment: [D]
     X:    -0.0530      Y:    -0.6268      Z:     0.0708     Total:     0.6330

*** Psi4 exiting successfully. Buy a developer a beer!
