                               Psi4 1.4a3.dev225

  ==> Input File <==

--------------------------------------------------------------------------
#psi4
#
memory 32 gb

molecule  {
0 1
  O        1.0619850     0.5679060    -0.5074190
  O       -1.0619850     0.5679070     0.5074170
  C        1.7087270    -0.2055870     0.5087780
  C       -1.7087210    -0.2055970    -0.5087750
  C        0.0151048     1.3265349    -0.0072196
  C        2.8724190    -0.9213410    -0.1416800
  C       -2.8724250    -0.9213350     0.1416820
  H        2.0535020     0.4626010     1.3123700
  H        0.9992280    -0.9154830     0.9489700
  H       -2.0534850     0.4625820    -1.3123800
  H       -0.9992230    -0.9155040    -0.9489490
  H        0.3294410     1.9615530     0.8408220
  H       -0.3294430     1.9615480    -0.8408310
  H        3.4062720    -1.5300890     0.5937210
  H        2.5136630    -1.5739790    -0.9407190
  H        3.5689960    -0.1987040    -0.5719490
  H       -3.4062730    -1.5300900    -0.5937160
  H       -2.5136820    -1.5739620     0.9407340
  H       -3.5690030    -0.1986870     0.5719320
units angstrom
no_reorient  #important for SAPT in psi4, default
symmetry c1  #important for SAPT in psi4, default
}

set PROPERTIES_ORIGIN ["COM"]
properties('MP2/aug-cc-pvtz', properties = ['dipole'])
--------------------------------------------------------------------------

    Molecular point group: c1
  Charge       = 0
  Multiplicity = 1
  Basis Set: AUG-CC-PVTZ
    Blend: AUG-CC-PVTZ
  Basis Set: (AUG-CC-PVTZ AUX)
    Blend: AUG-CC-PVTZ-JKFIT

    Orbital Energies [Eh]
    ---------------------

    Doubly Occupied:

       1A    -20.562085     2A    -20.557430     3A    -11.323784
       4A    -11.275098     5A    -11.272338     6A    -11.215455
       7A    -11.213683     8A     -1.413316     9A     -1.343369
      10A     -1.033821    11A     -1.012718    12A     -0.895390
      13A     -0.848283    14A     -0.811589    15A     -0.693329
      16A     -0.685906    17A     -0.671850    18A     -0.620573
      19A     -0.617820    20A     -0.578749    21A     -0.538574
      22A     -0.537441    23A     -0.525797    24A     -0.514949
      25A     -0.502637    26A     -0.494150    27A     -0.460970
      28A     -0.438418    29A     -0.434340

  @DF-RHF Final Energy:  -346.16559896421921

   => Energetics <=

    Nuclear Repulsion Energy =            332.7548300804177757
    One-Electron Energy =               -1131.6531366643400816
    Two-Electron Energy =                 452.7327076197030351
    Total Energy =                       -346.1655989642192139
  Basis Set: (AUG-CC-PVTZ AUX)
    Blend: AUG-CC-PVTZ-RI
    Molecular point group: c1

    Geometry (in Angstrom), charge = 0, multiplicity = 1:

       Center              X                  Y                   Z               Mass
    ------------   -----------------  -----------------  -----------------  -----------------
         O            1.060243608277     0.535018642092    -0.506586956884    15.994914619570
         O           -1.063726391723     0.535019642092     0.508249043116    15.994914619570
         C            1.706985608277    -0.238474357908     0.509610043116    12.000000000000
         C           -1.710462391723    -0.238484357908    -0.507942956884    12.000000000000
         C            0.013363408277     1.293647542092    -0.006387556884    12.000000000000
         C            2.870677608277    -0.954228357908    -0.140847956884    12.000000000000
         C           -2.874166391723    -0.954222357908     0.142514043116    12.000000000000
         H            2.051760608277     0.429713642092     1.313202043116     1.007825032230
         H            0.997486608277    -0.948370357908     0.949802043116     1.007825032230
         H           -2.055226391723     0.429694642092    -1.311547956884     1.007825032230
         H           -1.000964391723    -0.948391357908    -0.948116956884     1.007825032230
         H            0.327699608277     1.928665642092     0.841654043116     1.007825032230
         H           -0.331184391723     1.928660642092    -0.839998956884     1.007825032230
         H            3.404530608277    -1.562976357908     0.594553043116     1.007825032230
         H            2.511921608277    -1.606866357908    -0.939886956884     1.007825032230
         H            3.567254608277    -0.231591357908    -0.571116956884     1.007825032230
         H           -3.408014391723    -1.562977357908    -0.592883956884     1.007825032230
         H           -2.515423391723    -1.606849357908     0.941566043116     1.007825032230
         H           -3.570744391723    -0.231574357908     0.572764043116     1.007825032230

  Basis Set: AUG-CC-PVTZ
    Blend: AUG-CC-PVTZ
  Basis Set: (AUG-CC-PVTZ AUX)
    Blend: AUG-CC-PVTZ-JKFIT
	 Reference Energy          =    -346.1655989642192139 [Eh]
	 Singles Energy            =      -0.0000000000000000 [Eh]
	 Same-Spin Energy          =      -0.3394877876683571 [Eh]
	 Opposite-Spin Energy      =      -1.1623311751891423 [Eh]
	 Correlation Energy        =      -1.5018189628574994 [Eh]
	 Total Energy              =    -347.6674179270767127 [Eh]

	 ================> DF-SCS-MP2 Energies <==================
	-----------------------------------------------------------
	 SCS Same-Spin Scale       =       0.3333333333333333 [-]
	 SCS Opposite-Spin Scale   =       1.2000000000000000 [-]
	 SCS Same-Spin Energy      =      -0.1131625958894523 [Eh]
	 SCS Opposite-Spin Energy  =      -1.3947974102269707 [Eh]
	 SCS Correlation Energy    =      -1.5079600061164231 [Eh]
	 SCS Total Energy          =    -347.6735589703356482 [Eh]
	-----------------------------------------------------------

  Dipole Moment: [D]
     X:     0.1222      Y:    -0.4285      Z:    -0.0200     Total:     0.4460

*** Psi4 exiting successfully. Buy a developer a beer!
