                               Psi4 1.3.2 release

  ==> Input File <==

--------------------------------------------------------------------------
#psi4
#
memory 32 gb

molecule  {
0 1
  O        1.0620210     0.5679390    -0.5075070
  O       -1.0619730     0.5678990     0.5074520
  C        1.7088310    -0.2054710     0.5088440
  C       -1.7086770    -0.2057720    -0.5087890
  C        0.1509911     1.2280205    -0.0722340
  C        2.8723760    -0.9214300    -0.1416400
  C       -2.8725180    -0.9212340     0.1416940
  H        2.0537520     0.4628900     1.3122050
  H        0.9992830    -0.9151760     0.9492220
  H       -2.0532400     0.4623650    -1.3124830
  H       -0.9991440    -0.9157750    -0.9486970
  H        0.3294190     1.9615920     0.8407020
  H       -0.3295380     1.9615190    -0.8408980
  H        3.4064450    -1.5299190     0.5938180
  H        2.5134590    -1.5743390    -0.9403860
  H        3.5688290    -0.1989250    -0.5723410
  H       -3.4064460    -1.5299900    -0.5936450
  H       -2.5139360    -1.5738270     0.9408480
  H       -3.5690030    -0.1984340     0.5718480
units angstrom
no_reorient  #important for SAPT in psi4, default
symmetry c1  #important for SAPT in psi4, default
}

set PROPERTIES_ORIGIN ["COM"]
properties('MP2/aug-cc-pvtz', properties = ['dipole'])
--------------------------------------------------------------------------

    Molecular point group: c1
  Charge       = 0
  Multiplicity = 1
  Basis Set: AUG-CC-PVTZ
    Blend: AUG-CC-PVTZ
  Basis Set: (AUG-CC-PVTZ AUX)
    Blend: AUG-CC-PVTZ-JKFIT

    Orbital Energies [Eh]
    ---------------------

    Doubly Occupied:

       1A    -20.589682     2A    -20.539840     3A    -11.329122
       4A    -11.292873     5A    -11.262509     6A    -11.226879
       7A    -11.207301     8A     -1.492803     9A     -1.330045
      10A     -1.055988    11A     -1.005339    12A     -0.898612
      13A     -0.850624    14A     -0.809259    15A     -0.723984
      16A     -0.710304    17A     -0.681775    18A     -0.626570
      19A     -0.611603    20A     -0.577018    21A     -0.551106
      22A     -0.542661    23A     -0.524437    24A     -0.517251
      25A     -0.507340    26A     -0.494830    27A     -0.445521
      28A     -0.427245    29A     -0.416740

  @DF-RHF Final Energy:  -346.11984161852672

   => Energetics <=

    Nuclear Repulsion Energy =            334.9349030849168685
    One-Electron Energy =               -1135.6109677783847474
    Two-Electron Energy =                 454.5562230749411583
    Total Energy =                       -346.1198416185267206
  Basis Set: (AUG-CC-PVTZ AUX)
    Blend: AUG-CC-PVTZ-RI
    Molecular point group: c1

    Geometry (in Angstrom), charge = 0, multiplicity = 1:

       Center              X                  Y                   Z               Mass
    ------------   -----------------  -----------------  -----------------  -----------------
         O            1.044605367188     0.546409232808    -0.499184996040    15.994914619570
         O           -1.079388632812     0.546369232808     0.515774003960    15.994914619570
         C            1.691415367188    -0.227000767192     0.517166003960    12.000000000000
         C           -1.726092632812    -0.227301767192    -0.500466996040    12.000000000000
         C            0.133575467188     1.206490732808    -0.063911996040    12.000000000000
         C            2.854960367188    -0.942959767192    -0.133317996040    12.000000000000
         C           -2.889933632812    -0.942763767192     0.150016003960    12.000000000000
         H            2.036336367188     0.441360232808     1.320527003960     1.007825032230
         H            0.981867367188    -0.936705767192     0.957544003960     1.007825032230
         H           -2.070655632812     0.440835232808    -1.304160996040     1.007825032230
         H           -1.016559632812    -0.937304767192    -0.940374996040     1.007825032230
         H            0.312003367188     1.940062232808     0.849024003960     1.007825032230
         H           -0.346953632812     1.939989232808    -0.832575996040     1.007825032230
         H            3.389029367188    -1.551448767192     0.602140003960     1.007825032230
         H            2.496043367188    -1.595868767192    -0.932063996040     1.007825032230
         H            3.551413367188    -0.220454767192    -0.564018996040     1.007825032230
         H           -3.423861632812    -1.551519767192    -0.585322996040     1.007825032230
         H           -2.531351632812    -1.595356767192     0.949170003960     1.007825032230
         H           -3.586418632812    -0.219963767192     0.580170003960     1.007825032230

  Basis Set: AUG-CC-PVTZ
    Blend: AUG-CC-PVTZ
  Basis Set: (AUG-CC-PVTZ AUX)
    Blend: AUG-CC-PVTZ-JKFIT
	 Reference Energy          =    -346.1198416185267206 [Eh]
	 Singles Energy            =      -0.0000000000000000 [Eh]
	 Same-Spin Energy          =      -0.3413741165565096 [Eh]
	 Opposite-Spin Energy      =      -1.1640971425469073 [Eh]
	 Correlation Energy        =      -1.5054712591034169 [Eh]
	 Total Energy              =    -347.6253128776301651 [Eh]

	 ================> DF-SCS-MP2 Energies <==================
	-----------------------------------------------------------
	 SCS Same-Spin Scale       =       0.3333333333333333 [-]
	 SCS Opposite-Spin Scale   =       1.2000000000000000 [-]
	 SCS Same-Spin Energy      =      -0.1137913721855032 [Eh]
	 SCS Opposite-Spin Energy  =      -1.3969165710562887 [Eh]
	 SCS Correlation Energy    =      -1.5107079432417920 [Eh]
	 SCS Total Energy          =    -347.6305495617685324 [Eh]
	-----------------------------------------------------------

  Dipole Moment: [D]
     X:     1.3323      Y:    -0.9583      Z:    -0.2322     Total:     1.6575

*** Psi4 exiting successfully. Buy a developer a beer!
