                               Psi4 1.3.2 release

  ==> Input File <==

--------------------------------------------------------------------------
#psi4
#
memory 32 gb

molecule  {
0 1
  O        1.0620210     0.5679390    -0.5075070
  O       -1.0619730     0.5678990     0.5074520
  C        1.6636503    -0.1514471     0.4378502
  C       -1.7086770    -0.2057720    -0.5087890
  C       -0.0000550     1.3374600    -0.0000670
  C        2.8723760    -0.9214300    -0.1416400
  C       -2.8725180    -0.9212340     0.1416940
  H        2.0537520     0.4628900     1.3122050
  H        0.9992830    -0.9151760     0.9492220
  H       -2.0532400     0.4623650    -1.3124830
  H       -0.9991440    -0.9157750    -0.9486970
  H        0.3294190     1.9615920     0.8407020
  H       -0.3295380     1.9615190    -0.8408980
  H        3.4064450    -1.5299190     0.5938180
  H        2.5134590    -1.5743390    -0.9403860
  H        3.5688290    -0.1989250    -0.5723410
  H       -3.4064460    -1.5299900    -0.5936450
  H       -2.5139360    -1.5738270     0.9408480
  H       -3.5690030    -0.1984340     0.5718480
units angstrom
no_reorient  #important for SAPT in psi4, default
symmetry c1  #important for SAPT in psi4, default
}

set PROPERTIES_ORIGIN ["COM"]
properties('MP2/aug-cc-pvtz', properties = ['dipole'])
--------------------------------------------------------------------------

    Molecular point group: c1
  Charge       = 0
  Multiplicity = 1
  Basis Set: AUG-CC-PVTZ
    Blend: AUG-CC-PVTZ
  Basis Set: (AUG-CC-PVTZ AUX)
    Blend: AUG-CC-PVTZ-JKFIT

    Orbital Energies [Eh]
    ---------------------

    Doubly Occupied:

       1A    -20.568999     2A    -20.563400     3A    -11.330631
       4A    -11.276095     5A    -11.274882     6A    -11.215880
       7A    -11.211959     8A     -1.435531     9A     -1.361053
      10A     -1.033850    11A     -1.006069    12A     -0.906703
      13A     -0.849593    14A     -0.807992    15A     -0.704171
      16A     -0.695525    17A     -0.678659    18A     -0.626028
      19A     -0.613873    20A     -0.589931    21A     -0.543179
      22A     -0.539077    23A     -0.529557    24A     -0.518702
      25A     -0.498265    26A     -0.487560    27A     -0.460588
      28A     -0.440061    29A     -0.422592

  @DF-RHF Final Energy:  -346.15779344562225

   => Energetics <=

    Nuclear Repulsion Energy =            334.0646537234501920
    One-Electron Energy =               -1134.0640837588962313
    Two-Electron Energy =                 453.8416365898237927
    Total Energy =                       -346.1577934456222465
  Basis Set: (AUG-CC-PVTZ AUX)
    Blend: AUG-CC-PVTZ-RI
    Molecular point group: c1

    Geometry (in Angstrom), charge = 0, multiplicity = 1:

       Center              X                  Y                   Z               Mass
    ------------   -----------------  -----------------  -----------------  -----------------
         O            1.067228707151     0.527563244035    -0.499320256374    15.994914619570
         O           -1.056765292849     0.527523244035     0.515638743626    15.994914619570
         C            1.668858007151    -0.191822855965     0.446036943626    12.000000000000
         C           -1.703469292849    -0.246147755965    -0.500602256374    12.000000000000
         C            0.005152707151     1.297084244035     0.008119743626    12.000000000000
         C            2.877583707151    -0.961805755965    -0.133453256374    12.000000000000
         C           -2.867310292849    -0.961609755965     0.149880743626    12.000000000000
         H            2.058959707151     0.422514244035     1.320391743626     1.007825032230
         H            1.004490707151    -0.955551755965     0.957408743626     1.007825032230
         H           -2.048032292849     0.421989244035    -1.304296256374     1.007825032230
         H           -0.993936292849    -0.956150755965    -0.940510256374     1.007825032230
         H            0.334626707151     1.921216244035     0.848888743626     1.007825032230
         H           -0.324330292849     1.921143244035    -0.832711256374     1.007825032230
         H            3.411652707151    -1.570294755965     0.602004743626     1.007825032230
         H            2.518666707151    -1.614714755965    -0.932199256374     1.007825032230
         H            3.574036707151    -0.239300755965    -0.564154256374     1.007825032230
         H           -3.401238292849    -1.570365755965    -0.585458256374     1.007825032230
         H           -2.508728292849    -1.614202755965     0.949034743626     1.007825032230
         H           -3.563795292849    -0.238809755965     0.580034743626     1.007825032230

  Basis Set: AUG-CC-PVTZ
    Blend: AUG-CC-PVTZ
  Basis Set: (AUG-CC-PVTZ AUX)
    Blend: AUG-CC-PVTZ-JKFIT
	 Reference Energy          =    -346.1577934456222465 [Eh]
	 Singles Energy            =      -0.0000000000000000 [Eh]
	 Same-Spin Energy          =      -0.3395233993119394 [Eh]
	 Opposite-Spin Energy      =      -1.1614670533728924 [Eh]
	 Correlation Energy        =      -1.5009904526848317 [Eh]
	 Total Energy              =    -347.6587838983070924 [Eh]

	 ================> DF-SCS-MP2 Energies <==================
	-----------------------------------------------------------
	 SCS Same-Spin Scale       =       0.3333333333333333 [-]
	 SCS Opposite-Spin Scale   =       1.2000000000000000 [-]
	 SCS Same-Spin Energy      =      -0.1131744664373131 [Eh]
	 SCS Opposite-Spin Energy  =      -1.3937604640474708 [Eh]
	 SCS Correlation Energy    =      -1.5069349304847839 [Eh]
	 SCS Total Energy          =    -347.6647283761070071 [Eh]
	-----------------------------------------------------------

  Dipole Moment: [D]
     X:    -0.3036      Y:    -0.1626      Z:    -0.2244     Total:     0.4110

*** Psi4 exiting successfully. Buy a developer a beer!
