                               Psi4 1.3.2 release

  ==> Input File <==

--------------------------------------------------------------------------
#psi4
#
memory 32 gb

molecule  {
0 1
  O        1.0620210     0.5679390    -0.5075070
  O       -1.0619730     0.5678990     0.5074520
  C        1.7088310    -0.2054710     0.5088440
  C       -1.7086770    -0.2057720    -0.5087890
  C       -0.0000550     1.3374600    -0.0000670
  C        2.8723760    -0.9214300    -0.1416400
  C       -2.8725180    -0.9212340     0.1416940
  H        2.0537520     0.4628900     1.3122050
  H        0.9992830    -0.9151760     0.9492220
  H       -2.0532400     0.4623650    -1.3124830
  H       -0.9991440    -0.9157750    -0.9486970
  H        0.3514158     1.8637816     0.8968389
  H       -0.3295380     1.9615190    -0.8408980
  H        3.4064450    -1.5299190     0.5938180
  H        2.5134590    -1.5743390    -0.9403860
  H        3.5688290    -0.1989250    -0.5723410
  H       -3.4064460    -1.5299900    -0.5936450
  H       -2.5139360    -1.5738270     0.9408480
  H       -3.5690030    -0.1984340     0.5718480
units angstrom
no_reorient  #important for SAPT in psi4, default
symmetry c1  #important for SAPT in psi4, default
}

set PROPERTIES_ORIGIN ["COM"]
properties('MP2/aug-cc-pvtz', properties = ['dipole'])
--------------------------------------------------------------------------

    Molecular point group: c1
  Charge       = 0
  Multiplicity = 1
  Basis Set: AUG-CC-PVTZ
    Blend: AUG-CC-PVTZ
  Basis Set: (AUG-CC-PVTZ AUX)
    Blend: AUG-CC-PVTZ-JKFIT

    Orbital Energies [Eh]
    ---------------------

    Doubly Occupied:

       1A    -20.558285     2A    -20.558010     3A    -11.324092
       4A    -11.273547     5A    -11.272944     6A    -11.214398
       7A    -11.214189     8A     -1.410361     9A     -1.341316
      10A     -1.033263    11A     -1.012257    12A     -0.895284
      13A     -0.848283    14A     -0.811437    15A     -0.689331
      16A     -0.684094    17A     -0.677438    18A     -0.618686
      19A     -0.616895    20A     -0.577951    21A     -0.538028
      22A     -0.536929    23A     -0.526283    24A     -0.513781
      25A     -0.501247    26A     -0.495185    27A     -0.463350
      28A     -0.437678    29A     -0.433611

  @DF-RHF Final Energy:  -346.16416580181334

   => Energetics <=

    Nuclear Repulsion Energy =            332.7028167686074767
    One-Electron Energy =               -1131.5776592350380270
    Two-Electron Energy =                 452.7106766646172105
    Total Energy =                       -346.1641658018133398
  Basis Set: (AUG-CC-PVTZ AUX)
    Blend: AUG-CC-PVTZ-RI
    Molecular point group: c1

    Geometry (in Angstrom), charge = 0, multiplicity = 1:

       Center              X                  Y                   Z               Mass
    ------------   -----------------  -----------------  -----------------  -----------------
         O            1.061806751888     0.534738837878    -0.508048823042    15.994914619570
         O           -1.062187248112     0.534698837878     0.506910176958    15.994914619570
         C            1.708616751888    -0.238671162122     0.508302176958    12.000000000000
         C           -1.708891248112    -0.238972162122    -0.509330823042    12.000000000000
         C           -0.000269248112     1.304259837878    -0.000608823042    12.000000000000
         C            2.872161751888    -0.954630162122    -0.142181823042    12.000000000000
         C           -2.872732248112    -0.954434162122     0.141152176958    12.000000000000
         H            2.053537751888     0.429689837878     1.311663176958     1.007825032230
         H            0.999068751888    -0.948376162122     0.948680176958     1.007825032230
         H           -2.053454248112     0.429164837878    -1.313024823042     1.007825032230
         H           -0.999358248112    -0.948975162122    -0.949238823042     1.007825032230
         H            0.351201551888     1.830581437878     0.896297076958     1.007825032230
         H           -0.329752248112     1.928318837878    -0.841439823042     1.007825032230
         H            3.406230751888    -1.563119162122     0.593276176958     1.007825032230
         H            2.513244751888    -1.607539162122    -0.940927823042     1.007825032230
         H            3.568614751888    -0.232125162122    -0.572882823042     1.007825032230
         H           -3.406660248112    -1.563190162122    -0.594186823042     1.007825032230
         H           -2.514150248112    -1.607027162122     0.940306176958     1.007825032230
         H           -3.569217248112    -0.231634162122     0.571306176958     1.007825032230

  Basis Set: AUG-CC-PVTZ
    Blend: AUG-CC-PVTZ
  Basis Set: (AUG-CC-PVTZ AUX)
    Blend: AUG-CC-PVTZ-JKFIT
	 Reference Energy          =    -346.1641658018133398 [Eh]
	 Singles Energy            =      -0.0000000000000000 [Eh]
	 Same-Spin Energy          =      -0.3396699287811303 [Eh]
	 Opposite-Spin Energy      =      -1.1627586781991208 [Eh]
	 Correlation Energy        =      -1.5024286069802510 [Eh]
	 Total Energy              =    -347.6665944087935713 [Eh]

	 ================> DF-SCS-MP2 Energies <==================
	-----------------------------------------------------------
	 SCS Same-Spin Scale       =       0.3333333333333333 [-]
	 SCS Opposite-Spin Scale   =       1.2000000000000000 [-]
	 SCS Same-Spin Energy      =      -0.1132233095937101 [Eh]
	 SCS Opposite-Spin Energy  =      -1.3953104138389449 [Eh]
	 SCS Correlation Energy    =      -1.5085337234326550 [Eh]
	 SCS Total Energy          =    -347.6726995252460028 [Eh]
	-----------------------------------------------------------

  Dipole Moment: [D]
     X:     0.0038      Y:    -0.4102      Z:    -0.0078     Total:     0.4103

*** Psi4 exiting successfully. Buy a developer a beer!
