                               Psi4 1.3.2 release

  ==> Input File <==

--------------------------------------------------------------------------
#psi4
#
memory 32 gb

molecule  {
0 1
  O        1.0620210     0.5679390    -0.5075070
  O       -1.0619730     0.5678990     0.5074520
  C        1.7088310    -0.2054710     0.5088440
  C       -1.7086770    -0.2057720    -0.5087890
  C       -0.0000550     1.3374600    -0.0000670
  C        2.8723760    -0.9214300    -0.1416400
  C       -2.8725180    -0.9212340     0.1416940
  H        2.0537520     0.4628900     1.3122050
  H        0.9992830    -0.9151760     0.9492220
  H       -2.0532400     0.4623650    -1.3124830
  H       -0.9991440    -0.9157750    -0.9486970
  H        0.3445003     1.8970801     0.8791902
  H       -0.3295380     1.9615190    -0.8408980
  H        3.4064450    -1.5299190     0.5938180
  H        2.5134590    -1.5743390    -0.9403860
  H        3.5688290    -0.1989250    -0.5723410
  H       -3.4064460    -1.5299900    -0.5936450
  H       -2.5139360    -1.5738270     0.9408480
  H       -3.5690030    -0.1984340     0.5718480
units angstrom
no_reorient  #important for SAPT in psi4, default
symmetry c1  #important for SAPT in psi4, default
}

set PROPERTIES_ORIGIN ["COM"]
properties('MP2/aug-cc-pvtz', properties = ['dipole'])
--------------------------------------------------------------------------

    Molecular point group: c1
  Charge       = 0
  Multiplicity = 1
  Basis Set: AUG-CC-PVTZ
    Blend: AUG-CC-PVTZ
  Basis Set: (AUG-CC-PVTZ AUX)
    Blend: AUG-CC-PVTZ-JKFIT

    Orbital Energies [Eh]
    ---------------------

    Doubly Occupied:

       1A    -20.558574     2A    -20.558389     3A    -11.323995
       4A    -11.273488     5A    -11.273100     6A    -11.214372
       7A    -11.214241     8A     -1.410263     9A     -1.341389
      10A     -1.033232    11A     -1.012242    12A     -0.895623
      13A     -0.848028    14A     -0.811521    15A     -0.690050
      16A     -0.684065    17A     -0.675788    18A     -0.618656
      19A     -0.617882    20A     -0.577980    21A     -0.538014
      22A     -0.536948    23A     -0.526161    24A     -0.514210
      25A     -0.501428    26A     -0.495068    27A     -0.462964
      28A     -0.437743    29A     -0.433854

  @DF-RHF Final Energy:  -346.16505367929551

   => Energetics <=

    Nuclear Repulsion Energy =            332.6459242126897493
    One-Electron Energy =               -1131.4634213162087235
    Two-Electron Energy =                 452.6524434242234065
    Total Energy =                       -346.1650536792955108
  Basis Set: (AUG-CC-PVTZ AUX)
    Blend: AUG-CC-PVTZ-RI
    Molecular point group: c1

    Geometry (in Angstrom), charge = 0, multiplicity = 1:

       Center              X                  Y                   Z               Mass
    ------------   -----------------  -----------------  -----------------  -----------------
         O            1.061873713497     0.534416414172    -0.507877933685    15.994914619570
         O           -1.062120286503     0.534376414172     0.507081066315    15.994914619570
         C            1.708683713497    -0.238993585828     0.508473066315    12.000000000000
         C           -1.708824286503    -0.239294585828    -0.509159933685    12.000000000000
         C           -0.000202286503     1.303937414172    -0.000437933685    12.000000000000
         C            2.872228713497    -0.954952585828    -0.142010933685    12.000000000000
         C           -2.872665286503    -0.954756585828     0.141323066315    12.000000000000
         H            2.053604713497     0.429367414172     1.311834066315     1.007825032230
         H            0.999135713497    -0.948698585828     0.948851066315     1.007825032230
         H           -2.053387286503     0.428842414172    -1.312853933685     1.007825032230
         H           -0.999291286503    -0.949297585828    -0.949067933685     1.007825032230
         H            0.344353013497     1.863557514172     0.878819266315     1.007825032230
         H           -0.329685286503     1.927996414172    -0.841268933685     1.007825032230
         H            3.406297713497    -1.563441585828     0.593447066315     1.007825032230
         H            2.513311713497    -1.607861585828    -0.940756933685     1.007825032230
         H            3.568681713497    -0.232447585828    -0.572711933685     1.007825032230
         H           -3.406593286503    -1.563512585828    -0.594015933685     1.007825032230
         H           -2.514083286503    -1.607349585828     0.940477066315     1.007825032230
         H           -3.569150286503    -0.231956585828     0.571477066315     1.007825032230

  Basis Set: AUG-CC-PVTZ
    Blend: AUG-CC-PVTZ
  Basis Set: (AUG-CC-PVTZ AUX)
    Blend: AUG-CC-PVTZ-JKFIT
	 Reference Energy          =    -346.1650536792955108 [Eh]
	 Singles Energy            =      -0.0000000000000000 [Eh]
	 Same-Spin Energy          =      -0.3395799977066324 [Eh]
	 Opposite-Spin Energy      =      -1.1626231742244026 [Eh]
	 Correlation Energy        =      -1.5022031719310349 [Eh]
	 Total Energy              =    -347.6672568512265684 [Eh]

	 ================> DF-SCS-MP2 Energies <==================
	-----------------------------------------------------------
	 SCS Same-Spin Scale       =       0.3333333333333333 [-]
	 SCS Opposite-Spin Scale   =       1.2000000000000000 [-]
	 SCS Same-Spin Energy      =      -0.1131933325688775 [Eh]
	 SCS Opposite-Spin Energy  =      -1.3951478090692830 [Eh]
	 SCS Correlation Energy    =      -1.5083411416381605 [Eh]
	 SCS Total Energy          =    -347.6733948209336518 [Eh]
	-----------------------------------------------------------

  Dipole Moment: [D]
     X:     0.0025      Y:    -0.4008      Z:    -0.0044     Total:     0.4009

*** Psi4 exiting successfully. Buy a developer a beer!
