                               Psi4 1.3.2 release

  ==> Input File <==

--------------------------------------------------------------------------
#psi4
#
memory 32 gb

molecule  {
0 1
  O        1.1287744     0.6951921    -0.5394181
  O       -1.0619730     0.5678990     0.5074520
  C        1.7088310    -0.2054710     0.5088440
  C       -1.7086770    -0.2057720    -0.5087890
  C       -0.0000550     1.3374600    -0.0000670
  C        2.8723760    -0.9214300    -0.1416400
  C       -2.8725180    -0.9212340     0.1416940
  H        2.0537520     0.4628900     1.3122050
  H        0.9992830    -0.9151760     0.9492220
  H       -2.0532400     0.4623650    -1.3124830
  H       -0.9991440    -0.9157750    -0.9486970
  H        0.3294190     1.9615920     0.8407020
  H       -0.3295380     1.9615190    -0.8408980
  H        3.4064450    -1.5299190     0.5938180
  H        2.5134590    -1.5743390    -0.9403860
  H        3.5688290    -0.1989250    -0.5723410
  H       -3.4064460    -1.5299900    -0.5936450
  H       -2.5139360    -1.5738270     0.9408480
  H       -3.5690030    -0.1984340     0.5718480
units angstrom
no_reorient  #important for SAPT in psi4, default
symmetry c1  #important for SAPT in psi4, default
}

set PROPERTIES_ORIGIN ["COM"]
properties('MP2/aug-cc-pvtz', properties = ['dipole'])
--------------------------------------------------------------------------

    Molecular point group: c1
  Charge       = 0
  Multiplicity = 1
  Basis Set: AUG-CC-PVTZ
    Blend: AUG-CC-PVTZ
  Basis Set: (AUG-CC-PVTZ AUX)
    Blend: AUG-CC-PVTZ-JKFIT

    Orbital Energies [Eh]
    ---------------------

    Doubly Occupied:

       1A    -20.563241     2A    -20.562316     3A    -11.319822
       4A    -11.279962     5A    -11.275371     6A    -11.216722
       7A    -11.215801     8A     -1.401935     9A     -1.336144
      10A     -1.032396    11A     -1.015512    12A     -0.890535
      13A     -0.847326    14A     -0.814891    15A     -0.685114
      16A     -0.680809    17A     -0.672092    18A     -0.617600
      19A     -0.613247    20A     -0.578614    21A     -0.539310
      22A     -0.537447    23A     -0.525010    24A     -0.512051
      25A     -0.502550    26A     -0.496848    27A     -0.466012
      28A     -0.437326    29A     -0.436705

  @DF-RHF Final Energy:  -346.15556417441894

   => Energetics <=

    Nuclear Repulsion Energy =            330.4270443927783845
    One-Electron Energy =               -1127.0197954498742092
    Two-Electron Energy =                 450.4371868826768832
    Total Energy =                       -346.1555641744189415
  Basis Set: (AUG-CC-PVTZ AUX)
    Blend: AUG-CC-PVTZ-RI
    Molecular point group: c1

    Geometry (in Angstrom), charge = 0, multiplicity = 1:

       Center              X                  Y                   Z               Mass
    ------------   -----------------  -----------------  -----------------  -----------------
         O            1.118514912237     0.641489422771    -0.534512467469    15.994914619570
         O           -1.072232487763     0.514196322771     0.512357632531    15.994914619570
         C            1.698571512237    -0.259173677229     0.513749632531    12.000000000000
         C           -1.718936487763    -0.259474677229    -0.503883367469    12.000000000000
         C           -0.010314487763     1.283757322771     0.004838632531    12.000000000000
         C            2.862116512237    -0.975132677229    -0.136734367469    12.000000000000
         C           -2.882777487763    -0.974936677229     0.146599632531    12.000000000000
         H            2.043492512237     0.409187322771     1.317110632531     1.007825032230
         H            0.989023512237    -0.968878677229     0.954127632531     1.007825032230
         H           -2.063499487763     0.408662322771    -1.307577367469     1.007825032230
         H           -1.009403487763    -0.969477677229    -0.943791367469     1.007825032230
         H            0.319159512237     1.907889322771     0.845607632531     1.007825032230
         H           -0.339797487763     1.907816322771    -0.835992367469     1.007825032230
         H            3.396185512237    -1.583621677229     0.598723632531     1.007825032230
         H            2.503199512237    -1.628041677229    -0.935480367469     1.007825032230
         H            3.558569512237    -0.252627677229    -0.567435367469     1.007825032230
         H           -3.416705487763    -1.583692677229    -0.588739367469     1.007825032230
         H           -2.524195487763    -1.627529677229     0.945753632531     1.007825032230
         H           -3.579262487763    -0.252136677229     0.576753632531     1.007825032230

  Basis Set: AUG-CC-PVTZ
    Blend: AUG-CC-PVTZ
  Basis Set: (AUG-CC-PVTZ AUX)
    Blend: AUG-CC-PVTZ-JKFIT
	 Reference Energy          =    -346.1555641744189415 [Eh]
	 Singles Energy            =      -0.0000000000000000 [Eh]
	 Same-Spin Energy          =      -0.3401545118798748 [Eh]
	 Opposite-Spin Energy      =      -1.1650362014452904 [Eh]
	 Correlation Energy        =      -1.5051907133251652 [Eh]
	 Total Energy              =    -347.6607548877441332 [Eh]

	 ================> DF-SCS-MP2 Energies <==================
	-----------------------------------------------------------
	 SCS Same-Spin Scale       =       0.3333333333333333 [-]
	 SCS Opposite-Spin Scale   =       1.2000000000000000 [-]
	 SCS Same-Spin Energy      =      -0.1133848372932916 [Eh]
	 SCS Opposite-Spin Energy  =      -1.3980434417343484 [Eh]
	 SCS Correlation Energy    =      -1.5114282790276399 [Eh]
	 SCS Total Energy          =    -347.6669924534465963 [Eh]
	-----------------------------------------------------------

  Dipole Moment: [D]
     X:    -0.0715      Y:    -0.7503      Z:     0.1044     Total:     0.7609

*** Psi4 exiting successfully. Buy a developer a beer!
