                               Psi4 1.3.2 release

  ==> Input File <==

--------------------------------------------------------------------------
#psi4
#
memory 32 gb

molecule  {
0 1
  O        1.0620210     0.5679390    -0.5075070
  O       -1.0619730     0.5678990     0.5074520
  C        1.6769243    -0.1865460     0.5423224
  C       -1.7086770    -0.2057720    -0.5087890
  C       -0.0000550     1.3374600    -0.0000670
  C        2.8723760    -0.9214300    -0.1416400
  C       -2.8725180    -0.9212340     0.1416940
  H        2.0537520     0.4628900     1.3122050
  H        0.9992830    -0.9151760     0.9492220
  H       -2.0532400     0.4623650    -1.3124830
  H       -0.9991440    -0.9157750    -0.9486970
  H        0.3294190     1.9615920     0.8407020
  H       -0.3295380     1.9615190    -0.8408980
  H        3.4064450    -1.5299190     0.5938180
  H        2.5134590    -1.5743390    -0.9403860
  H        3.5688290    -0.1989250    -0.5723410
  H       -3.4064460    -1.5299900    -0.5936450
  H       -2.5139360    -1.5738270     0.9408480
  H       -3.5690030    -0.1984340     0.5718480
units angstrom
no_reorient  #important for SAPT in psi4, default
symmetry c1  #important for SAPT in psi4, default
}

set PROPERTIES_ORIGIN ["COM"]
properties('MP2/aug-cc-pvtz', properties = ['dipole'])
--------------------------------------------------------------------------

    Molecular point group: c1
  Charge       = 0
  Multiplicity = 1
  Basis Set: AUG-CC-PVTZ
    Blend: AUG-CC-PVTZ
  Basis Set: (AUG-CC-PVTZ AUX)
    Blend: AUG-CC-PVTZ-JKFIT

    Orbital Energies [Eh]
    ---------------------

    Doubly Occupied:

       1A    -20.560818     2A    -20.559478     3A    -11.323359
       4A    -11.273692     5A    -11.271524     6A    -11.214881
       7A    -11.214589     8A     -1.411323     9A     -1.342241
      10A     -1.029789    11A     -1.006621    12A     -0.894967
      13A     -0.850218    14A     -0.815140    15A     -0.693190
      16A     -0.683746    17A     -0.673440    18A     -0.621662
      19A     -0.617672    20A     -0.578067    21A     -0.537415
      22A     -0.535285    23A     -0.523736    24A     -0.516884
      25A     -0.500851    26A     -0.487833    27A     -0.463153
      28A     -0.442013    29A     -0.435663

  @DF-RHF Final Energy:  -346.16319286077254

   => Energetics <=

    Nuclear Repulsion Energy =            332.4910056138418781
    One-Electron Energy =               -1131.1499020340338575
    Two-Electron Energy =                 452.4957035594193826
    Total Energy =                       -346.1631928607725399
  Basis Set: (AUG-CC-PVTZ AUX)
    Blend: AUG-CC-PVTZ-RI
    Molecular point group: c1

    Geometry (in Angstrom), charge = 0, multiplicity = 1:

       Center              X                  Y                   Z               Mass
    ------------   -----------------  -----------------  -----------------  -----------------
         O            1.065698323867     0.531609859212    -0.511365043821    15.994914619570
         O           -1.058295676133     0.531569859212     0.503593956179    15.994914619570
         C            1.680601623867    -0.222875140788     0.538464356179    12.000000000000
         C           -1.704999676133    -0.242101140788    -0.512647043821    12.000000000000
         C            0.003622323867     1.301130859212    -0.003925043821    12.000000000000
         C            2.876053323867    -0.957759140788    -0.145498043821    12.000000000000
         C           -2.868840676133    -0.957563140788     0.137835956179    12.000000000000
         H            2.057429323867     0.426560859212     1.308346956179     1.007825032230
         H            1.002960323867    -0.951505140788     0.945363956179     1.007825032230
         H           -2.049562676133     0.426035859212    -1.316341043821     1.007825032230
         H           -0.995466676133    -0.952104140788    -0.952555043821     1.007825032230
         H            0.333096323867     1.925262859212     0.836843956179     1.007825032230
         H           -0.325860676133     1.925189859212    -0.844756043821     1.007825032230
         H            3.410122323867    -1.566248140788     0.589959956179     1.007825032230
         H            2.517136323867    -1.610668140788    -0.944244043821     1.007825032230
         H            3.572506323867    -0.235254140788    -0.576199043821     1.007825032230
         H           -3.402768676133    -1.566319140788    -0.597503043821     1.007825032230
         H           -2.510258676133    -1.610156140788     0.936989956179     1.007825032230
         H           -3.565325676133    -0.234763140788     0.567989956179     1.007825032230

  Basis Set: AUG-CC-PVTZ
    Blend: AUG-CC-PVTZ
  Basis Set: (AUG-CC-PVTZ AUX)
    Blend: AUG-CC-PVTZ-JKFIT
	 Reference Energy          =    -346.1631928607725399 [Eh]
	 Singles Energy            =      -0.0000000000000000 [Eh]
	 Same-Spin Energy          =      -0.3393522860776953 [Eh]
	 Opposite-Spin Energy      =      -1.1626411655749014 [Eh]
	 Correlation Energy        =      -1.5019934516525968 [Eh]
	 Total Energy              =    -347.6651863124251349 [Eh]

	 ================> DF-SCS-MP2 Energies <==================
	-----------------------------------------------------------
	 SCS Same-Spin Scale       =       0.3333333333333333 [-]
	 SCS Opposite-Spin Scale   =       1.2000000000000000 [-]
	 SCS Same-Spin Energy      =      -0.1131174286925651 [Eh]
	 SCS Opposite-Spin Energy  =      -1.3951693986898817 [Eh]
	 SCS Correlation Energy    =      -1.5082868273824468 [Eh]
	 SCS Total Energy          =    -347.6714796881549887 [Eh]
	-----------------------------------------------------------

  Dipole Moment: [D]
     X:    -0.0595      Y:    -0.3409      Z:     0.0389     Total:     0.3482

*** Psi4 exiting successfully. Buy a developer a beer!
