                               Psi4 1.3.2 release

  ==> Input File <==

--------------------------------------------------------------------------
#psi4
#
memory 32 gb

molecule  {
0 1
  O        1.1347230    -0.7035620     0.0192210
  O        0.0419040     1.2849720    -0.0032760
  C       -1.2253880    -0.7918209     0.2825101
  C       -2.4959880     0.0348800    -0.0353530
  C        0.0179090     0.0662010     0.0002130
  C        2.3639990     0.0443740     0.0345400
  H       -1.1558060    -1.4513950    -0.8901140
  H       -1.1802510    -1.4521290     0.8560270
  H       -2.5275640     0.6780870    -0.9162870
  H       -3.3724930    -0.6172840    -0.0483470
  H       -2.5529900     0.6769780     0.8451350
  H        3.1528260    -0.7045810     0.0501140
  H        2.4139010     0.6783770     0.9207630
  H        2.4412840     0.6703610    -0.8553990
units angstrom
no_reorient  #important for SAPT in psi4, default
symmetry c1  #important for SAPT in psi4, default
}

set PROPERTIES_ORIGIN ["COM"]
properties('MP2/aug-cc-pvtz', properties = ['dipole'])
--------------------------------------------------------------------------

    Molecular point group: c1
  Charge       = 0
  Multiplicity = 1
  Basis Set: AUG-CC-PVTZ
    Blend: AUG-CC-PVTZ
  Basis Set: (AUG-CC-PVTZ AUX)
    Blend: AUG-CC-PVTZ-JKFIT

    Orbital Energies [Eh]
    ---------------------

    Doubly Occupied:

       1A    -20.603691     2A    -20.546436     3A    -11.386101
       4A    -11.284374     5A    -11.256297     6A    -11.227682
       7A     -1.454216     8A     -1.353922     9A     -1.066664
      10A     -0.971181    11A     -0.887702    12A     -0.780765
      13A     -0.721956    14A     -0.672878    15A     -0.669372
      16A     -0.611298    17A     -0.596254    18A     -0.564251
      19A     -0.542417    20A     -0.534265    21A     -0.512019
      22A     -0.463194    23A     -0.457514    24A     -0.426365

  @DF-RHF Final Energy:  -305.88972122472109

   => Energetics <=

    Nuclear Repulsion Energy =            244.5642243302279724
    One-Electron Energy =                -901.7262621182371731
    Two-Electron Energy =                 351.2723165632881432
    Total Energy =                       -305.8897212247210859
  Basis Set: (AUG-CC-PVTZ AUX)
    Blend: AUG-CC-PVTZ-RI
    Molecular point group: c1

    Geometry (in Angstrom), charge = 0, multiplicity = 1:

       Center              X                  Y                   Z               Mass
    ------------   -----------------  -----------------  -----------------  -----------------
         O            1.135363785707    -0.703672389339    -0.021658666102    15.994914619570
         O            0.042544785707     1.284861610661    -0.044155666102    15.994914619570
         C           -1.224747214293    -0.791931289339     0.241630433898    12.000000000000
         C           -2.495347214293     0.034769610661    -0.076232666102    12.000000000000
         C            0.018549785707     0.066090610661    -0.040666666102    12.000000000000
         C            2.364639785707     0.044263610661    -0.006339666102    12.000000000000
         H           -1.155165214293    -1.451505389339    -0.930993666102     1.007825032230
         H           -1.179610214293    -1.452239389339     0.815147333898     1.007825032230
         H           -2.526923214293     0.677976610661    -0.957166666102     1.007825032230
         H           -3.371852214293    -0.617394389339    -0.089226666102     1.007825032230
         H           -2.552349214293     0.676867610661     0.804255333898     1.007825032230
         H            3.153466785707    -0.704691389339     0.009234333898     1.007825032230
         H            2.414541785707     0.678266610661     0.879883333898     1.007825032230
         H            2.441924785707     0.670250610661    -0.896278666102     1.007825032230

  Basis Set: AUG-CC-PVTZ
    Blend: AUG-CC-PVTZ
  Basis Set: (AUG-CC-PVTZ AUX)
    Blend: AUG-CC-PVTZ-JKFIT
	 Reference Energy          =    -305.8897212247210859 [Eh]
	 Singles Energy            =      -0.0000000000000000 [Eh]
	 Same-Spin Energy          =      -0.2986402165898799 [Eh]
	 Opposite-Spin Energy      =      -0.9812726710720405 [Eh]
	 Correlation Energy        =      -1.2799128876619204 [Eh]
	 Total Energy              =    -307.1696341123829939 [Eh]

	 ================> DF-SCS-MP2 Energies <==================
	-----------------------------------------------------------
	 SCS Same-Spin Scale       =       0.3333333333333333 [-]
	 SCS Opposite-Spin Scale   =       1.2000000000000000 [-]
	 SCS Same-Spin Energy      =      -0.0995467388632933 [Eh]
	 SCS Opposite-Spin Energy  =      -1.1775272052864485 [Eh]
	 SCS Correlation Energy    =      -1.2770739441497418 [Eh]
	 SCS Total Energy          =    -307.1667951688708058 [Eh]
	-----------------------------------------------------------

  Dipole Moment: [D]
     X:     0.4050      Y:    -1.4517      Z:     0.1390     Total:     1.5135

*** Psi4 exiting successfully. Buy a developer a beer!
