                               Psi4 1.3.2 release

  ==> Input File <==

--------------------------------------------------------------------------
#psi4
#
memory 32 gb

molecule  {
0 1
  O        1.1347230    -0.7035620     0.0192210
  O        0.0419040     1.2849720    -0.0032760
  C       -1.2230375    -0.7922259     0.1325290
  C       -2.4959880     0.0348800    -0.0353530
  C        0.0179090     0.0662010     0.0002130
  C        2.3639990     0.0443740     0.0345400
  H       -1.1558060    -1.4513950    -0.8901140
  H       -1.1802510    -1.4521290     0.8560270
  H       -2.5275640     0.6780870    -0.9162870
  H       -3.3724930    -0.6172840    -0.0483470
  H       -2.5529900     0.6769780     0.8451350
  H        3.1528260    -0.7045810     0.0501140
  H        2.4139010     0.6783770     0.9207630
  H        2.4412840     0.6703610    -0.8553990
units angstrom
no_reorient  #important for SAPT in psi4, default
symmetry c1  #important for SAPT in psi4, default
}

set PROPERTIES_ORIGIN ["COM"]
properties('MP2/aug-cc-pvtz', properties = ['dipole'])
--------------------------------------------------------------------------

    Molecular point group: c1
  Charge       = 0
  Multiplicity = 1
  Basis Set: AUG-CC-PVTZ
    Blend: AUG-CC-PVTZ
  Basis Set: (AUG-CC-PVTZ AUX)
    Blend: AUG-CC-PVTZ-JKFIT

    Orbital Energies [Eh]
    ---------------------

    Doubly Occupied:

       1A    -20.603853     2A    -20.545309     3A    -11.380974
       4A    -11.284349     5A    -11.248073     6A    -11.222178
       7A     -1.454009     8A     -1.353133     9A     -1.066208
      10A     -0.971604    11A     -0.879961    12A     -0.770300
      13A     -0.708485    14A     -0.674963    15A     -0.668398
      16A     -0.616293    17A     -0.599115    18A     -0.546947
      19A     -0.536953    20A     -0.533593    21A     -0.518041
      22A     -0.475669    23A     -0.462412    24A     -0.444170

  @DF-RHF Final Energy:  -305.96257006273208

   => Energetics <=

    Nuclear Repulsion Energy =            244.9415151074699395
    One-Electron Energy =                -902.6781891365789079
    Two-Electron Energy =                 351.7741039663768561
    Total Energy =                       -305.9625700627320839
  Basis Set: (AUG-CC-PVTZ AUX)
    Blend: AUG-CC-PVTZ-RI
    Molecular point group: c1

    Geometry (in Angstrom), charge = 0, multiplicity = 1:

       Center              X                  Y                   Z               Mass
    ------------   -----------------  -----------------  -----------------  -----------------
         O            1.135043453830    -0.703617194950    -0.001218875737    15.994914619570
         O            0.042224453830     1.284916805050    -0.023715875737    15.994914619570
         C           -1.222717046170    -0.792281094950     0.112089124263    12.000000000000
         C           -2.495667546170     0.034824805050    -0.055792875737    12.000000000000
         C            0.018229453830     0.066145805050    -0.020226875737    12.000000000000
         C            2.364319453830     0.044318805050     0.014100124263    12.000000000000
         H           -1.155485546170    -1.451450194950    -0.910553875737     1.007825032230
         H           -1.179930546170    -1.452184194950     0.835587124263     1.007825032230
         H           -2.527243546170     0.678031805050    -0.936726875737     1.007825032230
         H           -3.372172546170    -0.617339194950    -0.068786875737     1.007825032230
         H           -2.552669546170     0.676922805050     0.824695124263     1.007825032230
         H            3.153146453830    -0.704636194950     0.029674124263     1.007825032230
         H            2.414221453830     0.678321805050     0.900323124263     1.007825032230
         H            2.441604453830     0.670305805050    -0.875838875737     1.007825032230

  Basis Set: AUG-CC-PVTZ
    Blend: AUG-CC-PVTZ
  Basis Set: (AUG-CC-PVTZ AUX)
    Blend: AUG-CC-PVTZ-JKFIT
	 Reference Energy          =    -305.9625700627320839 [Eh]
	 Singles Energy            =      -0.0000000000000000 [Eh]
	 Same-Spin Energy          =      -0.2977097107979538 [Eh]
	 Opposite-Spin Energy      =      -0.9777503724581242 [Eh]
	 Correlation Energy        =      -1.2754600832560781 [Eh]
	 Total Energy              =    -307.2380301459881480 [Eh]

	 ================> DF-SCS-MP2 Energies <==================
	-----------------------------------------------------------
	 SCS Same-Spin Scale       =       0.3333333333333333 [-]
	 SCS Opposite-Spin Scale   =       1.2000000000000000 [-]
	 SCS Same-Spin Energy      =      -0.0992365702659846 [Eh]
	 SCS Opposite-Spin Energy  =      -1.1733004469497490 [Eh]
	 SCS Correlation Energy    =      -1.2725370172157335 [Eh]
	 SCS Total Energy          =    -307.2351070799477952 [Eh]
	-----------------------------------------------------------

  Dipole Moment: [D]
     X:     0.4333      Y:    -1.5324      Z:     0.0804     Total:     1.5945

*** Psi4 exiting successfully. Buy a developer a beer!
