                               Psi4 1.3.2 release

  ==> Input File <==

--------------------------------------------------------------------------
#psi4
#
memory 32 gb

molecule  {
0 1
  O        1.1347230    -0.7035620     0.0192210
  O        0.0419040     1.2849720    -0.0032760
  C       -1.2238210    -0.7920909     0.1825227
  C       -2.4959880     0.0348800    -0.0353530
  C        0.0179090     0.0662010     0.0002130
  C        2.3639990     0.0443740     0.0345400
  H       -1.1558060    -1.4513950    -0.8901140
  H       -1.1802510    -1.4521290     0.8560270
  H       -2.5275640     0.6780870    -0.9162870
  H       -3.3724930    -0.6172840    -0.0483470
  H       -2.5529900     0.6769780     0.8451350
  H        3.1528260    -0.7045810     0.0501140
  H        2.4139010     0.6783770     0.9207630
  H        2.4412840     0.6703610    -0.8553990
units angstrom
no_reorient  #important for SAPT in psi4, default
symmetry c1  #important for SAPT in psi4, default
}

set PROPERTIES_ORIGIN ["COM"]
properties('MP2/aug-cc-pvtz', properties = ['dipole'])
--------------------------------------------------------------------------

    Molecular point group: c1
  Charge       = 0
  Multiplicity = 1
  Basis Set: AUG-CC-PVTZ
    Blend: AUG-CC-PVTZ
  Basis Set: (AUG-CC-PVTZ AUX)
    Blend: AUG-CC-PVTZ-JKFIT

    Orbital Energies [Eh]
    ---------------------

    Doubly Occupied:

       1A    -20.603810     2A    -20.545611     3A    -11.382338
       4A    -11.284357     5A    -11.250224     6A    -11.223647
       7A     -1.454067     8A     -1.353347     9A     -1.066299
      10A     -0.971495    11A     -0.881806    12A     -0.773087
      13A     -0.713363    14A     -0.674145    15A     -0.668713
      16A     -0.614206    17A     -0.598633    18A     -0.552940
      19A     -0.538890    20A     -0.534144    21A     -0.516313
      22A     -0.467738    23A     -0.462620    24A     -0.440408

  @DF-RHF Final Energy:  -305.94381545759222

   => Energetics <=

    Nuclear Repulsion Energy =            244.8433020373689430
    One-Electron Energy =                -902.4298374258962667
    Two-Electron Energy =                 351.6427199309350726
    Total Energy =                       -305.9438154575922226
  Basis Set: (AUG-CC-PVTZ AUX)
    Blend: AUG-CC-PVTZ-RI
    Molecular point group: c1

    Geometry (in Angstrom), charge = 0, multiplicity = 1:

       Center              X                  Y                   Z               Mass
    ------------   -----------------  -----------------  -----------------  -----------------
         O            1.135150231122    -0.703635593080    -0.008032139192    15.994914619570
         O            0.042331231122     1.284898406920    -0.030529139192    15.994914619570
         C           -1.223393768878    -0.792164493080     0.155269560808    12.000000000000
         C           -2.495560768878     0.034806406920    -0.062606139192    12.000000000000
         C            0.018336231122     0.066127406920    -0.027040139192    12.000000000000
         C            2.364426231122     0.044300406920     0.007286860808    12.000000000000
         H           -1.155378768878    -1.451468593080    -0.917367139192     1.007825032230
         H           -1.179823768878    -1.452202593080     0.828773860808     1.007825032230
         H           -2.527136768878     0.678013406920    -0.943540139192     1.007825032230
         H           -3.372065768878    -0.617357593080    -0.075600139192     1.007825032230
         H           -2.552562768878     0.676904406920     0.817881860808     1.007825032230
         H            3.153253231122    -0.704654593080     0.022860860808     1.007825032230
         H            2.414328231122     0.678303406920     0.893509860808     1.007825032230
         H            2.441711231122     0.670287406920    -0.882652139192     1.007825032230

  Basis Set: AUG-CC-PVTZ
    Blend: AUG-CC-PVTZ
  Basis Set: (AUG-CC-PVTZ AUX)
    Blend: AUG-CC-PVTZ-JKFIT
	 Reference Energy          =    -305.9438154575922226 [Eh]
	 Singles Energy            =      -0.0000000000000000 [Eh]
	 Same-Spin Energy          =      -0.2979465866519266 [Eh]
	 Opposite-Spin Energy      =      -0.9786513983278522 [Eh]
	 Correlation Energy        =      -1.2765979849797788 [Eh]
	 Total Energy              =    -307.2204134425720099 [Eh]

	 ================> DF-SCS-MP2 Energies <==================
	-----------------------------------------------------------
	 SCS Same-Spin Scale       =       0.3333333333333333 [-]
	 SCS Opposite-Spin Scale   =       1.2000000000000000 [-]
	 SCS Same-Spin Energy      =      -0.0993155288839755 [Eh]
	 SCS Opposite-Spin Energy  =      -1.1743816779934226 [Eh]
	 SCS Correlation Energy    =      -1.2736972068773982 [Eh]
	 SCS Total Energy          =    -307.2175126644696093 [Eh]
	-----------------------------------------------------------

  Dipole Moment: [D]
     X:     0.4254      Y:    -1.5095      Z:     0.1024     Total:     1.5716

*** Psi4 exiting successfully. Buy a developer a beer!
