                               Psi4 1.3.2 release

  ==> Input File <==

--------------------------------------------------------------------------
#psi4
#
memory 32 gb

molecule  {
0 1
  O        1.1347230    -0.7035620     0.0192210
  O        0.0419040     1.2849720    -0.0032760
  C       -1.2222540    -0.7923610     0.0825354
  C       -2.4959880     0.0348800    -0.0353530
  C        0.0179090     0.0662010     0.0002130
  C        2.3639990     0.0443740     0.0345400
  H       -1.1558060    -1.4513950    -0.8901140
  H       -1.1802510    -1.4521290     0.8560270
  H       -2.5275640     0.6780870    -0.9162870
  H       -3.3724930    -0.6172840    -0.0483470
  H       -2.5529900     0.6769780     0.8451350
  H        3.1528260    -0.7045810     0.0501140
  H        2.4139010     0.6783770     0.9207630
  H        2.4412840     0.6703610    -0.8553990
units angstrom
no_reorient  #important for SAPT in psi4, default
symmetry c1  #important for SAPT in psi4, default
}

set PROPERTIES_ORIGIN ["COM"]
properties('MP2/aug-cc-pvtz', properties = ['dipole'])
--------------------------------------------------------------------------

    Molecular point group: c1
  Charge       = 0
  Multiplicity = 1
  Basis Set: AUG-CC-PVTZ
    Blend: AUG-CC-PVTZ
  Basis Set: (AUG-CC-PVTZ AUX)
    Blend: AUG-CC-PVTZ-JKFIT

    Orbital Energies [Eh]
    ---------------------

    Doubly Occupied:

       1A    -20.603885     2A    -20.545091     3A    -11.379986
       4A    -11.284343     5A    -11.246530     6A    -11.221113
       7A     -1.453967     8A     -1.352977     9A     -1.066153
      10A     -0.971680    11A     -0.878727    12A     -0.768356
      13A     -0.704028    14A     -0.675849    15A     -0.668131
      16A     -0.618231    17A     -0.599347    18A     -0.542217
      19A     -0.535861    20A     -0.530933    21A     -0.519293
      22A     -0.484406    23A     -0.462257    24A     -0.446267

  @DF-RHF Final Energy:  -305.97588068185172

   => Energetics <=

    Nuclear Repulsion Energy =            245.0116852331399855
    One-Electron Energy =                -902.8558774076733471
    Two-Electron Energy =                 351.8683114926816984
    Total Energy =                       -305.9758806818517201
  Basis Set: (AUG-CC-PVTZ AUX)
    Blend: AUG-CC-PVTZ-RI
    Molecular point group: c1

    Geometry (in Angstrom), charge = 0, multiplicity = 1:

       Center              X                  Y                   Z               Mass
    ------------   -----------------  -----------------  -----------------  -----------------
         O            1.134936676538    -0.703598783193     0.005594374089    15.994914619570
         O            0.042117676538     1.284935216807    -0.016902625911    15.994914619570
         C           -1.222040323462    -0.792397783193     0.068908774089    12.000000000000
         C           -2.495774323462     0.034843216807    -0.048979625911    12.000000000000
         C            0.018122676538     0.066164216807    -0.013413625911    12.000000000000
         C            2.364212676538     0.044337216807     0.020913374089    12.000000000000
         H           -1.155592323462    -1.451431783193    -0.903740625911     1.007825032230
         H           -1.180037323462    -1.452165783193     0.842400374089     1.007825032230
         H           -2.527350323462     0.678050216807    -0.929913625911     1.007825032230
         H           -3.372279323462    -0.617320783193    -0.061973625911     1.007825032230
         H           -2.552776323462     0.676941216807     0.831508374089     1.007825032230
         H            3.153039676538    -0.704617783193     0.036487374089     1.007825032230
         H            2.414114676538     0.678340216807     0.907136374089     1.007825032230
         H            2.441497676538     0.670324216807    -0.869025625911     1.007825032230

  Basis Set: AUG-CC-PVTZ
    Blend: AUG-CC-PVTZ
  Basis Set: (AUG-CC-PVTZ AUX)
    Blend: AUG-CC-PVTZ-JKFIT
	 Reference Energy          =    -305.9758806818517201 [Eh]
	 Singles Energy            =      -0.0000000000000000 [Eh]
	 Same-Spin Energy          =      -0.2975422896116490 [Eh]
	 Opposite-Spin Energy      =      -0.9771158548495334 [Eh]
	 Correlation Energy        =      -1.2746581444611824 [Eh]
	 Total Energy              =    -307.2505388263128907 [Eh]

	 ================> DF-SCS-MP2 Energies <==================
	-----------------------------------------------------------
	 SCS Same-Spin Scale       =       0.3333333333333333 [-]
	 SCS Opposite-Spin Scale   =       1.2000000000000000 [-]
	 SCS Same-Spin Energy      =      -0.0991807632038830 [Eh]
	 SCS Opposite-Spin Energy  =      -1.1725390258194401 [Eh]
	 SCS Correlation Energy    =      -1.2717197890233232 [Eh]
	 SCS Total Energy          =    -307.2476004708750565 [Eh]
	-----------------------------------------------------------

  Dipole Moment: [D]
     X:     0.4393      Y:    -1.5497      Z:     0.0572     Total:     1.6118

*** Psi4 exiting successfully. Buy a developer a beer!
