                               Psi4 1.3.2 release

  ==> Input File <==

--------------------------------------------------------------------------
#psi4
#
memory 32 gb

molecule  {
0 1
  O        1.1347230    -0.7035620     0.0192210
  O        0.0419040     1.2849720    -0.0032760
  C       -1.2214705    -0.7924960     0.0325417
  C       -2.4959880     0.0348800    -0.0353530
  C        0.0179090     0.0662010     0.0002130
  C        2.3639990     0.0443740     0.0345400
  H       -1.1558060    -1.4513950    -0.8901140
  H       -1.1802510    -1.4521290     0.8560270
  H       -2.5275640     0.6780870    -0.9162870
  H       -3.3724930    -0.6172840    -0.0483470
  H       -2.5529900     0.6769780     0.8451350
  H        3.1528260    -0.7045810     0.0501140
  H        2.4139010     0.6783770     0.9207630
  H        2.4412840     0.6703610    -0.8553990
units angstrom
no_reorient  #important for SAPT in psi4, default
symmetry c1  #important for SAPT in psi4, default
}

set PROPERTIES_ORIGIN ["COM"]
properties('MP2/aug-cc-pvtz', properties = ['dipole'])
--------------------------------------------------------------------------

    Molecular point group: c1
  Charge       = 0
  Multiplicity = 1
  Basis Set: AUG-CC-PVTZ
    Blend: AUG-CC-PVTZ
  Basis Set: (AUG-CC-PVTZ AUX)
    Blend: AUG-CC-PVTZ-JKFIT

    Orbital Energies [Eh]
    ---------------------

    Doubly Occupied:

       1A    -20.603904     2A    -20.544961     3A    -11.379387
       4A    -11.284340     5A    -11.245599     6A    -11.220469
       7A     -1.453942     8A     -1.352883     9A     -1.066117
      10A     -0.971723    11A     -0.878022    12A     -0.767226
      13A     -0.700800    14A     -0.676618    15A     -0.667949
      16A     -0.619604    17A     -0.599446    18A     -0.539614
      19A     -0.535821    20A     -0.526511    21A     -0.519697
      22A     -0.492214    23A     -0.462162    24A     -0.447311

  @DF-RHF Final Energy:  -305.98382800961855

   => Energetics <=

    Nuclear Repulsion Energy =            245.0535052642649418
    One-Electron Energy =                -902.9620245406989625
    Two-Electron Energy =                 351.9246912668155005
    Total Energy =                       -305.9838280096185485
  Basis Set: (AUG-CC-PVTZ AUX)
    Blend: AUG-CC-PVTZ-RI
    Molecular point group: c1

    Geometry (in Angstrom), charge = 0, multiplicity = 1:

       Center              X                  Y                   Z               Mass
    ------------   -----------------  -----------------  -----------------  -----------------
         O            1.134829899246    -0.703580385063     0.012407637544    15.994914619570
         O            0.042010899246     1.284953614937    -0.010089362456    15.994914619570
         C           -1.221363600754    -0.792514385063     0.025728337544    12.000000000000
         C           -2.495881100754     0.034861614937    -0.042166362456    12.000000000000
         C            0.018015899246     0.066182614937    -0.006600362456    12.000000000000
         C            2.364105899246     0.044355614937     0.027726637544    12.000000000000
         H           -1.155699100754    -1.451413385063    -0.896927362456     1.007825032230
         H           -1.180144100754    -1.452147385063     0.849213637544     1.007825032230
         H           -2.527457100754     0.678068614937    -0.923100362456     1.007825032230
         H           -3.372386100754    -0.617302385063    -0.055160362456     1.007825032230
         H           -2.552883100754     0.676959614937     0.838321637544     1.007825032230
         H            3.152932899246    -0.704599385063     0.043300637544     1.007825032230
         H            2.414007899246     0.678358614937     0.913949637544     1.007825032230
         H            2.441390899246     0.670342614937    -0.862212362456     1.007825032230

  Basis Set: AUG-CC-PVTZ
    Blend: AUG-CC-PVTZ
  Basis Set: (AUG-CC-PVTZ AUX)
    Blend: AUG-CC-PVTZ-JKFIT
	 Reference Energy          =    -305.9838280096185485 [Eh]
	 Singles Energy            =      -0.0000000000000000 [Eh]
	 Same-Spin Energy          =      -0.2974423853984974 [Eh]
	 Opposite-Spin Energy      =      -0.9767398135468148 [Eh]
	 Correlation Energy        =      -1.2741821989453124 [Eh]
	 Total Energy              =    -307.2580102085638600 [Eh]

	 ================> DF-SCS-MP2 Energies <==================
	-----------------------------------------------------------
	 SCS Same-Spin Scale       =       0.3333333333333333 [-]
	 SCS Opposite-Spin Scale   =       1.2000000000000000 [-]
	 SCS Same-Spin Energy      =      -0.0991474617994991 [Eh]
	 SCS Opposite-Spin Energy  =      -1.1720877762561777 [Eh]
	 SCS Correlation Energy    =      -1.2712352380556768 [Eh]
	 SCS Total Energy          =    -307.2550632476742294 [Eh]
	-----------------------------------------------------------

  Dipole Moment: [D]
     X:     0.4432      Y:    -1.5603      Z:     0.0334     Total:     1.6224

*** Psi4 exiting successfully. Buy a developer a beer!
