                               Psi4 1.3.2 release

  ==> Input File <==

--------------------------------------------------------------------------
#psi4
#
memory 32 gb

molecule  {
0 1
  O        1.1347230    -0.7035620     0.0192210
  O        0.0419040     1.2849720    -0.0032760
  C       -1.2246045    -0.7919559     0.2325164
  C       -2.4959880     0.0348800    -0.0353530
  C        0.0179090     0.0662010     0.0002130
  C        2.3639990     0.0443740     0.0345400
  H       -1.1558060    -1.4513950    -0.8901140
  H       -1.1802510    -1.4521290     0.8560270
  H       -2.5275640     0.6780870    -0.9162870
  H       -3.3724930    -0.6172840    -0.0483470
  H       -2.5529900     0.6769780     0.8451350
  H        3.1528260    -0.7045810     0.0501140
  H        2.4139010     0.6783770     0.9207630
  H        2.4412840     0.6703610    -0.8553990
units angstrom
no_reorient  #important for SAPT in psi4, default
symmetry c1  #important for SAPT in psi4, default
}

set PROPERTIES_ORIGIN ["COM"]
properties('MP2/aug-cc-pvtz', properties = ['dipole'])
--------------------------------------------------------------------------

    Molecular point group: c1
  Charge       = 0
  Multiplicity = 1
  Basis Set: AUG-CC-PVTZ
    Blend: AUG-CC-PVTZ
  Basis Set: (AUG-CC-PVTZ AUX)
    Blend: AUG-CC-PVTZ-JKFIT

    Orbital Energies [Eh]
    ---------------------

    Doubly Occupied:

       1A    -20.603756     2A    -20.545990     3A    -11.384057
       4A    -11.284365     5A    -11.252972     6A    -11.225492
       7A     -1.454137     8A     -1.353613     9A     -1.066443
      10A     -0.971354    11A     -0.884358    12A     -0.776652
      13A     -0.718001    14A     -0.673450    15A     -0.669045
      16A     -0.612418    17A     -0.597728    18A     -0.558918
      19A     -0.540723    20A     -0.534244    21A     -0.514274
      22A     -0.462912    23A     -0.461645    24A     -0.434396

  @DF-RHF Final Energy:  -305.91954188882937

   => Energetics <=

    Nuclear Repulsion Energy =            244.7174185353403288
    One-Electron Energy =                -902.1120329075118889
    Two-Electron Energy =                 351.4750724833421600
    Total Energy =                       -305.9195418888293716
  Basis Set: (AUG-CC-PVTZ AUX)
    Blend: AUG-CC-PVTZ-RI
    Molecular point group: c1

    Geometry (in Angstrom), charge = 0, multiplicity = 1:

       Center              X                  Y                   Z               Mass
    ------------   -----------------  -----------------  -----------------  -----------------
         O            1.135257008415    -0.703653991209    -0.014845402647    15.994914619570
         O            0.042438008415     1.284880008791    -0.037342402647    15.994914619570
         C           -1.224070491585    -0.792047891209     0.198449997353    12.000000000000
         C           -2.495453991585     0.034788008791    -0.069419402647    12.000000000000
         C            0.018443008415     0.066109008791    -0.033853402647    12.000000000000
         C            2.364533008415     0.044282008791     0.000473597353    12.000000000000
         H           -1.155271991585    -1.451486991209    -0.924180402647     1.007825032230
         H           -1.179716991585    -1.452220991209     0.821960597353     1.007825032230
         H           -2.527029991585     0.677995008791    -0.950353402647     1.007825032230
         H           -3.371958991585    -0.617375991209    -0.082413402647     1.007825032230
         H           -2.552455991585     0.676886008791     0.811068597353     1.007825032230
         H            3.153360008415    -0.704672991209     0.016047597353     1.007825032230
         H            2.414435008415     0.678285008791     0.886696597353     1.007825032230
         H            2.441818008415     0.670269008791    -0.889465402647     1.007825032230

  Basis Set: AUG-CC-PVTZ
    Blend: AUG-CC-PVTZ
  Basis Set: (AUG-CC-PVTZ AUX)
    Blend: AUG-CC-PVTZ-JKFIT
	 Reference Energy          =    -305.9195418888293716 [Eh]
	 Singles Energy            =      -0.0000000000000000 [Eh]
	 Same-Spin Energy          =      -0.2982555614018813 [Eh]
	 Opposite-Spin Energy      =      -0.9798249313140781 [Eh]
	 Correlation Energy        =      -1.2780804927159592 [Eh]
	 Total Energy              =    -307.1976223815453295 [Eh]

	 ================> DF-SCS-MP2 Energies <==================
	-----------------------------------------------------------
	 SCS Same-Spin Scale       =       0.3333333333333333 [-]
	 SCS Opposite-Spin Scale   =       1.2000000000000000 [-]
	 SCS Same-Spin Energy      =      -0.0994185204672937 [Eh]
	 SCS Opposite-Spin Energy  =      -1.1757899175768938 [Eh]
	 SCS Correlation Energy    =      -1.2752084380441875 [Eh]
	 SCS Total Energy          =    -307.1947503268735318 [Eh]
	-----------------------------------------------------------

  Dipole Moment: [D]
     X:     0.4159      Y:    -1.4820      Z:     0.1223     Total:     1.5441

*** Psi4 exiting successfully. Buy a developer a beer!
