                               Psi4 1.3.2 release

  ==> Input File <==

--------------------------------------------------------------------------
#psi4
#
memory 32 gb

molecule  {
1 1
  N       -1.2432358     0.0028081     0.0523150
  C       -0.3323220     1.2314210     0.1457240
  C       -0.3322730    -1.2314350    -0.1457220
  C        1.0439290     0.7199610    -0.2571670
  C        1.0439580    -0.7199190     0.2571660
  H       -1.8512360    -0.0930200     0.8140460
  H       -1.8512350     0.0929480    -0.8140510
  H       -0.3668390     1.5267420     1.1955240
  H       -0.7357950     2.0357900    -0.4702450
  H       -0.3667790    -1.5267620    -1.1955210
  H       -0.7357130    -2.0358170     0.4702510
  H        1.8333540     1.3329410     0.1830080
  H        1.1642110     0.7451780    -1.3446810
  H        1.8334070    -1.3328680    -0.1830100
  H        1.1642440    -0.7451310     1.3446800
units angstrom
no_reorient  #important for SAPT in psi4, default
symmetry c1  #important for SAPT in psi4, default
}

set PROPERTIES_ORIGIN ["COM"]
properties('MP2/aug-cc-pvtz', properties = ['dipole'])
--------------------------------------------------------------------------

    Molecular point group: c1
  Charge       = 1
  Multiplicity = 1
  Basis Set: AUG-CC-PVTZ
    Blend: AUG-CC-PVTZ
  Basis Set: (AUG-CC-PVTZ AUX)
    Blend: AUG-CC-PVTZ-JKFIT

    Orbital Energies [Eh]
    ---------------------

    Doubly Occupied:

       1A    -15.867627     2A    -11.469116     3A    -11.467034
       4A    -11.404246     5A    -11.403607     6A     -1.495087
       7A     -1.257090     8A     -1.191519     9A     -1.041830
      10A     -0.996630    11A     -0.955573    12A     -0.903812
      13A     -0.827625    14A     -0.793679    15A     -0.756915
      16A     -0.740610    17A     -0.700493    18A     -0.686075
      19A     -0.672280    20A     -0.659334

  @DF-RHF Final Energy:  -211.60221327917657

   => Energetics <=

    Nuclear Repulsion Energy =            198.9830774221094316
    One-Electron Energy =                -670.5902158464709828
    Two-Electron Energy =                 260.0049251451849841
    Total Energy =                       -211.6022132791765671
  Basis Set: (AUG-CC-PVTZ AUX)
    Blend: AUG-CC-PVTZ-RI
    Molecular point group: c1

    Geometry (in Angstrom), charge = 1, multiplicity = 1:

       Center              X                  Y                   Z               Mass
    ------------   -----------------  -----------------  -----------------  -----------------
         N           -1.239887993989     0.002257901453     0.042151704150    14.003074004430
         C           -0.328974193989     1.230870801453     0.135560704150    12.000000000000
         C           -0.328925193989    -1.231985198547    -0.155885295850    12.000000000000
         C            1.047276806011     0.719410801453    -0.267330295850    12.000000000000
         C            1.047305806011    -0.720469198547     0.247002704150    12.000000000000
         H           -1.847888193989    -0.093570198547     0.803882704150     1.007825032230
         H           -1.847887193989     0.092397801453    -0.824214295850     1.007825032230
         H           -0.363491193989     1.526191801453     1.185360704150     1.007825032230
         H           -0.732447193989     2.035239801453    -0.480408295850     1.007825032230
         H           -0.363431193989    -1.527312198547    -1.205684295850     1.007825032230
         H           -0.732365193989    -2.036367198547     0.460087704150     1.007825032230
         H            1.836701806011     1.332390801453     0.172844704150     1.007825032230
         H            1.167558806011     0.744627801453    -1.354844295850     1.007825032230
         H            1.836754806011    -1.333418198547    -0.193173295850     1.007825032230
         H            1.167591806011    -0.745681198547     1.334516704150     1.007825032230

  Basis Set: AUG-CC-PVTZ
    Blend: AUG-CC-PVTZ
  Basis Set: (AUG-CC-PVTZ AUX)
    Blend: AUG-CC-PVTZ-JKFIT
	 Reference Energy          =    -211.6022132791765671 [Eh]
	 Singles Energy            =      -0.0000000000000000 [Eh]
	 Same-Spin Energy          =      -0.2174575570460111 [Eh]
	 Opposite-Spin Energy      =      -0.7819017671303310 [Eh]
	 Correlation Energy        =      -0.9993593241763421 [Eh]
	 Total Energy              =    -212.6015726033529063 [Eh]

	 ================> DF-SCS-MP2 Energies <==================
	-----------------------------------------------------------
	 SCS Same-Spin Scale       =       0.3333333333333333 [-]
	 SCS Opposite-Spin Scale   =       1.2000000000000000 [-]
	 SCS Same-Spin Energy      =      -0.0724858523486703 [Eh]
	 SCS Opposite-Spin Energy  =      -0.9382821205563971 [Eh]
	 SCS Correlation Energy    =      -1.0107679729050676 [Eh]
	 SCS Total Energy          =    -212.6129812520816245 [Eh]
	-----------------------------------------------------------

  Dipole Moment: [D]
     X:    -3.2121      Y:    -0.0211      Z:    -0.0754     Total:     3.2130

*** Psi4 exiting successfully. Buy a developer a beer!
