                               Psi4 1.3.2 release

  ==> Input File <==

--------------------------------------------------------------------------
#psi4
#
memory 32 gb

molecule  {
1 1
  N       -1.2379963     0.0012047     0.0261388
  C       -0.3323220     1.2314210     0.1457240
  C       -0.3322730    -1.2314350    -0.1457220
  C        1.0439290     0.7199610    -0.2571670
  C        1.0439580    -0.7199190     0.2571660
  H       -1.8512360    -0.0930200     0.8140460
  H       -1.8512350     0.0929480    -0.8140510
  H       -0.3668390     1.5267420     1.1955240
  H       -0.7357950     2.0357900    -0.4702450
  H       -0.3667790    -1.5267620    -1.1955210
  H       -0.7357130    -2.0358170     0.4702510
  H        1.8333540     1.3329410     0.1830080
  H        1.1642110     0.7451780    -1.3446810
  H        1.8334070    -1.3328680    -0.1830100
  H        1.1642440    -0.7451310     1.3446800
units angstrom
no_reorient  #important for SAPT in psi4, default
symmetry c1  #important for SAPT in psi4, default
}

set PROPERTIES_ORIGIN ["COM"]
properties('MP2/aug-cc-pvtz', properties = ['dipole'])
--------------------------------------------------------------------------

    Molecular point group: c1
  Charge       = 1
  Multiplicity = 1
  Basis Set: AUG-CC-PVTZ
    Blend: AUG-CC-PVTZ
  Basis Set: (AUG-CC-PVTZ AUX)
    Blend: AUG-CC-PVTZ-JKFIT

    Orbital Energies [Eh]
    ---------------------

    Doubly Occupied:

       1A    -15.868476     2A    -11.468138     3A    -11.467127
       4A    -11.404041     5A    -11.403419     6A     -1.495521
       7A     -1.256290     8A     -1.192098     9A     -1.039939
      10A     -0.997066    11A     -0.955267    12A     -0.905009
      13A     -0.827426    14A     -0.793611    15A     -0.757206
      16A     -0.740874    17A     -0.700691    18A     -0.685954
      19A     -0.672177    20A     -0.659266

  @DF-RHF Final Energy:  -211.60505429481924

   => Energetics <=

    Nuclear Repulsion Energy =            199.0794258598583895
    One-Electron Energy =                -670.7897680583074589
    Two-Electron Energy =                 260.1052879036298577
    Total Energy =                       -211.6050542948192401
  Basis Set: (AUG-CC-PVTZ AUX)
    Blend: AUG-CC-PVTZ-RI
    Molecular point group: c1

    Geometry (in Angstrom), charge = 1, multiplicity = 1:

       Center              X                  Y                   Z               Mass
    ------------   -----------------  -----------------  -----------------  -----------------
         N           -1.235666359670     0.000965990303     0.021060694651    14.003074004430
         C           -0.329992059670     1.231182290303     0.140645894651    12.000000000000
         C           -0.329943059670    -1.231673709697    -0.150800105349    12.000000000000
         C            1.046258940330     0.719722290303    -0.262245105349    12.000000000000
         C            1.046287940330    -0.720157709697     0.252087894651    12.000000000000
         H           -1.848906059670    -0.093258709697     0.808967894651     1.007825032230
         H           -1.848905059670     0.092709290303    -0.819129105349     1.007825032230
         H           -0.364509059670     1.526503290303     1.190445894651     1.007825032230
         H           -0.733465059670     2.035551290303    -0.475323105349     1.007825032230
         H           -0.364449059670    -1.527000709697    -1.200599105349     1.007825032230
         H           -0.733383059670    -2.036055709697     0.465172894651     1.007825032230
         H            1.835683940330     1.332702290303     0.177929894651     1.007825032230
         H            1.166540940330     0.744939290303    -1.349759105349     1.007825032230
         H            1.835736940330    -1.333106709697    -0.188088105349     1.007825032230
         H            1.166573940330    -0.745369709697     1.339601894651     1.007825032230

  Basis Set: AUG-CC-PVTZ
    Blend: AUG-CC-PVTZ
  Basis Set: (AUG-CC-PVTZ AUX)
    Blend: AUG-CC-PVTZ-JKFIT
	 Reference Energy          =    -211.6050542948192401 [Eh]
	 Singles Energy            =      -0.0000000000000000 [Eh]
	 Same-Spin Energy          =      -0.2174838244934816 [Eh]
	 Opposite-Spin Energy      =      -0.7818510970707022 [Eh]
	 Correlation Energy        =      -0.9993349215641838 [Eh]
	 Total Energy              =    -212.6043892163834244 [Eh]

	 ================> DF-SCS-MP2 Energies <==================
	-----------------------------------------------------------
	 SCS Same-Spin Scale       =       0.3333333333333333 [-]
	 SCS Opposite-Spin Scale   =       1.2000000000000000 [-]
	 SCS Same-Spin Energy      =      -0.0724946081644939 [Eh]
	 SCS Opposite-Spin Energy  =      -0.9382213164848426 [Eh]
	 SCS Correlation Energy    =      -1.0107159246493365 [Eh]
	 SCS Total Energy          =    -212.6157702194685726 [Eh]
	-----------------------------------------------------------

  Dipole Moment: [D]
     X:    -3.2305      Y:    -0.0101      Z:    -0.0374     Total:     3.2307

*** Psi4 exiting successfully. Buy a developer a beer!
