                               Psi4 1.4a3.dev225

  ==> Input File <==

--------------------------------------------------------------------------
#psi4
#
memory 32 gb

molecule  {
1 1
  N       -1.2324810    -0.0000240    -0.0000010
  C       -0.3323220     1.2314210     0.1457240
  C       -0.3322730    -1.2314350    -0.1457220
  C        1.0439290     0.7199610    -0.2571670
  C        1.0439580    -0.7199190     0.2571660
  H       -1.8632889    -0.0948315     0.8299030
  H       -1.8512350     0.0929480    -0.8140510
  H       -0.3668390     1.5267420     1.1955240
  H       -0.7357950     2.0357900    -0.4702450
  H       -0.3667790    -1.5267620    -1.1955210
  H       -0.7357130    -2.0358170     0.4702510
  H        1.8333540     1.3329410     0.1830080
  H        1.1642110     0.7451780    -1.3446810
  H        1.8334070    -1.3328680    -0.1830100
  H        1.1642440    -0.7451310     1.3446800
units angstrom
no_reorient  #important for SAPT in psi4, default
symmetry c1  #important for SAPT in psi4, default
}

set PROPERTIES_ORIGIN ["COM"]
properties('MP2/aug-cc-pvtz', properties = ['dipole'])
--------------------------------------------------------------------------

    Molecular point group: c1
  Charge       = 1
  Multiplicity = 1
  Basis Set: AUG-CC-PVTZ
    Blend: AUG-CC-PVTZ
  Basis Set: (AUG-CC-PVTZ AUX)
    Blend: AUG-CC-PVTZ-JKFIT

    Orbital Energies [Eh]
    ---------------------

    Doubly Occupied:

       1A    -15.870595     2A    -11.467068     3A    -11.467050
       4A    -11.403716     5A    -11.403099     6A     -1.493447
       7A     -1.254590     8A     -1.192415     9A     -1.037724
      10A     -0.996554    11A     -0.951292    12A     -0.905180
      13A     -0.826284    14A     -0.793352    15A     -0.757503
      16A     -0.739980    17A     -0.699801    18A     -0.685658
      19A     -0.671904    20A     -0.659036

  @DF-RHF Final Energy:  -211.60477273746608

   => Energetics <=

    Nuclear Repulsion Energy =            199.0658496704630238
    One-Electron Energy =                -670.7887485428152559
    Two-Electron Energy =                 260.1181261348861540
    Total Energy =                       -211.6047727374660781
  Basis Set: (AUG-CC-PVTZ AUX)
    Blend: AUG-CC-PVTZ-RI
    Molecular point group: c1

    Geometry (in Angstrom), charge = 1, multiplicity = 1:

       Center              X                  Y                   Z               Mass
    ------------   -----------------  -----------------  -----------------  -----------------
         N           -1.231053983421     0.000001315032    -0.000222695237    14.003074004430
         C           -0.330894983421     1.231446315032     0.145502304763    12.000000000000
         C           -0.330845983421    -1.231409684968    -0.145943695237    12.000000000000
         C            1.045356016579     0.719986315032    -0.257388695237    12.000000000000
         C            1.045385016579    -0.719893684968     0.256944304763    12.000000000000
         H           -1.861861883421    -0.094806184968     0.829681304763     1.007825032230
         H           -1.849807983421     0.092973315032    -0.814272695237     1.007825032230
         H           -0.365411983421     1.526767315032     1.195302304763     1.007825032230
         H           -0.734367983421     2.035815315032    -0.470466695237     1.007825032230
         H           -0.365351983421    -1.526736684968    -1.195742695237     1.007825032230
         H           -0.734285983421    -2.035791684968     0.470029304763     1.007825032230
         H            1.834781016579     1.332966315032     0.182786304763     1.007825032230
         H            1.165638016579     0.745203315032    -1.344902695237     1.007825032230
         H            1.834834016579    -1.332842684968    -0.183231695237     1.007825032230
         H            1.165671016579    -0.745105684968     1.344458304763     1.007825032230

  Basis Set: AUG-CC-PVTZ
    Blend: AUG-CC-PVTZ
  Basis Set: (AUG-CC-PVTZ AUX)
    Blend: AUG-CC-PVTZ-JKFIT
	 Reference Energy          =    -211.6047727374660781 [Eh]
	 Singles Energy            =      -0.0000000000000000 [Eh]
	 Same-Spin Energy          =      -0.2176724532996222 [Eh]
	 Opposite-Spin Energy      =      -0.7822945352417555 [Eh]
	 Correlation Energy        =      -0.9999669885413778 [Eh]
	 Total Energy              =    -212.6047397260074661 [Eh]

	 ================> DF-SCS-MP2 Energies <==================
	-----------------------------------------------------------
	 SCS Same-Spin Scale       =       0.3333333333333333 [-]
	 SCS Opposite-Spin Scale   =       1.2000000000000000 [-]
	 SCS Same-Spin Energy      =      -0.0725574844332074 [Eh]
	 SCS Opposite-Spin Energy  =      -0.9387534422901066 [Eh]
	 SCS Correlation Energy    =      -1.0113109267233140 [Eh]
	 SCS Total Energy          =    -212.6160836641894036 [Eh]
	-----------------------------------------------------------

  Dipole Moment: [D]
     X:    -3.2644      Y:    -0.0024      Z:     0.0201     Total:     3.2645

*** Psi4 exiting successfully. Buy a developer a beer!
