                               Psi4 1.3.2 release

  ==> Input File <==

--------------------------------------------------------------------------
#psi4
#
memory 32 gb

molecule  {
1 1
  N       -1.2324810    -0.0000240    -0.0000010
  C       -0.3323220     1.2314210     0.1457240
  C       -0.3322730    -1.2314350    -0.1457220
  C        1.0439290     0.7199610    -0.2571670
  C        1.0439580    -0.7199190     0.2571660
  H       -1.7307070    -0.0749050     0.6554755
  H       -1.8512350     0.0929480    -0.8140510
  H       -0.3668390     1.5267420     1.1955240
  H       -0.7357950     2.0357900    -0.4702450
  H       -0.3667790    -1.5267620    -1.1955210
  H       -0.7357130    -2.0358170     0.4702510
  H        1.8333540     1.3329410     0.1830080
  H        1.1642110     0.7451780    -1.3446810
  H        1.8334070    -1.3328680    -0.1830100
  H        1.1642440    -0.7451310     1.3446800
units angstrom
no_reorient  #important for SAPT in psi4, default
symmetry c1  #important for SAPT in psi4, default
}

set PROPERTIES_ORIGIN ["COM"]
properties('MP2/aug-cc-pvtz', properties = ['dipole'])
--------------------------------------------------------------------------

    Molecular point group: c1
  Charge       = 1
  Multiplicity = 1
  Basis Set: AUG-CC-PVTZ
    Blend: AUG-CC-PVTZ
  Basis Set: (AUG-CC-PVTZ AUX)
    Blend: AUG-CC-PVTZ-JKFIT

    Orbital Energies [Eh]
    ---------------------

    Doubly Occupied:

       1A    -15.852172     2A    -11.469668     3A    -11.469595
       4A    -11.405400     5A    -11.404778     6A     -1.533820
       7A     -1.270346     8A     -1.195287     9A     -1.060836
      10A     -1.007500    11A     -0.979662    12A     -0.912362
      13A     -0.834435    14A     -0.795777    15A     -0.762954
      16A     -0.746116    17A     -0.705886    18A     -0.687770
      19A     -0.673887    20A     -0.660725

  @DF-RHF Final Energy:  -211.56577881372789

   => Energetics <=

    Nuclear Repulsion Energy =            200.4561150652669994
    One-Electron Energy =                -673.1858334935160428
    Two-Electron Energy =                 261.1639396145211549
    Total Energy =                       -211.5657788137278885
  Basis Set: (AUG-CC-PVTZ AUX)
    Blend: AUG-CC-PVTZ-RI
    Molecular point group: c1

    Geometry (in Angstrom), charge = 1, multiplicity = 1:

       Center              X                  Y                   Z               Mass
    ------------   -----------------  -----------------  -----------------  -----------------
         N           -1.232907714035    -0.000277292856     0.002216111242    14.003074004430
         C           -0.332748714035     1.231167707144     0.147941111242    12.000000000000
         C           -0.332699714035    -1.231688292856    -0.143504888758    12.000000000000
         C            1.043502285965     0.719707707144    -0.254949888758    12.000000000000
         C            1.043531285965    -0.720172292856     0.259383111242    12.000000000000
         H           -1.731133714035    -0.075158292856     0.657692611242     1.007825032230
         H           -1.851661714035     0.092694707144    -0.811833888758     1.007825032230
         H           -0.367265714035     1.526488707144     1.197741111242     1.007825032230
         H           -0.736221714035     2.035536707144    -0.468027888758     1.007825032230
         H           -0.367205714035    -1.527015292856    -1.193303888758     1.007825032230
         H           -0.736139714035    -2.036070292856     0.472468111242     1.007825032230
         H            1.832927285965     1.332687707144     0.185225111242     1.007825032230
         H            1.163784285965     0.744924707144    -1.342463888758     1.007825032230
         H            1.832980285965    -1.333121292856    -0.180792888758     1.007825032230
         H            1.163817285965    -0.745384292856     1.346897111242     1.007825032230

  Basis Set: AUG-CC-PVTZ
    Blend: AUG-CC-PVTZ
  Basis Set: (AUG-CC-PVTZ AUX)
    Blend: AUG-CC-PVTZ-JKFIT
	 Reference Energy          =    -211.5657788137278885 [Eh]
	 Singles Energy            =      -0.0000000000000000 [Eh]
	 Same-Spin Energy          =      -0.2164594795712789 [Eh]
	 Opposite-Spin Energy      =      -0.7787449393907696 [Eh]
	 Correlation Energy        =      -0.9952044189620485 [Eh]
	 Total Energy              =    -212.5609832326899493 [Eh]

	 ================> DF-SCS-MP2 Energies <==================
	-----------------------------------------------------------
	 SCS Same-Spin Scale       =       0.3333333333333333 [-]
	 SCS Opposite-Spin Scale   =       1.2000000000000000 [-]
	 SCS Same-Spin Energy      =      -0.0721531598570929 [Eh]
	 SCS Opposite-Spin Energy  =      -0.9344939272689234 [Eh]
	 SCS Correlation Energy    =      -1.0066470871260165 [Eh]
	 SCS Total Energy          =    -212.5724259008539150 [Eh]
	-----------------------------------------------------------

  Dipole Moment: [D]
     X:    -3.0768      Y:     0.0211      Z:    -0.1891     Total:     3.0827

*** Psi4 exiting successfully. Buy a developer a beer!
