                               Psi4 1.3.2 release

  ==> Input File <==

--------------------------------------------------------------------------
#psi4
#
memory 32 gb

molecule  {
1 1
  N       -1.2324810    -0.0000240    -0.0000010
  C       -0.2480141     1.1660644     0.1379899
  C       -0.3322730    -1.2314350    -0.1457220
  C        1.0439290     0.7199610    -0.2571670
  C        1.0439580    -0.7199190     0.2571660
  H       -1.8512360    -0.0930200     0.8140460
  H       -1.8512350     0.0929480    -0.8140510
  H       -0.3668390     1.5267420     1.1955240
  H       -0.7357950     2.0357900    -0.4702450
  H       -0.3667790    -1.5267620    -1.1955210
  H       -0.7357130    -2.0358170     0.4702510
  H        1.8333540     1.3329410     0.1830080
  H        1.1642110     0.7451780    -1.3446810
  H        1.8334070    -1.3328680    -0.1830100
  H        1.1642440    -0.7451310     1.3446800
units angstrom
no_reorient  #important for SAPT in psi4, default
symmetry c1  #important for SAPT in psi4, default
}

set PROPERTIES_ORIGIN ["COM"]
properties('MP2/aug-cc-pvtz', properties = ['dipole'])
--------------------------------------------------------------------------

    Molecular point group: c1
  Charge       = 1
  Multiplicity = 1
  Basis Set: AUG-CC-PVTZ
    Blend: AUG-CC-PVTZ
  Basis Set: (AUG-CC-PVTZ AUX)
    Blend: AUG-CC-PVTZ-JKFIT

    Orbital Energies [Eh]
    ---------------------

    Doubly Occupied:

       1A    -15.868631     2A    -11.472299     3A    -11.467056
       4A    -11.404923     5A    -11.398654     6A     -1.498497
       7A     -1.272020     8A     -1.194122     9A     -1.035496
      10A     -1.001073    11A     -0.953624    12A     -0.906073
      13A     -0.832179    14A     -0.788327    15A     -0.759935
      16A     -0.744884    17A     -0.700615    18A     -0.686979
      19A     -0.673534    20A     -0.650356

  @DF-RHF Final Energy:  -211.59094807735116

   => Energetics <=

    Nuclear Repulsion Energy =            200.5113445278090865
    One-Electron Energy =                -673.5860349944604195
    Two-Electron Energy =                 261.4837423893001187
    Total Energy =                       -211.5909480773511859
  Basis Set: (AUG-CC-PVTZ AUX)
    Blend: AUG-CC-PVTZ-RI
    Molecular point group: c1

    Geometry (in Angstrom), charge = 1, multiplicity = 1:

       Center              X                  Y                   Z               Mass
    ------------   -----------------  -----------------  -----------------  -----------------
         N           -1.245257967932     0.010856464160     0.001286576166    14.003074004430
         C           -0.260791067932     1.176944864160     0.139277476166    12.000000000000
         C           -0.345049967932    -1.220554535840    -0.144434423834    12.000000000000
         C            1.031152032068     0.730841464160    -0.255879423834    12.000000000000
         C            1.031181032068    -0.709038535840     0.258453576166    12.000000000000
         H           -1.864012967932    -0.082139535840     0.815333576166     1.007825032230
         H           -1.864011967932     0.103828464160    -0.812763423834     1.007825032230
         H           -0.379615967932     1.537622464160     1.196811576166     1.007825032230
         H           -0.748571967932     2.046670464160    -0.468957423834     1.007825032230
         H           -0.379555967932    -1.515881535840    -1.194233423834     1.007825032230
         H           -0.748489967932    -2.024936535840     0.471538576166     1.007825032230
         H            1.820577032068     1.343821464160     0.184295576166     1.007825032230
         H            1.151434032068     0.756058464160    -1.343393423834     1.007825032230
         H            1.820630032068    -1.321987535840    -0.181722423834     1.007825032230
         H            1.151467032068    -0.734250535840     1.345967576166     1.007825032230

  Basis Set: AUG-CC-PVTZ
    Blend: AUG-CC-PVTZ
  Basis Set: (AUG-CC-PVTZ AUX)
    Blend: AUG-CC-PVTZ-JKFIT
	 Reference Energy          =    -211.5909480773511575 [Eh]
	 Singles Energy            =      -0.0000000000000000 [Eh]
	 Same-Spin Energy          =      -0.2188826189944176 [Eh]
	 Opposite-Spin Energy      =      -0.7833997621498885 [Eh]
	 Correlation Energy        =      -1.0022823811443060 [Eh]
	 Total Energy              =    -212.5932304584954693 [Eh]

	 ================> DF-SCS-MP2 Energies <==================
	-----------------------------------------------------------
	 SCS Same-Spin Scale       =       0.3333333333333333 [-]
	 SCS Opposite-Spin Scale   =       1.2000000000000000 [-]
	 SCS Same-Spin Energy      =      -0.0729608729981392 [Eh]
	 SCS Opposite-Spin Energy  =      -0.9400797145798662 [Eh]
	 SCS Correlation Energy    =      -1.0130405875780053 [Eh]
	 SCS Total Energy          =    -212.6039886649291759 [Eh]
	-----------------------------------------------------------

  Dipole Moment: [D]
     X:    -3.2197      Y:     0.0121      Z:     0.0125     Total:     3.2197

*** Psi4 exiting successfully. Buy a developer a beer!
