                               Psi4 1.3.2 release

  ==> Input File <==

--------------------------------------------------------------------------
#psi4
#
memory 32 gb

molecule  {
1 1
  N       -1.2324810    -0.0000240    -0.0000010
  C       -0.4498123     1.0706906     0.1267037
  C       -0.3322730    -1.2314350    -0.1457220
  C        1.0439290     0.7199610    -0.2571670
  C        1.0439580    -0.7199190     0.2571660
  H       -1.8512360    -0.0930200     0.8140460
  H       -1.8512350     0.0929480    -0.8140510
  H       -0.3668390     1.5267420     1.1955240
  H       -0.7357950     2.0357900    -0.4702450
  H       -0.3667790    -1.5267620    -1.1955210
  H       -0.7357130    -2.0358170     0.4702510
  H        1.8333540     1.3329410     0.1830080
  H        1.1642110     0.7451780    -1.3446810
  H        1.8334070    -1.3328680    -0.1830100
  H        1.1642440    -0.7451310     1.3446800
units angstrom
no_reorient  #important for SAPT in psi4, default
symmetry c1  #important for SAPT in psi4, default
}

set PROPERTIES_ORIGIN ["COM"]
properties('MP2/aug-cc-pvtz', properties = ['dipole'])
--------------------------------------------------------------------------

    Molecular point group: c1
  Charge       = 1
  Multiplicity = 1
  Basis Set: AUG-CC-PVTZ
    Blend: AUG-CC-PVTZ
  Basis Set: (AUG-CC-PVTZ AUX)
    Blend: AUG-CC-PVTZ-JKFIT

    Orbital Energies [Eh]
    ---------------------

    Doubly Occupied:

       1A    -15.881239     2A    -11.473089     3A    -11.461999
       4A    -11.404619     5A    -11.402443     6A     -1.553382
       7A     -1.257266     8A     -1.192284     9A     -1.041448
      10A     -1.009708    11A     -0.978756    12A     -0.925550
      13A     -0.839730    14A     -0.795068    15A     -0.769248
      16A     -0.738539    17A     -0.682975    18A     -0.678926
      19A     -0.648809    20A     -0.640905

  @DF-RHF Final Energy:  -211.56611401828931

   => Energetics <=

    Nuclear Repulsion Energy =            201.5069385799264126
    One-Electron Energy =                -675.3941409026488145
    Two-Electron Energy =                 262.3210883044330330
    Total Energy =                       -211.5661140182893405
  Basis Set: (AUG-CC-PVTZ AUX)
    Blend: AUG-CC-PVTZ-RI
    Molecular point group: c1

    Geometry (in Angstrom), charge = 1, multiplicity = 1:

       Center              X                  Y                   Z               Mass
    ------------   -----------------  -----------------  -----------------  -----------------
         N           -1.211662880403     0.026734163560     0.003165487261    14.003074004430
         C           -0.428994180403     1.097448763560     0.129870187261    12.000000000000
         C           -0.311454880403    -1.204676836440    -0.142555512739    12.000000000000
         C            1.064747119597     0.746719163560    -0.254000512739    12.000000000000
         C            1.064776119597    -0.693160836440     0.260332487261    12.000000000000
         H           -1.830417880403    -0.066261836440     0.817212487261     1.007825032230
         H           -1.830416880403     0.119706163560    -0.810884512739     1.007825032230
         H           -0.346020880403     1.553500163560     1.198690487261     1.007825032230
         H           -0.714976880403     2.062548163560    -0.467078512739     1.007825032230
         H           -0.345960880403    -1.500003836440    -1.192354512739     1.007825032230
         H           -0.714894880403    -2.009058836440     0.473417487261     1.007825032230
         H            1.854172119597     1.359699163560     0.186174487261     1.007825032230
         H            1.185029119597     0.771936163560    -1.341514512739     1.007825032230
         H            1.854225119597    -1.306109836440    -0.179843512739     1.007825032230
         H            1.185062119597    -0.718372836440     1.347846487261     1.007825032230

  Basis Set: AUG-CC-PVTZ
    Blend: AUG-CC-PVTZ
  Basis Set: (AUG-CC-PVTZ AUX)
    Blend: AUG-CC-PVTZ-JKFIT
	 Reference Energy          =    -211.5661140182893121 [Eh]
	 Singles Energy            =      -0.0000000000000000 [Eh]
	 Same-Spin Energy          =      -0.2196355974236007 [Eh]
	 Opposite-Spin Energy      =      -0.7836457140623075 [Eh]
	 Correlation Energy        =      -1.0032813114859083 [Eh]
	 Total Energy              =    -212.5693953297752330 [Eh]

	 ================> DF-SCS-MP2 Energies <==================
	-----------------------------------------------------------
	 SCS Same-Spin Scale       =       0.3333333333333333 [-]
	 SCS Opposite-Spin Scale   =       1.2000000000000000 [-]
	 SCS Same-Spin Energy      =      -0.0732118658078669 [Eh]
	 SCS Opposite-Spin Energy  =      -0.9403748568747690 [Eh]
	 SCS Correlation Energy    =      -1.0135867226826358 [Eh]
	 SCS Total Energy          =    -212.5797007409719583 [Eh]
	-----------------------------------------------------------

  Dipole Moment: [D]
     X:    -3.3632      Y:    -0.1768      Z:    -0.0275     Total:     3.3679

*** Psi4 exiting successfully. Buy a developer a beer!
