                               Psi4 1.3.2 release

  ==> Input File <==

--------------------------------------------------------------------------
#psi4
#
memory 32 gb

molecule  {
1 1
  N       -1.2324810    -0.0000240    -0.0000010
  C       -0.3437765     1.2367132     0.1693037
  C       -0.3322730    -1.2314350    -0.1457220
  C        1.0439290     0.7199610    -0.2571670
  C        1.0439580    -0.7199190     0.2571660
  H       -1.8512360    -0.0930200     0.8140460
  H       -1.8512350     0.0929480    -0.8140510
  H       -0.3668390     1.5267420     1.1955240
  H       -0.7357950     2.0357900    -0.4702450
  H       -0.3667790    -1.5267620    -1.1955210
  H       -0.7357130    -2.0358170     0.4702510
  H        1.8333540     1.3329410     0.1830080
  H        1.1642110     0.7451780    -1.3446810
  H        1.8334070    -1.3328680    -0.1830100
  H        1.1642440    -0.7451310     1.3446800
units angstrom
no_reorient  #important for SAPT in psi4, default
symmetry c1  #important for SAPT in psi4, default
}

set PROPERTIES_ORIGIN ["COM"]
properties('MP2/aug-cc-pvtz', properties = ['dipole'])
--------------------------------------------------------------------------

    Molecular point group: c1
  Charge       = 1
  Multiplicity = 1
  Basis Set: AUG-CC-PVTZ
    Blend: AUG-CC-PVTZ
  Basis Set: (AUG-CC-PVTZ AUX)
    Blend: AUG-CC-PVTZ-JKFIT

    Orbital Energies [Eh]
    ---------------------

    Doubly Occupied:

       1A    -15.869330     2A    -11.467190     3A    -11.466506
       4A    -11.404560     5A    -11.403172     6A     -1.495808
       7A     -1.253782     8A     -1.192139     9A     -1.039901
      10A     -0.997316    11A     -0.953868    12A     -0.905414
      13A     -0.827957    14A     -0.796313    15A     -0.757542
      16A     -0.738248    17A     -0.704510    18A     -0.682488
      19A     -0.670146    20A     -0.660192

  @DF-RHF Final Energy:  -211.60523783041685

   => Energetics <=

    Nuclear Repulsion Energy =            198.9891757490960629
    One-Electron Energy =                -670.6160654248919855
    Two-Electron Energy =                 260.0216518453790968
    Total Energy =                       -211.6052378304168542
  Basis Set: (AUG-CC-PVTZ AUX)
    Blend: AUG-CC-PVTZ-RI
    Molecular point group: c1

    Geometry (in Angstrom), charge = 1, multiplicity = 1:

       Center              X                  Y                   Z               Mass
    ------------   -----------------  -----------------  -----------------  -----------------
         N           -1.229315574938    -0.000905051155    -0.003926502304    14.003074004430
         C           -0.340611074938     1.235832148845     0.165378197696    12.000000000000
         C           -0.329107574938    -1.232316051155    -0.149647502304    12.000000000000
         C            1.047094425062     0.719079948845    -0.261092502304    12.000000000000
         C            1.047123425062    -0.720800051155     0.253240497696    12.000000000000
         H           -1.848070574938    -0.093901051155     0.810120497696     1.007825032230
         H           -1.848069574938     0.092066948845    -0.817976502304     1.007825032230
         H           -0.363673574938     1.525860948845     1.191598497696     1.007825032230
         H           -0.732629574938     2.034908948845    -0.474170502304     1.007825032230
         H           -0.363613574938    -1.527643051155    -1.199446502304     1.007825032230
         H           -0.732547574938    -2.036698051155     0.466325497696     1.007825032230
         H            1.836519425062     1.332059948845     0.179082497696     1.007825032230
         H            1.167376425062     0.744296948845    -1.348606502304     1.007825032230
         H            1.836572425062    -1.333749051155    -0.186935502304     1.007825032230
         H            1.167409425062    -0.746012051155     1.340754497696     1.007825032230

  Basis Set: AUG-CC-PVTZ
    Blend: AUG-CC-PVTZ
  Basis Set: (AUG-CC-PVTZ AUX)
    Blend: AUG-CC-PVTZ-JKFIT
	 Reference Energy          =    -211.6052378304168542 [Eh]
	 Singles Energy            =      -0.0000000000000000 [Eh]
	 Same-Spin Energy          =      -0.2174324772396872 [Eh]
	 Opposite-Spin Energy      =      -0.7818350363093242 [Eh]
	 Correlation Energy        =      -0.9992675135490114 [Eh]
	 Total Energy              =    -212.6045053439658545 [Eh]

	 ================> DF-SCS-MP2 Energies <==================
	-----------------------------------------------------------
	 SCS Same-Spin Scale       =       0.3333333333333333 [-]
	 SCS Opposite-Spin Scale   =       1.2000000000000000 [-]
	 SCS Same-Spin Energy      =      -0.0724774924132291 [Eh]
	 SCS Opposite-Spin Energy  =      -0.9382020435711890 [Eh]
	 SCS Correlation Energy    =      -1.0106795359844181 [Eh]
	 SCS Total Energy          =    -212.6159173664012769 [Eh]
	-----------------------------------------------------------

  Dipole Moment: [D]
     X:    -3.2455      Y:    -0.0013      Z:    -0.0046     Total:     3.2455

*** Psi4 exiting successfully. Buy a developer a beer!
