                               Psi4 1.3.2 release

  ==> Input File <==

--------------------------------------------------------------------------
#psi4
#
memory 32 gb

molecule  {
1 1
  N       -1.1461025    -0.0548258    -0.0312203
  C       -0.3323220     1.2314210     0.1457240
  C       -0.3322730    -1.2314350    -0.1457220
  C        1.0439290     0.7199610    -0.2571670
  C        1.0439580    -0.7199190     0.2571660
  H       -1.8512360    -0.0930200     0.8140460
  H       -1.8512350     0.0929480    -0.8140510
  H       -0.3668390     1.5267420     1.1955240
  H       -0.7357950     2.0357900    -0.4702450
  H       -0.3667790    -1.5267620    -1.1955210
  H       -0.7357130    -2.0358170     0.4702510
  H        1.8333540     1.3329410     0.1830080
  H        1.1642110     0.7451780    -1.3446810
  H        1.8334070    -1.3328680    -0.1830100
  H        1.1642440    -0.7451310     1.3446800
units angstrom
no_reorient  #important for SAPT in psi4, default
symmetry c1  #important for SAPT in psi4, default
}

set PROPERTIES_ORIGIN ["COM"]
properties('MP2/aug-cc-pvtz', properties = ['dipole'])
--------------------------------------------------------------------------

    Molecular point group: c1
  Charge       = 1
  Multiplicity = 1
  Basis Set: AUG-CC-PVTZ
    Blend: AUG-CC-PVTZ
  Basis Set: (AUG-CC-PVTZ AUX)
    Blend: AUG-CC-PVTZ-JKFIT

    Orbital Energies [Eh]
    ---------------------

    Doubly Occupied:

       1A    -15.878545     2A    -11.468697     3A    -11.457482
       4A    -11.402034     5A    -11.401037     6A     -1.507757
       7A     -1.248982     8A     -1.202810     9A     -1.032032
      10A     -0.999297    11A     -0.940920    12A     -0.918679
      13A     -0.823420    14A     -0.793541    15A     -0.773578
      16A     -0.727839    17A     -0.691422    18A     -0.684569
      19A     -0.670902    20A     -0.658280

  @DF-RHF Final Energy:  -211.58938559634163

   => Energetics <=

    Nuclear Repulsion Energy =            200.6404367671196383
    One-Electron Energy =                -673.8959930086710983
    Two-Electron Energy =                 261.6661706452098315
    Total Energy =                       -211.5893855963416286
  Basis Set: (AUG-CC-PVTZ AUX)
    Blend: AUG-CC-PVTZ-RI
    Molecular point group: c1

    Geometry (in Angstrom), charge = 1, multiplicity = 1:

       Center              X                  Y                   Z               Mass
    ------------   -----------------  -----------------  -----------------  -----------------
         N           -1.161624558006    -0.044179592621    -0.025155384190    14.003074004430
         C           -0.347844058006     1.242067207379     0.151788915810    12.000000000000
         C           -0.347795058006    -1.220788792621    -0.139657084190    12.000000000000
         C            1.028406941994     0.730607207379    -0.251102084190    12.000000000000
         C            1.028435941994    -0.709272792621     0.263230915810    12.000000000000
         H           -1.866758058006    -0.082373792621     0.820110915810     1.007825032230
         H           -1.866757058006     0.103594207379    -0.807986084190     1.007825032230
         H           -0.382361058006     1.537388207379     1.201588915810     1.007825032230
         H           -0.751317058006     2.046436207379    -0.464180084190     1.007825032230
         H           -0.382301058006    -1.516115792621    -1.189456084190     1.007825032230
         H           -0.751235058006    -2.025170792621     0.476315915810     1.007825032230
         H            1.817831941994     1.343587207379     0.189072915810     1.007825032230
         H            1.148688941994     0.755824207379    -1.338616084190     1.007825032230
         H            1.817884941994    -1.322221792621    -0.176945084190     1.007825032230
         H            1.148721941994    -0.734484792621     1.350744915810     1.007825032230

  Basis Set: AUG-CC-PVTZ
    Blend: AUG-CC-PVTZ
  Basis Set: (AUG-CC-PVTZ AUX)
    Blend: AUG-CC-PVTZ-JKFIT
	 Reference Energy          =    -211.5893855963416286 [Eh]
	 Singles Energy            =      -0.0000000000000000 [Eh]
	 Same-Spin Energy          =      -0.2192145475048856 [Eh]
	 Opposite-Spin Energy      =      -0.7842714060299483 [Eh]
	 Correlation Energy        =      -1.0034859535348337 [Eh]
	 Total Energy              =    -212.5928715498764632 [Eh]

	 ================> DF-SCS-MP2 Energies <==================
	-----------------------------------------------------------
	 SCS Same-Spin Scale       =       0.3333333333333333 [-]
	 SCS Opposite-Spin Scale   =       1.2000000000000000 [-]
	 SCS Same-Spin Energy      =      -0.0730715158349619 [Eh]
	 SCS Opposite-Spin Energy  =      -0.9411256872359379 [Eh]
	 SCS Correlation Energy    =      -1.0141972030708999 [Eh]
	 SCS Total Energy          =    -212.6035827994125214 [Eh]
	-----------------------------------------------------------

  Dipole Moment: [D]
     X:    -3.4598      Y:     0.1409      Z:     0.0480     Total:     3.4630

*** Psi4 exiting successfully. Buy a developer a beer!
