                               Psi4 1.3.2 release

  ==> Input File <==

--------------------------------------------------------------------------
#psi4
#
memory 32 gb

molecule  {
1 1
  N       -1.2324810    -0.0000240    -0.0000010
  C       -0.3108175     1.2156324     0.1438556
  C       -0.3322730    -1.2314350    -0.1457220
  C        1.0439290     0.7199610    -0.2571670
  C        1.0439580    -0.7199190     0.2571660
  H       -1.8512360    -0.0930200     0.8140460
  H       -1.8512350     0.0929480    -0.8140510
  H       -0.3668390     1.5267420     1.1955240
  H       -0.7357950     2.0357900    -0.4702450
  H       -0.3667790    -1.5267620    -1.1955210
  H       -0.7357130    -2.0358170     0.4702510
  H        1.8333540     1.3329410     0.1830080
  H        1.1642110     0.7451780    -1.3446810
  H        1.8334070    -1.3328680    -0.1830100
  H        1.1642440    -0.7451310     1.3446800
units angstrom
no_reorient  #important for SAPT in psi4, default
symmetry c1  #important for SAPT in psi4, default
}

set PROPERTIES_ORIGIN ["COM"]
properties('MP2/aug-cc-pvtz', properties = ['dipole'])
--------------------------------------------------------------------------

    Molecular point group: c1
  Charge       = 1
  Multiplicity = 1
  Basis Set: AUG-CC-PVTZ
    Blend: AUG-CC-PVTZ
  Basis Set: (AUG-CC-PVTZ AUX)
    Blend: AUG-CC-PVTZ-JKFIT

    Orbital Energies [Eh]
    ---------------------

    Doubly Occupied:

       1A    -15.869020     2A    -11.468389     3A    -11.467167
       4A    -11.403848     5A    -11.402280     6A     -1.496596
       7A     -1.259148     8A     -1.193081     9A     -1.038017
      10A     -0.998199    11A     -0.954135    12A     -0.906136
      13A     -0.828174    14A     -0.791829    15A     -0.754502
      16A     -0.744605    17A     -0.698940    18A     -0.688150
      19A     -0.672742    20A     -0.658221

  @DF-RHF Final Energy:  -211.60468455612539

   => Energetics <=

    Nuclear Repulsion Energy =            199.4951850412074918
    One-Electron Energy =                -671.6133822756372638
    Two-Electron Energy =                 260.5135126783043802
    Total Energy =                       -211.6046845561253917
  Basis Set: (AUG-CC-PVTZ AUX)
    Blend: AUG-CC-PVTZ-RI
    Molecular point group: c1

    Geometry (in Angstrom), charge = 1, multiplicity = 1:

       Center              X                  Y                   Z               Mass
    ------------   -----------------  -----------------  -----------------  -----------------
         N           -1.234802544048     0.002604451513     0.000310062476    14.003074004430
         C           -0.313139044048     1.218260851513     0.144166662476    12.000000000000
         C           -0.334594544048    -1.228806548487    -0.145410937524    12.000000000000
         C            1.041607455952     0.722589451513    -0.256855937524    12.000000000000
         C            1.041636455952    -0.717290548487     0.257477062476    12.000000000000
         H           -1.853557544048    -0.090391548487     0.814357062476     1.007825032230
         H           -1.853556544048     0.095576451513    -0.813739937524     1.007825032230
         H           -0.369160544048     1.529370451513     1.195835062476     1.007825032230
         H           -0.738116544048     2.038418451513    -0.469933937524     1.007825032230
         H           -0.369100544048    -1.524133548487    -1.195209937524     1.007825032230
         H           -0.738034544048    -2.033188548487     0.470562062476     1.007825032230
         H            1.831032455952     1.335569451513     0.183319062476     1.007825032230
         H            1.161889455952     0.747806451513    -1.344369937524     1.007825032230
         H            1.831085455952    -1.330239548487    -0.182698937524     1.007825032230
         H            1.161922455952    -0.742502548487     1.344991062476     1.007825032230

  Basis Set: AUG-CC-PVTZ
    Blend: AUG-CC-PVTZ
  Basis Set: (AUG-CC-PVTZ AUX)
    Blend: AUG-CC-PVTZ-JKFIT
	 Reference Energy          =    -211.6046845561253917 [Eh]
	 Singles Energy            =      -0.0000000000000000 [Eh]
	 Same-Spin Energy          =      -0.2177886186635858 [Eh]
	 Opposite-Spin Energy      =      -0.7821148686934273 [Eh]
	 Correlation Energy        =      -0.9999034873570131 [Eh]
	 Total Energy              =    -212.6045880434824085 [Eh]

	 ================> DF-SCS-MP2 Energies <==================
	-----------------------------------------------------------
	 SCS Same-Spin Scale       =       0.3333333333333333 [-]
	 SCS Opposite-Spin Scale   =       1.2000000000000000 [-]
	 SCS Same-Spin Energy      =      -0.0725962062211953 [Eh]
	 SCS Opposite-Spin Energy  =      -0.9385378424321127 [Eh]
	 SCS Correlation Energy    =      -1.0111340486533080 [Eh]
	 SCS Total Energy          =    -212.6158186047786955 [Eh]
	-----------------------------------------------------------

  Dipole Moment: [D]
     X:    -3.2450      Y:     0.0074      Z:     0.0031     Total:     3.2450

*** Psi4 exiting successfully. Buy a developer a beer!
