                               Psi4 1.3.2 release

  ==> Input File <==

--------------------------------------------------------------------------
#psi4
#
memory 32 gb

molecule  {
1 1
  N       -1.2324810    -0.0000240    -0.0000010
  C       -0.3323220     1.2314210     0.1457240
  C       -0.3322730    -1.2314350    -0.1457220
  C        1.0439290     0.7199610    -0.2571670
  C        1.0439580    -0.7199190     0.2571660
  H       -1.7925744    -0.0976907     0.8549465
  H       -1.8512350     0.0929480    -0.8140510
  H       -0.3668390     1.5267420     1.1955240
  H       -0.7357950     2.0357900    -0.4702450
  H       -0.3667790    -1.5267620    -1.1955210
  H       -0.7357130    -2.0358170     0.4702510
  H        1.8333540     1.3329410     0.1830080
  H        1.1642110     0.7451780    -1.3446810
  H        1.8334070    -1.3328680    -0.1830100
  H        1.1642440    -0.7451310     1.3446800
units angstrom
no_reorient  #important for SAPT in psi4, default
symmetry c1  #important for SAPT in psi4, default
}

set PROPERTIES_ORIGIN ["COM"]
properties('MP2/aug-cc-pvtz', properties = ['dipole'])
--------------------------------------------------------------------------

    Molecular point group: c1
  Charge       = 1
  Multiplicity = 1
  Basis Set: AUG-CC-PVTZ
    Blend: AUG-CC-PVTZ
  Basis Set: (AUG-CC-PVTZ AUX)
    Blend: AUG-CC-PVTZ-JKFIT

    Orbital Energies [Eh]
    ---------------------

    Doubly Occupied:

       1A    -15.869284     2A    -11.467156     3A    -11.467127
       4A    -11.403926     5A    -11.403280     6A     -1.496511
       7A     -1.254878     8A     -1.192942     9A     -1.036998
      10A     -0.998668    11A     -0.960076    12A     -0.903673
      13A     -0.828108    14A     -0.793940    15A     -0.758206
      16A     -0.738215    17A     -0.701044    18A     -0.685916
      19A     -0.672175    20A     -0.659440

  @DF-RHF Final Energy:  -211.60523753383876

   => Energetics <=

    Nuclear Repulsion Energy =            199.2458841470465245
    One-Electron Energy =                -671.1191177788953155
    Two-Electron Energy =                 260.2679960980100304
    Total Energy =                       -211.6052375338387606
  Basis Set: (AUG-CC-PVTZ AUX)
    Blend: AUG-CC-PVTZ-RI
    Molecular point group: c1

    Geometry (in Angstrom), charge = 1, multiplicity = 1:

       Center              X                  Y                   Z               Mass
    ------------   -----------------  -----------------  -----------------  -----------------
         N           -1.232042697819     0.000041291729    -0.000572847880    14.003074004430
         C           -0.331883697819     1.231486291729     0.145152152120    12.000000000000
         C           -0.331834697819    -1.231369708271    -0.146293847880    12.000000000000
         C            1.044367302181     0.720026291729    -0.257738847880    12.000000000000
         C            1.044396302181    -0.719853708271     0.256594152120    12.000000000000
         H           -1.792136097819    -0.097625408271     0.854374652120     1.007825032230
         H           -1.850796697819     0.093013291729    -0.814622847880     1.007825032230
         H           -0.366400697819     1.526807291729     1.194952152120     1.007825032230
         H           -0.735356697819     2.035855291729    -0.470816847880     1.007825032230
         H           -0.366340697819    -1.526696708271    -1.196092847880     1.007825032230
         H           -0.735274697819    -2.035751708271     0.469679152120     1.007825032230
         H            1.833792302181     1.333006291729     0.182436152120     1.007825032230
         H            1.164649302181     0.745243291729    -1.345252847880     1.007825032230
         H            1.833845302181    -1.332802708271    -0.183581847880     1.007825032230
         H            1.164682302181    -0.745065708271     1.344108152120     1.007825032230

  Basis Set: AUG-CC-PVTZ
    Blend: AUG-CC-PVTZ
  Basis Set: (AUG-CC-PVTZ AUX)
    Blend: AUG-CC-PVTZ-JKFIT
	 Reference Energy          =    -211.6052375338387606 [Eh]
	 Singles Energy            =      -0.0000000000000000 [Eh]
	 Same-Spin Energy          =      -0.2176153244560791 [Eh]
	 Opposite-Spin Energy      =      -0.7820299687324834 [Eh]
	 Correlation Energy        =      -0.9996452931885625 [Eh]
	 Total Energy              =    -212.6048828270273248 [Eh]

	 ================> DF-SCS-MP2 Energies <==================
	-----------------------------------------------------------
	 SCS Same-Spin Scale       =       0.3333333333333333 [-]
	 SCS Opposite-Spin Scale   =       1.2000000000000000 [-]
	 SCS Same-Spin Energy      =      -0.0725384414853597 [Eh]
	 SCS Opposite-Spin Energy  =      -0.9384359624789801 [Eh]
	 SCS Correlation Energy    =      -1.0109744039643398 [Eh]
	 SCS Total Energy          =    -212.6162119378030866 [Eh]
	-----------------------------------------------------------

  Dipole Moment: [D]
     X:    -3.1947      Y:    -0.0040      Z:     0.0297     Total:     3.1948

*** Psi4 exiting successfully. Buy a developer a beer!
