                               Psi4 1.3.2 release

  ==> Input File <==

--------------------------------------------------------------------------
#psi4
#
memory 32 gb

molecule  {
1 1
  N       -1.2324810    -0.0000240    -0.0000010
  C       -0.3910672     1.1510558     0.1362139
  C       -0.3322730    -1.2314350    -0.1457220
  C        1.0439290     0.7199610    -0.2571670
  C        1.0439580    -0.7199190     0.2571660
  H       -1.8512360    -0.0930200     0.8140460
  H       -1.8512350     0.0929480    -0.8140510
  H       -0.3668390     1.5267420     1.1955240
  H       -0.7357950     2.0357900    -0.4702450
  H       -0.3667790    -1.5267620    -1.1955210
  H       -0.7357130    -2.0358170     0.4702510
  H        1.8333540     1.3329410     0.1830080
  H        1.1642110     0.7451780    -1.3446810
  H        1.8334070    -1.3328680    -0.1830100
  H        1.1642440    -0.7451310     1.3446800
units angstrom
no_reorient  #important for SAPT in psi4, default
symmetry c1  #important for SAPT in psi4, default
}

set PROPERTIES_ORIGIN ["COM"]
properties('MP2/aug-cc-pvtz', properties = ['dipole'])
--------------------------------------------------------------------------

    Molecular point group: c1
  Charge       = 1
  Multiplicity = 1
  Basis Set: AUG-CC-PVTZ
    Blend: AUG-CC-PVTZ
  Basis Set: (AUG-CC-PVTZ AUX)
    Blend: AUG-CC-PVTZ-JKFIT

    Orbital Energies [Eh]
    ---------------------

    Doubly Occupied:

       1A    -15.876992     2A    -11.470426     3A    -11.463197
       4A    -11.403516     5A    -11.402716     6A     -1.521821
       7A     -1.255681     8A     -1.192330     9A     -1.038589
      10A     -1.002114    11A     -0.966095    12A     -0.917144
      13A     -0.831478    14A     -0.787797    15A     -0.769763
      16A     -0.741684    17A     -0.690178    18A     -0.683719
      19A     -0.659212    20A     -0.655674

  @DF-RHF Final Energy:  -211.59722428983463

   => Energetics <=

    Nuclear Repulsion Energy =            200.2912385459935649
    One-Electron Energy =                -673.1166782021202835
    Two-Electron Energy =                 261.2282153662920905
    Total Energy =                       -211.5972242898346281
  Basis Set: (AUG-CC-PVTZ AUX)
    Blend: AUG-CC-PVTZ-RI
    Molecular point group: c1

    Geometry (in Angstrom), charge = 1, multiplicity = 1:

       Center              X                  Y                   Z               Mass
    ------------   -----------------  -----------------  -----------------  -----------------
         N           -1.221442684070     0.013355075301     0.001582242210    14.003074004430
         C           -0.380028884070     1.164434875301     0.137797142210    12.000000000000
         C           -0.321234684070    -1.218055924699    -0.144138757790    12.000000000000
         C            1.054967315930     0.733340075301    -0.255583757790    12.000000000000
         C            1.054996315930    -0.706539924699     0.258749242210    12.000000000000
         H           -1.840197684070    -0.079640924699     0.815629242210     1.007825032230
         H           -1.840196684070     0.106327075301    -0.812467757790     1.007825032230
         H           -0.355800684070     1.540121075301     1.197107242210     1.007825032230
         H           -0.724756684070     2.049169075301    -0.468661757790     1.007825032230
         H           -0.355740684070    -1.513382924699    -1.193937757790     1.007825032230
         H           -0.724674684070    -2.022437924699     0.471834242210     1.007825032230
         H            1.844392315930     1.346320075301     0.184591242210     1.007825032230
         H            1.175249315930     0.758557075301    -1.343097757790     1.007825032230
         H            1.844445315930    -1.319488924699    -0.181426757790     1.007825032230
         H            1.175282315930    -0.731751924699     1.346263242210     1.007825032230

  Basis Set: AUG-CC-PVTZ
    Blend: AUG-CC-PVTZ
  Basis Set: (AUG-CC-PVTZ AUX)
    Blend: AUG-CC-PVTZ-JKFIT
	 Reference Energy          =    -211.5972242898346281 [Eh]
	 Singles Energy            =      -0.0000000000000000 [Eh]
	 Same-Spin Energy          =      -0.2182394892233684 [Eh]
	 Opposite-Spin Energy      =      -0.7822379269310308 [Eh]
	 Correlation Energy        =      -1.0004774161543992 [Eh]
	 Total Energy              =    -212.5977017059890386 [Eh]

	 ================> DF-SCS-MP2 Energies <==================
	-----------------------------------------------------------
	 SCS Same-Spin Scale       =       0.3333333333333333 [-]
	 SCS Opposite-Spin Scale   =       1.2000000000000000 [-]
	 SCS Same-Spin Energy      =      -0.0727464964077895 [Eh]
	 SCS Opposite-Spin Energy  =      -0.9386855123172368 [Eh]
	 SCS Correlation Energy    =      -1.0114320087250264 [Eh]
	 SCS Total Energy          =    -212.6086562985596515 [Eh]
	-----------------------------------------------------------

  Dipole Moment: [D]
     X:    -3.3274      Y:    -0.1039      Z:    -0.0147     Total:     3.3290

*** Psi4 exiting successfully. Buy a developer a beer!
