                               Psi4 1.3.2 release

  ==> Input File <==

--------------------------------------------------------------------------
#psi4
#
memory 32 gb

molecule  {
1 1
  N       -1.2324810    -0.0000240    -0.0000010
  C       -0.3541007     1.2468345     0.1475480
  C       -0.3322730    -1.2314350    -0.1457220
  C        1.0439290     0.7199610    -0.2571670
  C        1.0439580    -0.7199190     0.2571660
  H       -1.8512360    -0.0930200     0.8140460
  H       -1.8512350     0.0929480    -0.8140510
  H       -0.3668390     1.5267420     1.1955240
  H       -0.7357950     2.0357900    -0.4702450
  H       -0.3667790    -1.5267620    -1.1955210
  H       -0.7357130    -2.0358170     0.4702510
  H        1.8333540     1.3329410     0.1830080
  H        1.1642110     0.7451780    -1.3446810
  H        1.8334070    -1.3328680    -0.1830100
  H        1.1642440    -0.7451310     1.3446800
units angstrom
no_reorient  #important for SAPT in psi4, default
symmetry c1  #important for SAPT in psi4, default
}

set PROPERTIES_ORIGIN ["COM"]
properties('MP2/aug-cc-pvtz', properties = ['dipole'])
--------------------------------------------------------------------------

    Molecular point group: c1
  Charge       = 1
  Multiplicity = 1
  Basis Set: AUG-CC-PVTZ
    Blend: AUG-CC-PVTZ
  Basis Set: (AUG-CC-PVTZ AUX)
    Blend: AUG-CC-PVTZ-JKFIT

    Orbital Energies [Eh]
    ---------------------

    Doubly Occupied:

       1A    -15.869442     2A    -11.467443     3A    -11.466295
       4A    -11.404839     5A    -11.403339     6A     -1.495643
       7A     -1.252746     8A     -1.192243     9A     -1.040070
      10A     -0.996331    11A     -0.954868    12A     -0.905903
      13A     -0.826245    14A     -0.795668    15A     -0.761427
      16A     -0.737271    17A     -0.702605    18A     -0.682567
      19A     -0.671052    20A     -0.659574

  @DF-RHF Final Energy:  -211.60541150879141

   => Energetics <=

    Nuclear Repulsion Energy =            198.8615569675432937
    One-Electron Energy =                -670.3627989981425799
    Two-Electron Energy =                 259.8958305218079090
    Total Energy =                       -211.6054115087914056
  Basis Set: (AUG-CC-PVTZ AUX)
    Blend: AUG-CC-PVTZ-RI
    Molecular point group: c1

    Geometry (in Angstrom), charge = 1, multiplicity = 1:

       Center              X                  Y                   Z               Mass
    ------------   -----------------  -----------------  -----------------  -----------------
         N           -1.227596816283    -0.002590031296    -0.000304643211    14.003074004430
         C           -0.349216516283     1.244268468704     0.147244356789    12.000000000000
         C           -0.327388816283    -1.234001031296    -0.146025643211    12.000000000000
         C            1.048813183717     0.717394968704    -0.257470643211    12.000000000000
         C            1.048842183717    -0.722485031296     0.256862356789    12.000000000000
         H           -1.846351816283    -0.095586031296     0.813742356789     1.007825032230
         H           -1.846350816283     0.090381968704    -0.814354643211     1.007825032230
         H           -0.361954816283     1.524175968704     1.195220356789     1.007825032230
         H           -0.730910816283     2.033223968704    -0.470548643211     1.007825032230
         H           -0.361894816283    -1.529328031296    -1.195824643211     1.007825032230
         H           -0.730828816283    -2.038383031296     0.469947356789     1.007825032230
         H            1.838238183717     1.330374968704     0.182704356789     1.007825032230
         H            1.169095183717     0.742611968704    -1.344984643211     1.007825032230
         H            1.838291183717    -1.335434031296    -0.183313643211     1.007825032230
         H            1.169128183717    -0.747697031296     1.344376356789     1.007825032230

  Basis Set: AUG-CC-PVTZ
    Blend: AUG-CC-PVTZ
  Basis Set: (AUG-CC-PVTZ AUX)
    Blend: AUG-CC-PVTZ-JKFIT
	 Reference Energy          =    -211.6054115087914056 [Eh]
	 Singles Energy            =      -0.0000000000000000 [Eh]
	 Same-Spin Energy          =      -0.2173597839590273 [Eh]
	 Opposite-Spin Energy      =      -0.7817905138446141 [Eh]
	 Correlation Energy        =      -0.9991502978036414 [Eh]
	 Total Energy              =    -212.6045618065950578 [Eh]

	 ================> DF-SCS-MP2 Energies <==================
	-----------------------------------------------------------
	 SCS Same-Spin Scale       =       0.3333333333333333 [-]
	 SCS Opposite-Spin Scale   =       1.2000000000000000 [-]
	 SCS Same-Spin Energy      =      -0.0724532613196758 [Eh]
	 SCS Opposite-Spin Energy  =      -0.9381486166135369 [Eh]
	 SCS Correlation Energy    =      -1.0106018779332127 [Eh]
	 SCS Total Energy          =    -212.6160133867246316 [Eh]
	-----------------------------------------------------------

  Dipole Moment: [D]
     X:    -3.2460      Y:    -0.0102      Z:    -0.0032     Total:     3.2460

*** Psi4 exiting successfully. Buy a developer a beer!
