                               Psi4 1.3.2 release

  ==> Input File <==

--------------------------------------------------------------------------
#psi4
#
memory 32 gb

molecule  {
1 1
  N       -1.2324810    -0.0000240    -0.0000010
  C       -0.2148317     1.3921514     0.1647443
  C       -0.3322730    -1.2314350    -0.1457220
  C        1.0439290     0.7199610    -0.2571670
  C        1.0439580    -0.7199190     0.2571660
  H       -1.8512360    -0.0930200     0.8140460
  H       -1.8512350     0.0929480    -0.8140510
  H       -0.3668390     1.5267420     1.1955240
  H       -0.7357950     2.0357900    -0.4702450
  H       -0.3667790    -1.5267620    -1.1955210
  H       -0.7357130    -2.0358170     0.4702510
  H        1.8333540     1.3329410     0.1830080
  H        1.1642110     0.7451780    -1.3446810
  H        1.8334070    -1.3328680    -0.1830100
  H        1.1642440    -0.7451310     1.3446800
units angstrom
no_reorient  #important for SAPT in psi4, default
symmetry c1  #important for SAPT in psi4, default
}

set PROPERTIES_ORIGIN ["COM"]
properties('MP2/aug-cc-pvtz', properties = ['dipole'])
--------------------------------------------------------------------------

    Molecular point group: c1
  Charge       = 1
  Multiplicity = 1
  Basis Set: AUG-CC-PVTZ
    Blend: AUG-CC-PVTZ
  Basis Set: (AUG-CC-PVTZ AUX)
    Blend: AUG-CC-PVTZ-JKFIT

    Orbital Energies [Eh]
    ---------------------

    Doubly Occupied:

       1A    -15.843364     2A    -11.484414     3A    -11.459188
       4A    -11.408675     5A    -11.405607     6A     -1.455041
       7A     -1.259177     8A     -1.193301     9A     -1.043122
      10A     -0.994227    11A     -0.932805    12A     -0.882520
      13A     -0.835071    14A     -0.805934    15A     -0.752735
      16A     -0.717868    17A     -0.700120    18A     -0.694486
      19A     -0.677442    20A     -0.662560

  @DF-RHF Final Energy:  -211.58330280012362

   => Energetics <=

    Nuclear Repulsion Energy =            197.0619543997829624
    One-Electron Energy =                -666.8751981776241564
    Two-Electron Energy =                 258.2299409777175470
    Total Energy =                       -211.5833028001236471
  Basis Set: (AUG-CC-PVTZ AUX)
    Blend: AUG-CC-PVTZ-RI
    Molecular point group: c1

    Geometry (in Angstrom), charge = 1, multiplicity = 1:

       Center              X                  Y                   Z               Mass
    ------------   -----------------  -----------------  -----------------  -----------------
         N           -1.250782128368    -0.026782189476    -0.003167459647    14.003074004430
         C           -0.233132828368     1.365393210524     0.161577840353    12.000000000000
         C           -0.350574128368    -1.258193189476    -0.148888459647    12.000000000000
         C            1.025627871632     0.693202810524    -0.260333459647    12.000000000000
         C            1.025656871632    -0.746677189476     0.253999540353    12.000000000000
         H           -1.869537128368    -0.119778189476     0.810879540353     1.007825032230
         H           -1.869536128368     0.066189810524    -0.817217459647     1.007825032230
         H           -0.385140128368     1.499983810524     1.192357540353     1.007825032230
         H           -0.754096128368     2.009031810524    -0.473411459647     1.007825032230
         H           -0.385080128368    -1.553520189476    -1.198687459647     1.007825032230
         H           -0.754014128368    -2.062575189476     0.467084540353     1.007825032230
         H            1.815052871632     1.306182810524     0.179841540353     1.007825032230
         H            1.145909871632     0.718419810524    -1.347847459647     1.007825032230
         H            1.815105871632    -1.359626189476    -0.186176459647     1.007825032230
         H            1.145942871632    -0.771889189476     1.341513540353     1.007825032230

  Basis Set: AUG-CC-PVTZ
    Blend: AUG-CC-PVTZ
  Basis Set: (AUG-CC-PVTZ AUX)
    Blend: AUG-CC-PVTZ-JKFIT
	 Reference Energy          =    -211.5833028001236187 [Eh]
	 Singles Energy            =      -0.0000000000000000 [Eh]
	 Same-Spin Energy          =      -0.2174800908001249 [Eh]
	 Opposite-Spin Energy      =      -0.7831054635005785 [Eh]
	 Correlation Energy        =      -1.0005855543007034 [Eh]
	 Total Energy              =    -212.5838883544243174 [Eh]

	 ================> DF-SCS-MP2 Energies <==================
	-----------------------------------------------------------
	 SCS Same-Spin Scale       =       0.3333333333333333 [-]
	 SCS Opposite-Spin Scale   =       1.2000000000000000 [-]
	 SCS Same-Spin Energy      =      -0.0724933636000416 [Eh]
	 SCS Opposite-Spin Energy  =      -0.9397265562006942 [Eh]
	 SCS Correlation Energy    =      -1.0122199198007358 [Eh]
	 SCS Total Energy          =    -212.5955227199243609 [Eh]
	-----------------------------------------------------------

  Dipole Moment: [D]
     X:    -2.9564      Y:     0.2943      Z:     0.0372     Total:     2.9712

*** Psi4 exiting successfully. Buy a developer a beer!
