                               Psi4 1.3.2 release

  ==> Input File <==

--------------------------------------------------------------------------
#psi4
#
memory 32 gb

molecule  {
1 1
  N       -1.1898141    -0.0281922    -0.0157090
  C       -0.3323220     1.2314210     0.1457240
  C       -0.3322730    -1.2314350    -0.1457220
  C        1.0439290     0.7199610    -0.2571670
  C        1.0439580    -0.7199190     0.2571660
  H       -1.8512360    -0.0930200     0.8140460
  H       -1.8512350     0.0929480    -0.8140510
  H       -0.3668390     1.5267420     1.1955240
  H       -0.7357950     2.0357900    -0.4702450
  H       -0.3667790    -1.5267620    -1.1955210
  H       -0.7357130    -2.0358170     0.4702510
  H        1.8333540     1.3329410     0.1830080
  H        1.1642110     0.7451780    -1.3446810
  H        1.8334070    -1.3328680    -0.1830100
  H        1.1642440    -0.7451310     1.3446800
units angstrom
no_reorient  #important for SAPT in psi4, default
symmetry c1  #important for SAPT in psi4, default
}

set PROPERTIES_ORIGIN ["COM"]
properties('MP2/aug-cc-pvtz', properties = ['dipole'])
--------------------------------------------------------------------------

    Molecular point group: c1
  Charge       = 1
  Multiplicity = 1
  Basis Set: AUG-CC-PVTZ
    Blend: AUG-CC-PVTZ
  Basis Set: (AUG-CC-PVTZ AUX)
    Blend: AUG-CC-PVTZ-JKFIT

    Orbital Energies [Eh]
    ---------------------

    Doubly Occupied:

       1A    -15.874109     2A    -11.467934     3A    -11.462314
       4A    -11.402861     5A    -11.402097     6A     -1.501302
       7A     -1.252420     8A     -1.197407     9A     -1.035677
      10A     -0.998022    11A     -0.947028    12A     -0.912747
      13A     -0.824911    14A     -0.793583    15A     -0.766007
      16A     -0.735127    17A     -0.696449    18A     -0.685205
      19A     -0.671516    20A     -0.658707

  @DF-RHF Final Energy:  -211.60103679210317

   => Energetics <=

    Nuclear Repulsion Energy =            199.8901034959237961
    One-Electron Energy =                -672.4114318806045958
    Two-Electron Energy =                 260.9202915925776551
    Total Energy =                       -211.6010367921031730
  Basis Set: (AUG-CC-PVTZ AUX)
    Blend: AUG-CC-PVTZ-RI
    Molecular point group: c1

    Geometry (in Angstrom), charge = 1, multiplicity = 1:

       Center              X                  Y                   Z               Mass
    ------------   -----------------  -----------------  -----------------  -----------------
         N           -1.196844405456    -0.022720041174    -0.012657428962    14.003074004430
         C           -0.339352305456     1.236893158826     0.148775571038    12.000000000000
         C           -0.339303305456    -1.225962841174    -0.142670428962    12.000000000000
         C            1.036898694544     0.725433158826    -0.254115428962    12.000000000000
         C            1.036927694544    -0.714446841174     0.260217571038    12.000000000000
         H           -1.858266305456    -0.087547841174     0.817097571038     1.007825032230
         H           -1.858265305456     0.098420158826    -0.810999428962     1.007825032230
         H           -0.373869305456     1.532214158826     1.198575571038     1.007825032230
         H           -0.742825305456     2.041262158826    -0.467193428962     1.007825032230
         H           -0.373809305456    -1.521289841174    -1.192469428962     1.007825032230
         H           -0.742743305456    -2.030344841174     0.473302571038     1.007825032230
         H            1.826323694544     1.338413158826     0.186059571038     1.007825032230
         H            1.157180694544     0.750650158826    -1.341629428962     1.007825032230
         H            1.826376694544    -1.327395841174    -0.179958428962     1.007825032230
         H            1.157213694544    -0.739658841174     1.347731571038     1.007825032230

  Basis Set: AUG-CC-PVTZ
    Blend: AUG-CC-PVTZ
  Basis Set: (AUG-CC-PVTZ AUX)
    Blend: AUG-CC-PVTZ-JKFIT
	 Reference Energy          =    -211.6010367921031730 [Eh]
	 Singles Energy            =      -0.0000000000000000 [Eh]
	 Same-Spin Energy          =      -0.2182523653906614 [Eh]
	 Opposite-Spin Energy      =      -0.7828605815388876 [Eh]
	 Correlation Energy        =      -1.0011129469295490 [Eh]
	 Total Energy              =    -212.6021497390327113 [Eh]

	 ================> DF-SCS-MP2 Energies <==================
	-----------------------------------------------------------
	 SCS Same-Spin Scale       =       0.3333333333333333 [-]
	 SCS Opposite-Spin Scale   =       1.2000000000000000 [-]
	 SCS Same-Spin Energy      =      -0.0727507884635538 [Eh]
	 SCS Opposite-Spin Energy  =      -0.9394326978466651 [Eh]
	 SCS Correlation Energy    =      -1.0121834863102188 [Eh]
	 SCS Total Energy          =    -212.6132202784133938 [Eh]
	-----------------------------------------------------------

  Dipole Moment: [D]
     X:    -3.3588      Y:     0.0744      Z:     0.0251     Total:     3.3597

*** Psi4 exiting successfully. Buy a developer a beer!
