                               Psi4 1.4a3.dev225

  ==> Input File <==

--------------------------------------------------------------------------
#psi4
#
memory 32 gb

molecule  {
1 1
  N       -1.2324810    -0.0000240    -0.0000010
  C       -0.3205730     1.2474940     0.1476260
  C       -0.3322730    -1.2314350    -0.1457220
  C        1.0439290     0.7199610    -0.2571670
  C        1.0439580    -0.7199190     0.2571660
  H       -1.8512360    -0.0930200     0.8140460
  H       -1.8512350     0.0929480    -0.8140510
  H       -0.3668390     1.5267420     1.1955240
  H       -0.7357950     2.0357900    -0.4702450
  H       -0.3667790    -1.5267620    -1.1955210
  H       -0.7357130    -2.0358170     0.4702510
  H        1.8333540     1.3329410     0.1830080
  H        1.1642110     0.7451780    -1.3446810
  H        1.8334070    -1.3328680    -0.1830100
  H        1.1642440    -0.7451310     1.3446800
units angstrom
no_reorient  #important for SAPT in psi4, default
symmetry c1  #important for SAPT in psi4, default
}

set PROPERTIES_ORIGIN ["COM"]
properties('MP2/aug-cc-pvtz', properties = ['dipole'])
--------------------------------------------------------------------------

    Molecular point group: c1
  Charge       = 1
  Multiplicity = 1
  Basis Set: AUG-CC-PVTZ
    Blend: AUG-CC-PVTZ
  Basis Set: (AUG-CC-PVTZ AUX)
    Blend: AUG-CC-PVTZ-JKFIT

    Orbital Energies [Eh]
    ---------------------

    Doubly Occupied:

       1A    -15.867215     2A    -11.468471     3A    -11.466586
       4A    -11.404071     5A    -11.403452     6A     -1.491466
       7A     -1.255907     8A     -1.192767     9A     -1.039310
      10A     -0.996613    11A     -0.952232    12A     -0.903654
      13A     -0.826866    14A     -0.795435    15A     -0.755997
      16A     -0.738745    17A     -0.702168    18A     -0.686713
      19A     -0.673781    20A     -0.659678

  @DF-RHF Final Energy:  -211.60554719119060

   => Energetics <=

    Nuclear Repulsion Energy =            198.9585255641036099
    One-Electron Energy =                -670.5658904408514900
    Two-Electron Energy =                 260.0018176855572847
    Total Energy =                       -211.6055471911905670
  Basis Set: (AUG-CC-PVTZ AUX)
    Blend: AUG-CC-PVTZ-RI
    Molecular point group: c1

    Geometry (in Angstrom), charge = 1, multiplicity = 1:

       Center              X                  Y                   Z               Mass
    ------------   -----------------  -----------------  -----------------  -----------------
         N           -1.233178461789    -0.002699823951    -0.000317628544    14.003074004430
         C           -0.321270461789     1.244818176049     0.147309371456    12.000000000000
         C           -0.332970461789    -1.234110823951    -0.146038628544    12.000000000000
         C            1.043231538211     0.717285176049    -0.257483628544    12.000000000000
         C            1.043260538211    -0.722594823951     0.256849371456    12.000000000000
         H           -1.851933461789    -0.095695823951     0.813729371456     1.007825032230
         H           -1.851932461789     0.090272176049    -0.814367628544     1.007825032230
         H           -0.367536461789     1.524066176049     1.195207371456     1.007825032230
         H           -0.736492461789     2.033114176049    -0.470561628544     1.007825032230
         H           -0.367476461789    -1.529437823951    -1.195837628544     1.007825032230
         H           -0.736410461789    -2.038492823951     0.469934371456     1.007825032230
         H            1.832656538211     1.330265176049     0.182691371456     1.007825032230
         H            1.163513538211     0.742502176049    -1.344997628544     1.007825032230
         H            1.832709538211    -1.335543823951    -0.183326628544     1.007825032230
         H            1.163546538211    -0.747806823951     1.344363371456     1.007825032230

  Basis Set: AUG-CC-PVTZ
    Blend: AUG-CC-PVTZ
  Basis Set: (AUG-CC-PVTZ AUX)
    Blend: AUG-CC-PVTZ-JKFIT
	 Reference Energy          =    -211.6055471911905954 [Eh]
	 Singles Energy            =      -0.0000000000000000 [Eh]
	 Same-Spin Energy          =      -0.2174728670993946 [Eh]
	 Opposite-Spin Energy      =      -0.7819317023028041 [Eh]
	 Correlation Energy        =      -0.9994045694021987 [Eh]
	 Total Energy              =    -212.6049517605927974 [Eh]

	 ================> DF-SCS-MP2 Energies <==================
	-----------------------------------------------------------
	 SCS Same-Spin Scale       =       0.3333333333333333 [-]
	 SCS Opposite-Spin Scale   =       1.2000000000000000 [-]
	 SCS Same-Spin Energy      =      -0.0724909556997982 [Eh]
	 SCS Opposite-Spin Energy  =      -0.9383180427633648 [Eh]
	 SCS Correlation Energy    =      -1.0108089984631630 [Eh]
	 SCS Total Energy          =    -212.6163561896537715 [Eh]
	-----------------------------------------------------------

  Dipole Moment: [D]
     X:    -3.2254      Y:     0.0247      Z:     0.0033     Total:     3.2255

*** Psi4 exiting successfully. Buy a developer a beer!
