                               Psi4 1.3.2 release

  ==> Input File <==

--------------------------------------------------------------------------
#psi4
#
memory 32 gb

molecule  {
1 1
  N       -1.2324810    -0.0000240    -0.0000010
  C       -0.3323220     1.2314210     0.1457240
  C       -0.3322730    -1.2314350    -0.1457220
  C        1.0439290     0.7199610    -0.2571670
  C        1.0439580    -0.7199190     0.2571660
  H       -1.8222645    -0.0954134     0.8350049
  H       -1.8512350     0.0929480    -0.8140510
  H       -0.3668390     1.5267420     1.1955240
  H       -0.7357950     2.0357900    -0.4702450
  H       -0.3667790    -1.5267620    -1.1955210
  H       -0.7357130    -2.0358170     0.4702510
  H        1.8333540     1.3329410     0.1830080
  H        1.1642110     0.7451780    -1.3446810
  H        1.8334070    -1.3328680    -0.1830100
  H        1.1642440    -0.7451310     1.3446800
units angstrom
no_reorient  #important for SAPT in psi4, default
symmetry c1  #important for SAPT in psi4, default
}

set PROPERTIES_ORIGIN ["COM"]
properties('MP2/aug-cc-pvtz', properties = ['dipole'])
--------------------------------------------------------------------------

    Molecular point group: c1
  Charge       = 1
  Multiplicity = 1
  Basis Set: AUG-CC-PVTZ
    Blend: AUG-CC-PVTZ
  Basis Set: (AUG-CC-PVTZ AUX)
    Blend: AUG-CC-PVTZ-JKFIT

    Orbital Energies [Eh]
    ---------------------

    Doubly Occupied:

       1A    -15.869265     2A    -11.467218     3A    -11.467200
       4A    -11.403888     5A    -11.403264     6A     -1.496280
       7A     -1.255299     8A     -1.192806     9A     -1.037989
      10A     -0.997917    11A     -0.957324    12A     -0.904858
      13A     -0.827651    14A     -0.793758    15A     -0.758089
      16A     -0.739410    17A     -0.700773    18A     -0.685882
      19A     -0.672129    20A     -0.659312

  @DF-RHF Final Energy:  -211.60568872054560

   => Energetics <=

    Nuclear Repulsion Energy =            199.2091127944190987
    One-Electron Energy =                -671.0489825093573018
    Two-Electron Energy =                 260.2341809943926592
    Total Energy =                       -211.6056887205455723
  Basis Set: (AUG-CC-PVTZ AUX)
    Blend: AUG-CC-PVTZ-RI
    Molecular point group: c1

    Geometry (in Angstrom), charge = 1, multiplicity = 1:

       Center              X                  Y                   Z               Mass
    ------------   -----------------  -----------------  -----------------  -----------------
         N           -1.231627577450     0.000009451028    -0.000294028867    14.003074004430
         C           -0.331468577450     1.231454451028     0.145430971133    12.000000000000
         C           -0.331419577450    -1.231401548972    -0.146015028867    12.000000000000
         C            1.044782422550     0.719994451028    -0.257460028867    12.000000000000
         C            1.044811422550    -0.719885548972     0.256872971133    12.000000000000
         H           -1.821411077450    -0.095379948972     0.834711871133     1.007825032230
         H           -1.850381577450     0.092981451028    -0.814344028867     1.007825032230
         H           -0.365985577450     1.526775451028     1.195230971133     1.007825032230
         H           -0.734941577450     2.035823451028    -0.470538028867     1.007825032230
         H           -0.365925577450    -1.526728548972    -1.195814028867     1.007825032230
         H           -0.734859577450    -2.035783548972     0.469957971133     1.007825032230
         H            1.834207422550     1.332974451028     0.182714971133     1.007825032230
         H            1.165064422550     0.745211451028    -1.344974028867     1.007825032230
         H            1.834260422550    -1.332834548972    -0.183303028867     1.007825032230
         H            1.165097422550    -0.745097548972     1.344386971133     1.007825032230

  Basis Set: AUG-CC-PVTZ
    Blend: AUG-CC-PVTZ
  Basis Set: (AUG-CC-PVTZ AUX)
    Blend: AUG-CC-PVTZ-JKFIT
	 Reference Energy          =    -211.6056887205456007 [Eh]
	 Singles Energy            =      -0.0000000000000000 [Eh]
	 Same-Spin Energy          =      -0.2175735823563084 [Eh]
	 Opposite-Spin Energy      =      -0.7819566922795333 [Eh]
	 Correlation Energy        =      -0.9995302746358418 [Eh]
	 Total Energy              =    -212.6052189951814455 [Eh]

	 ================> DF-SCS-MP2 Energies <==================
	-----------------------------------------------------------
	 SCS Same-Spin Scale       =       0.3333333333333333 [-]
	 SCS Opposite-Spin Scale   =       1.2000000000000000 [-]
	 SCS Same-Spin Energy      =      -0.0725245274521028 [Eh]
	 SCS Opposite-Spin Energy  =      -0.9383480307354399 [Eh]
	 SCS Correlation Energy    =      -1.0108725581875428 [Eh]
	 SCS Total Energy          =    -212.6165612787331440 [Eh]
	-----------------------------------------------------------

  Dipole Moment: [D]
     X:    -3.2213      Y:    -0.0022      Z:     0.0157     Total:     3.2214

*** Psi4 exiting successfully. Buy a developer a beer!
