                               Psi4 1.3.2 release

  ==> Input File <==

--------------------------------------------------------------------------
#psi4
#
memory 32 gb

molecule  {
1 1
  N       -1.2324810    -0.0000240    -0.0000010
  C       -0.3323220     1.2314210     0.1457240
  C       -0.3322730    -1.2314350    -0.1457220
  C        1.0439290     0.7199610    -0.2571670
  C        1.0439580    -0.7199190     0.2571660
  H       -1.9068831    -0.0878963     0.7691796
  H       -1.8512350     0.0929480    -0.8140510
  H       -0.3668390     1.5267420     1.1955240
  H       -0.7357950     2.0357900    -0.4702450
  H       -0.3667790    -1.5267620    -1.1955210
  H       -0.7357130    -2.0358170     0.4702510
  H        1.8333540     1.3329410     0.1830080
  H        1.1642110     0.7451780    -1.3446810
  H        1.8334070    -1.3328680    -0.1830100
  H        1.1642440    -0.7451310     1.3446800
units angstrom
no_reorient  #important for SAPT in psi4, default
symmetry c1  #important for SAPT in psi4, default
}

set PROPERTIES_ORIGIN ["COM"]
properties('MP2/aug-cc-pvtz', properties = ['dipole'])
--------------------------------------------------------------------------

    Molecular point group: c1
  Charge       = 1
  Multiplicity = 1
  Basis Set: AUG-CC-PVTZ
    Blend: AUG-CC-PVTZ
  Basis Set: (AUG-CC-PVTZ AUX)
    Blend: AUG-CC-PVTZ-JKFIT

    Orbital Energies [Eh]
    ---------------------

    Doubly Occupied:

       1A    -15.869020     2A    -11.467478     3A    -11.467461
       4A    -11.403888     5A    -11.403248     6A     -1.495834
       7A     -1.256666     8A     -1.192447     9A     -1.041166
      10A     -0.996145    11A     -0.948487    12A     -0.908386
      13A     -0.825984    14A     -0.793285    15A     -0.757704
      16A     -0.742992    17A     -0.699646    18A     -0.685827
      19A     -0.672047    20A     -0.658995

  @DF-RHF Final Energy:  -211.60524543687387

   => Energetics <=

    Nuclear Repulsion Energy =            199.1101163017152942
    One-Electron Energy =                -670.8573113426656391
    Two-Electron Energy =                 260.1419496040765011
    Total Energy =                       -211.6052454368738722
  Basis Set: (AUG-CC-PVTZ AUX)
    Blend: AUG-CC-PVTZ-RI
    Molecular point group: c1

    Geometry (in Angstrom), charge = 1, multiplicity = 1:

       Center              X                  Y                   Z               Mass
    ------------   -----------------  -----------------  -----------------  -----------------
         N           -1.230444459020    -0.000095651391     0.000626325825    14.003074004430
         C           -0.330285459020     1.231349348609     0.146351325825    12.000000000000
         C           -0.330236459020    -1.231506651391    -0.145094674175    12.000000000000
         C            1.045965540980     0.719889348609    -0.256539674175    12.000000000000
         C            1.045994540980    -0.719990651391     0.257793325825    12.000000000000
         H           -1.904846559020    -0.087967951391     0.769806925825     1.007825032230
         H           -1.849198459020     0.092876348609    -0.813423674175     1.007825032230
         H           -0.364802459020     1.526670348609     1.196151325825     1.007825032230
         H           -0.733758459020     2.035718348609    -0.469617674175     1.007825032230
         H           -0.364742459020    -1.526833651391    -1.194893674175     1.007825032230
         H           -0.733676459020    -2.035888651391     0.470878325825     1.007825032230
         H            1.835390540980     1.332869348609     0.183635325825     1.007825032230
         H            1.166247540980     0.745106348609    -1.344053674175     1.007825032230
         H            1.835443540980    -1.332939651391    -0.182382674175     1.007825032230
         H            1.166280540980    -0.745202651391     1.345307325825     1.007825032230

  Basis Set: AUG-CC-PVTZ
    Blend: AUG-CC-PVTZ
  Basis Set: (AUG-CC-PVTZ AUX)
    Blend: AUG-CC-PVTZ-JKFIT
	 Reference Energy          =    -211.6052454368738722 [Eh]
	 Singles Energy            =      -0.0000000000000000 [Eh]
	 Same-Spin Energy          =      -0.2175262942433928 [Eh]
	 Opposite-Spin Energy      =      -0.7818407926685539 [Eh]
	 Correlation Energy        =      -0.9993670869119466 [Eh]
	 Total Energy              =    -212.6046125237858178 [Eh]

	 ================> DF-SCS-MP2 Energies <==================
	-----------------------------------------------------------
	 SCS Same-Spin Scale       =       0.3333333333333333 [-]
	 SCS Opposite-Spin Scale   =       1.2000000000000000 [-]
	 SCS Same-Spin Energy      =      -0.0725087647477976 [Eh]
	 SCS Opposite-Spin Energy  =      -0.9382089512022647 [Eh]
	 SCS Correlation Energy    =      -1.0107177159500622 [Eh]
	 SCS Total Energy          =    -212.6159631528239231 [Eh]
	-----------------------------------------------------------

  Dipole Moment: [D]
     X:    -3.2958      Y:     0.0047      Z:    -0.0361     Total:     3.2960

*** Psi4 exiting successfully. Buy a developer a beer!
