                               Psi4 1.3.2 release

  ==> Input File <==

--------------------------------------------------------------------------
#psi4
#
memory 32 gb

molecule  {
1 1
  N       -1.2324810    -0.0000240    -0.0000010
  C       -0.3323220     1.2314210     0.1457240
  C       -0.3322730    -1.2314350    -0.1457220
  C        1.0439290     0.7199610    -0.2571670
  C        1.0439580    -0.7199190     0.2571660
  H       -1.9115005    -0.1020775     0.8933312
  H       -1.8512350     0.0929480    -0.8140510
  H       -0.3668390     1.5267420     1.1955240
  H       -0.7357950     2.0357900    -0.4702450
  H       -0.3667790    -1.5267620    -1.1955210
  H       -0.7357130    -2.0358170     0.4702510
  H        1.8333540     1.3329410     0.1830080
  H        1.1642110     0.7451780    -1.3446810
  H        1.8334070    -1.3328680    -0.1830100
  H        1.1642440    -0.7451310     1.3446800
units angstrom
no_reorient  #important for SAPT in psi4, default
symmetry c1  #important for SAPT in psi4, default
}

set PROPERTIES_ORIGIN ["COM"]
properties('MP2/aug-cc-pvtz', properties = ['dipole'])
--------------------------------------------------------------------------

    Molecular point group: c1
  Charge       = 1
  Multiplicity = 1
  Basis Set: AUG-CC-PVTZ
    Blend: AUG-CC-PVTZ
  Basis Set: (AUG-CC-PVTZ AUX)
    Blend: AUG-CC-PVTZ-JKFIT

    Orbital Energies [Eh]
    ---------------------

    Doubly Occupied:

       1A    -15.875449     2A    -11.466186     3A    -11.466134
       4A    -11.403098     5A    -11.402482     6A     -1.484347
       7A     -1.250499     8A     -1.191361     9A     -1.033554
      10A     -0.994224    11A     -0.939142    12A     -0.900986
      13A     -0.822549    14A     -0.792374    15A     -0.755713
      16A     -0.737306    17A     -0.696955    18A     -0.684854
      19A     -0.671132    20A     -0.658389

  @DF-RHF Final Energy:  -211.59576949220784

   => Energetics <=

    Nuclear Repulsion Energy =            198.6595432788290623
    One-Electron Energy =                -670.0571600547124262
    Two-Electron Energy =                 259.8018472836754995
    Total Energy =                       -211.5957694922078645
  Basis Set: (AUG-CC-PVTZ AUX)
    Blend: AUG-CC-PVTZ-RI
    Molecular point group: c1

    Geometry (in Angstrom), charge = 1, multiplicity = 1:

       Center              X                  Y                   Z               Mass
    ------------   -----------------  -----------------  -----------------  -----------------
         N           -1.230379899561     0.000102626991    -0.001109534211    14.003074004430
         C           -0.330220899561     1.231547626991     0.144615465789    12.000000000000
         C           -0.330171899561    -1.231308373009    -0.146830534211    12.000000000000
         C            1.046030100439     0.720087626991    -0.258275534211    12.000000000000
         C            1.046059100439    -0.719792373009     0.256057465789    12.000000000000
         H           -1.909399399561    -0.101950873009     0.892222665789     1.007825032230
         H           -1.849133899561     0.093074626991    -0.815159534211     1.007825032230
         H           -0.364737899561     1.526868626991     1.194415465789     1.007825032230
         H           -0.733693899561     2.035916626991    -0.471353534211     1.007825032230
         H           -0.364677899561    -1.526635373009    -1.196629534211     1.007825032230
         H           -0.733611899561    -2.035690373009     0.469142465789     1.007825032230
         H            1.835455100439     1.333067626991     0.181899465789     1.007825032230
         H            1.166312100439     0.745304626991    -1.345789534211     1.007825032230
         H            1.835508100439    -1.332741373009    -0.184118534211     1.007825032230
         H            1.166345100439    -0.745004373009     1.343571465789     1.007825032230

  Basis Set: AUG-CC-PVTZ
    Blend: AUG-CC-PVTZ
  Basis Set: (AUG-CC-PVTZ AUX)
    Blend: AUG-CC-PVTZ-JKFIT
	 Reference Energy          =    -211.5957694922078360 [Eh]
	 Singles Energy            =      -0.0000000000000000 [Eh]
	 Same-Spin Energy          =      -0.2181963801712551 [Eh]
	 Opposite-Spin Energy      =      -0.7839575658961708 [Eh]
	 Correlation Energy        =      -1.0021539460674260 [Eh]
	 Total Energy              =    -212.5979234382752736 [Eh]

	 ================> DF-SCS-MP2 Energies <==================
	-----------------------------------------------------------
	 SCS Same-Spin Scale       =       0.3333333333333333 [-]
	 SCS Opposite-Spin Scale   =       1.2000000000000000 [-]
	 SCS Same-Spin Energy      =      -0.0727321267237517 [Eh]
	 SCS Opposite-Spin Energy  =      -0.9407490790754049 [Eh]
	 SCS Correlation Energy    =      -1.0134812057991567 [Eh]
	 SCS Total Energy          =    -212.6092506980070027 [Eh]
	-----------------------------------------------------------

  Dipole Moment: [D]
     X:    -3.3341      Y:    -0.0119      Z:     0.1025     Total:     3.3357

*** Psi4 exiting successfully. Buy a developer a beer!
