                               Psi4 1.3.2 release

  ==> Input File <==

--------------------------------------------------------------------------
#psi4
#
memory 32 gb

molecule  {
1 1
  N       -1.2324810    -0.0000240    -0.0000010
  C       -0.3323220     1.2314210     0.1457240
  C       -0.3322730    -1.2314350    -0.1457220
  C        1.0439290     0.7199610    -0.2571670
  C        1.0439580    -0.7199190     0.2571660
  H       -1.8654412    -0.0917806     0.8031930
  H       -1.8512350     0.0929480    -0.8140510
  H       -0.3668390     1.5267420     1.1955240
  H       -0.7357950     2.0357900    -0.4702450
  H       -0.3667790    -1.5267620    -1.1955210
  H       -0.7357130    -2.0358170     0.4702510
  H        1.8333540     1.3329410     0.1830080
  H        1.1642110     0.7451780    -1.3446810
  H        1.8334070    -1.3328680    -0.1830100
  H        1.1642440    -0.7451310     1.3446800
units angstrom
no_reorient  #important for SAPT in psi4, default
symmetry c1  #important for SAPT in psi4, default
}

set PROPERTIES_ORIGIN ["COM"]
properties('MP2/aug-cc-pvtz', properties = ['dipole'])
--------------------------------------------------------------------------

    Molecular point group: c1
  Charge       = 1
  Multiplicity = 1
  Basis Set: AUG-CC-PVTZ
    Blend: AUG-CC-PVTZ
  Basis Set: (AUG-CC-PVTZ AUX)
    Blend: AUG-CC-PVTZ-JKFIT

    Orbital Energies [Eh]
    ---------------------

    Doubly Occupied:

       1A    -15.869176     2A    -11.467336     3A    -11.467321
       4A    -11.403868     5A    -11.403250     6A     -1.496010
       7A     -1.255963     8A     -1.192618     9A     -1.039541
      10A     -0.996949    11A     -0.952998    12A     -0.906628
      13A     -0.826874    14A     -0.793508    15A     -0.757904
      16A     -0.741206    17A     -0.700265    18A     -0.685846
      19A     -0.672078    20A     -0.659142

  @DF-RHF Final Energy:  -211.60580451355801

   => Energetics <=

    Nuclear Repulsion Energy =            199.1575062339446447
    One-Electron Energy =                -670.9496542039437372
    Two-Electron Energy =                 260.1863434564410795
    Total Energy =                       -211.6058045135579846
  Basis Set: (AUG-CC-PVTZ AUX)
    Blend: AUG-CC-PVTZ-RI
    Molecular point group: c1

    Geometry (in Angstrom), charge = 1, multiplicity = 1:

       Center              X                  Y                   Z               Mass
    ------------   -----------------  -----------------  -----------------  -----------------
         N           -1.231023890441    -0.000041341973     0.000150758038    14.003074004430
         C           -0.330864890441     1.231403658027     0.145875758038    12.000000000000
         C           -0.330815890441    -1.231452341973    -0.145570241962    12.000000000000
         C            1.045386109559     0.719943658027    -0.257015241962    12.000000000000
         C            1.045415109559    -0.719936341973     0.257317758038    12.000000000000
         H           -1.863984090441    -0.091797941973     0.803344758038     1.007825032230
         H           -1.849777890441     0.092930658027    -0.813899241962     1.007825032230
         H           -0.365381890441     1.526724658027     1.195675758038     1.007825032230
         H           -0.734337890441     2.035772658027    -0.470093241962     1.007825032230
         H           -0.365321890441    -1.526779341973    -1.195369241962     1.007825032230
         H           -0.734255890441    -2.035834341973     0.470402758038     1.007825032230
         H            1.834811109559     1.332923658027     0.183159758038     1.007825032230
         H            1.165668109559     0.745160658027    -1.344529241962     1.007825032230
         H            1.834864109559    -1.332885341973    -0.182858241962     1.007825032230
         H            1.165701109559    -0.745148341973     1.344831758038     1.007825032230

  Basis Set: AUG-CC-PVTZ
    Blend: AUG-CC-PVTZ
  Basis Set: (AUG-CC-PVTZ AUX)
    Blend: AUG-CC-PVTZ-JKFIT
	 Reference Energy          =    -211.6058045135580130 [Eh]
	 Singles Energy            =      -0.0000000000000000 [Eh]
	 Same-Spin Energy          =      -0.2175353668451264 [Eh]
	 Opposite-Spin Energy      =      -0.7818789732040901 [Eh]
	 Correlation Energy        =      -0.9994143400492164 [Eh]
	 Total Energy              =    -212.6052188536072265 [Eh]

	 ================> DF-SCS-MP2 Energies <==================
	-----------------------------------------------------------
	 SCS Same-Spin Scale       =       0.3333333333333333 [-]
	 SCS Opposite-Spin Scale   =       1.2000000000000000 [-]
	 SCS Same-Spin Energy      =      -0.0725117889483755 [Eh]
	 SCS Opposite-Spin Energy  =      -0.9382547678449080 [Eh]
	 SCS Correlation Energy    =      -1.0107665567932835 [Eh]
	 SCS Total Energy          =    -212.6165710703512843 [Eh]
	-----------------------------------------------------------

  Dipole Moment: [D]
     X:    -3.2596      Y:     0.0011      Z:    -0.0084     Total:     3.2596

*** Psi4 exiting successfully. Buy a developer a beer!
