                               Psi4 1.3.2 release

  ==> Input File <==

--------------------------------------------------------------------------
#psi4
#
memory 32 gb

molecule  {
1 1
  N       -1.2324810    -0.0000240    -0.0000010
  C       -0.3797498     1.2503237     0.2397049
  C       -0.3322730    -1.2314350    -0.1457220
  C        1.0439290     0.7199610    -0.2571670
  C        1.0439580    -0.7199190     0.2571660
  H       -1.8512360    -0.0930200     0.8140460
  H       -1.8512350     0.0929480    -0.8140510
  H       -0.3668390     1.5267420     1.1955240
  H       -0.7357950     2.0357900    -0.4702450
  H       -0.3667790    -1.5267620    -1.1955210
  H       -0.7357130    -2.0358170     0.4702510
  H        1.8333540     1.3329410     0.1830080
  H        1.1642110     0.7451780    -1.3446810
  H        1.8334070    -1.3328680    -0.1830100
  H        1.1642440    -0.7451310     1.3446800
units angstrom
no_reorient  #important for SAPT in psi4, default
symmetry c1  #important for SAPT in psi4, default
}

set PROPERTIES_ORIGIN ["COM"]
properties('MP2/aug-cc-pvtz', properties = ['dipole'])
--------------------------------------------------------------------------

    Molecular point group: c1
  Charge       = 1
  Multiplicity = 1
  Basis Set: AUG-CC-PVTZ
    Blend: AUG-CC-PVTZ
  Basis Set: (AUG-CC-PVTZ AUX)
    Blend: AUG-CC-PVTZ-JKFIT

    Orbital Energies [Eh]
    ---------------------

    Doubly Occupied:

       1A    -15.870113     2A    -11.467061     3A    -11.464966
       4A    -11.407600     5A    -11.402522     6A     -1.495297
       7A     -1.248950     8A     -1.191070     9A     -1.044075
      10A     -0.997364    11A     -0.952109    12A     -0.904926
      13A     -0.832380    14A     -0.804526    15A     -0.755140
      16A     -0.733168    17A     -0.713896    18A     -0.676471
      19A     -0.663135    20A     -0.657076

  @DF-RHF Final Energy:  -211.59279360808236

   => Energetics <=

    Nuclear Repulsion Energy =            198.4490556249258475
    One-Electron Energy =                -669.5200075564105191
    Two-Electron Energy =                 259.4781583234023401
    Total Energy =                       -211.5927936080823315
  Basis Set: (AUG-CC-PVTZ AUX)
    Blend: AUG-CC-PVTZ-RI
    Molecular point group: c1

    Geometry (in Angstrom), charge = 1, multiplicity = 1:

       Center              X                  Y                   Z               Mass
    ------------   -----------------  -----------------  -----------------  -----------------
         N           -1.223326789298    -0.003170908525    -0.015646797511    14.003074004430
         C           -0.370595589298     1.247176791475     0.224059102489    12.000000000000
         C           -0.323118789298    -1.234581908525    -0.161367797511    12.000000000000
         C            1.053083210702     0.716814091475    -0.272812797511    12.000000000000
         C            1.053112210702    -0.723065908525     0.241520202489    12.000000000000
         H           -1.842081789298    -0.096166908525     0.798400202489     1.007825032230
         H           -1.842080789298     0.089801091475    -0.829696797511     1.007825032230
         H           -0.357684789298     1.523595091475     1.179878202489     1.007825032230
         H           -0.726640789298     2.032643091475    -0.485890797511     1.007825032230
         H           -0.357624789298    -1.529908908525    -1.211166797511     1.007825032230
         H           -0.726558789298    -2.038963908525     0.454605202489     1.007825032230
         H            1.842508210702     1.329794091475     0.167362202489     1.007825032230
         H            1.173365210702     0.742031091475    -1.360326797511     1.007825032230
         H            1.842561210702    -1.336014908525    -0.198655797511     1.007825032230
         H            1.173398210702    -0.748277908525     1.329034202489     1.007825032230

  Basis Set: AUG-CC-PVTZ
    Blend: AUG-CC-PVTZ
  Basis Set: (AUG-CC-PVTZ AUX)
    Blend: AUG-CC-PVTZ-JKFIT
	 Reference Energy          =    -211.5927936080823599 [Eh]
	 Singles Energy            =      -0.0000000000000000 [Eh]
	 Same-Spin Energy          =      -0.2173536185327243 [Eh]
	 Opposite-Spin Energy      =      -0.7822319425077960 [Eh]
	 Correlation Energy        =      -0.9995855610405203 [Eh]
	 Total Energy              =    -212.5923791691228928 [Eh]

	 ================> DF-SCS-MP2 Energies <==================
	-----------------------------------------------------------
	 SCS Same-Spin Scale       =       0.3333333333333333 [-]
	 SCS Opposite-Spin Scale   =       1.2000000000000000 [-]
	 SCS Same-Spin Energy      =      -0.0724512061775748 [Eh]
	 SCS Opposite-Spin Energy  =      -0.9386783310093552 [Eh]
	 SCS Correlation Energy    =      -1.0111295371869300 [Eh]
	 SCS Total Energy          =    -212.6039231452692775 [Eh]
	-----------------------------------------------------------

  Dipole Moment: [D]
     X:    -3.2331      Y:    -0.0177      Z:    -0.0301     Total:     3.2333

*** Psi4 exiting successfully. Buy a developer a beer!
