                               Psi4 1.3.2 release

  ==> Input File <==

--------------------------------------------------------------------------
#psi4
#
memory 32 gb

molecule  {
1 1
  N       -1.2324810    -0.0000240    -0.0000010
  C       -0.3555017     1.2416287     0.1928319
  C       -0.3322730    -1.2314350    -0.1457220
  C        1.0439290     0.7199610    -0.2571670
  C        1.0439580    -0.7199190     0.2571660
  H       -1.8512360    -0.0930200     0.8140460
  H       -1.8512350     0.0929480    -0.8140510
  H       -0.3668390     1.5267420     1.1955240
  H       -0.7357950     2.0357900    -0.4702450
  H       -0.3667790    -1.5267620    -1.1955210
  H       -0.7357130    -2.0358170     0.4702510
  H        1.8333540     1.3329410     0.1830080
  H        1.1642110     0.7451780    -1.3446810
  H        1.8334070    -1.3328680    -0.1830100
  H        1.1642440    -0.7451310     1.3446800
units angstrom
no_reorient  #important for SAPT in psi4, default
symmetry c1  #important for SAPT in psi4, default
}

set PROPERTIES_ORIGIN ["COM"]
properties('MP2/aug-cc-pvtz', properties = ['dipole'])
--------------------------------------------------------------------------

    Molecular point group: c1
  Charge       = 1
  Multiplicity = 1
  Basis Set: AUG-CC-PVTZ
    Blend: AUG-CC-PVTZ
  Basis Set: (AUG-CC-PVTZ AUX)
    Blend: AUG-CC-PVTZ-JKFIT

    Orbital Energies [Eh]
    ---------------------

    Doubly Occupied:

       1A    -15.869518     2A    -11.467120     3A    -11.465859
       4A    -11.405506     5A    -11.402930     6A     -1.495583
       7A     -1.252002     8A     -1.191679     9A     -1.041029
      10A     -0.997368    11A     -0.953273    12A     -0.904991
      13A     -0.829057    14A     -0.799156    15A     -0.756929
      16A     -0.736231    17A     -0.708169    18A     -0.679741
      19A     -0.667399    20A     -0.660734

  @DF-RHF Final Energy:  -211.60292016495390

   => Energetics <=

    Nuclear Repulsion Energy =            198.8063804249113389
    One-Electron Energy =                -670.2500510679146828
    Two-Electron Energy =                 259.8407504780494151
    Total Energy =                       -211.6029201649539004
  Basis Set: (AUG-CC-PVTZ AUX)
    Blend: AUG-CC-PVTZ-RI
    Molecular point group: c1

    Geometry (in Angstrom), charge = 1, multiplicity = 1:

       Center              X                  Y                   Z               Mass
    ------------   -----------------  -----------------  -----------------  -----------------
         N           -1.227363579725    -0.001723376852    -0.007843444767    14.003074004430
         C           -0.350384279725     1.239929323148     0.184989455233    12.000000000000
         C           -0.327155579725    -1.233134376852    -0.153564444767    12.000000000000
         C            1.049046420275     0.718261623148    -0.265009444767    12.000000000000
         C            1.049075420275    -0.721618376852     0.249323555233    12.000000000000
         H           -1.846118579725    -0.094719376852     0.806203555233     1.007825032230
         H           -1.846117579725     0.091248623148    -0.821893444767     1.007825032230
         H           -0.361721579725     1.525042623148     1.187681555233     1.007825032230
         H           -0.730677579725     2.034090623148    -0.478087444767     1.007825032230
         H           -0.361661579725    -1.528461376852    -1.203363444767     1.007825032230
         H           -0.730595579725    -2.037516376852     0.462408555233     1.007825032230
         H            1.838471420275     1.331241623148     0.175165555233     1.007825032230
         H            1.169328420275     0.743478623148    -1.352523444767     1.007825032230
         H            1.838524420275    -1.334567376852    -0.190852444767     1.007825032230
         H            1.169361420275    -0.746830376852     1.336837555233     1.007825032230

  Basis Set: AUG-CC-PVTZ
    Blend: AUG-CC-PVTZ
  Basis Set: (AUG-CC-PVTZ AUX)
    Blend: AUG-CC-PVTZ-JKFIT
	 Reference Energy          =    -211.6029201649539004 [Eh]
	 Singles Energy            =      -0.0000000000000000 [Eh]
	 Same-Spin Energy          =      -0.2173628564304009 [Eh]
	 Opposite-Spin Energy      =      -0.7818669206604317 [Eh]
	 Correlation Energy        =      -0.9992297770908327 [Eh]
	 Total Energy              =    -212.6021499420447469 [Eh]

	 ================> DF-SCS-MP2 Energies <==================
	-----------------------------------------------------------
	 SCS Same-Spin Scale       =       0.3333333333333333 [-]
	 SCS Opposite-Spin Scale   =       1.2000000000000000 [-]
	 SCS Same-Spin Energy      =      -0.0724542854768003 [Eh]
	 SCS Opposite-Spin Energy  =      -0.9382403047925181 [Eh]
	 SCS Correlation Energy    =      -1.0106945902693183 [Eh]
	 SCS Total Energy          =    -212.6136147552232103 [Eh]
	-----------------------------------------------------------

  Dipole Moment: [D]
     X:    -3.2426      Y:    -0.0046      Z:    -0.0112     Total:     3.2426

*** Psi4 exiting successfully. Buy a developer a beer!
