                               Psi4 1.3.2 release

  ==> Input File <==

--------------------------------------------------------------------------
#psi4
#
memory 32 gb

molecule  {
1 1
  N       -1.2324810    -0.0000240    -0.0000010
  C       -0.2892797     1.2065188     0.0510331
  C       -0.3322730    -1.2314350    -0.1457220
  C        1.0439290     0.7199610    -0.2571670
  C        1.0439580    -0.7199190     0.2571660
  H       -1.8512360    -0.0930200     0.8140460
  H       -1.8512350     0.0929480    -0.8140510
  H       -0.3668390     1.5267420     1.1955240
  H       -0.7357950     2.0357900    -0.4702450
  H       -0.3667790    -1.5267620    -1.1955210
  H       -0.7357130    -2.0358170     0.4702510
  H        1.8333540     1.3329410     0.1830080
  H        1.1642110     0.7451780    -1.3446810
  H        1.8334070    -1.3328680    -0.1830100
  H        1.1642440    -0.7451310     1.3446800
units angstrom
no_reorient  #important for SAPT in psi4, default
symmetry c1  #important for SAPT in psi4, default
}

set PROPERTIES_ORIGIN ["COM"]
properties('MP2/aug-cc-pvtz', properties = ['dipole'])
--------------------------------------------------------------------------

    Molecular point group: c1
  Charge       = 1
  Multiplicity = 1
  Basis Set: AUG-CC-PVTZ
    Blend: AUG-CC-PVTZ
  Basis Set: (AUG-CC-PVTZ AUX)
    Blend: AUG-CC-PVTZ-JKFIT

    Orbital Energies [Eh]
    ---------------------

    Doubly Occupied:

       1A    -15.869474     2A    -11.471798     3A    -11.467943
       4A    -11.405248     5A    -11.400452     6A     -1.497803
       7A     -1.265343     8A     -1.195350     9A     -1.037426
      10A     -0.997296    11A     -0.956764    12A     -0.909793
      13A     -0.825665    14A     -0.785683    15A     -0.758212
      16A     -0.753407    17A     -0.699218    18A     -0.684695
      19A     -0.676225    20A     -0.648136

  @DF-RHF Final Energy:  -211.59276843297857

   => Energetics <=

    Nuclear Repulsion Energy =            199.9288527193324967
    One-Electron Energy =                -672.4313787993656888
    Two-Electron Energy =                 260.9097576470546187
    Total Energy =                       -211.5927684329785734
  Basis Set: (AUG-CC-PVTZ AUX)
    Blend: AUG-CC-PVTZ-RI
    Molecular point group: c1

    Geometry (in Angstrom), charge = 1, multiplicity = 1:

       Center              X                  Y                   Z               Mass
    ------------   -----------------  -----------------  -----------------  -----------------
         N           -1.238388127448     0.004121671139     0.015763024952    14.003074004430
         C           -0.295186827448     1.210664471139     0.066797124952    12.000000000000
         C           -0.338180127448    -1.227289328861    -0.129957975048    12.000000000000
         C            1.038021872552     0.724106671139    -0.241402975048    12.000000000000
         C            1.038050872552    -0.715773328861     0.272930024952    12.000000000000
         H           -1.857143127448    -0.088874328861     0.829810024952     1.007825032230
         H           -1.857142127448     0.097093671139    -0.798286975048     1.007825032230
         H           -0.372746127448     1.530887671139     1.211288024952     1.007825032230
         H           -0.741702127448     2.039935671139    -0.454480975048     1.007825032230
         H           -0.372686127448    -1.522616328861    -1.179756975048     1.007825032230
         H           -0.741620127448    -2.031671328861     0.486015024952     1.007825032230
         H            1.827446872552     1.337086671139     0.198772024952     1.007825032230
         H            1.158303872552     0.749323671139    -1.328916975048     1.007825032230
         H            1.827499872552    -1.328722328861    -0.167245975048     1.007825032230
         H            1.158336872552    -0.740985328861     1.360444024952     1.007825032230

  Basis Set: AUG-CC-PVTZ
    Blend: AUG-CC-PVTZ
  Basis Set: (AUG-CC-PVTZ AUX)
    Blend: AUG-CC-PVTZ-JKFIT
	 Reference Energy          =    -211.5927684329785734 [Eh]
	 Singles Energy            =      -0.0000000000000000 [Eh]
	 Same-Spin Energy          =      -0.2184116426258360 [Eh]
	 Opposite-Spin Energy      =      -0.7830896398074643 [Eh]
	 Correlation Energy        =      -1.0015012824333003 [Eh]
	 Total Energy              =    -212.5942697154118832 [Eh]

	 ================> DF-SCS-MP2 Energies <==================
	-----------------------------------------------------------
	 SCS Same-Spin Scale       =       0.3333333333333333 [-]
	 SCS Opposite-Spin Scale   =       1.2000000000000000 [-]
	 SCS Same-Spin Energy      =      -0.0728038808752787 [Eh]
	 SCS Opposite-Spin Energy  =      -0.9397075677689570 [Eh]
	 SCS Correlation Energy    =      -1.0125114486442357 [Eh]
	 SCS Total Energy          =    -212.6052798816228062 [Eh]
	-----------------------------------------------------------

  Dipole Moment: [D]
     X:    -3.2410      Y:    -0.0144      Z:    -0.0001     Total:     3.2410

*** Psi4 exiting successfully. Buy a developer a beer!
