                               Psi4 1.3.2 release

  ==> Input File <==

--------------------------------------------------------------------------
#psi4
#
memory 32 gb

molecule  {
1 1
  N       -1.2076957    -0.0011856    -0.1040369
  C       -0.3323220     1.2314210     0.1457240
  C       -0.3322730    -1.2314350    -0.1457220
  C        1.0439290     0.7199610    -0.2571670
  C        1.0439580    -0.7199190     0.2571660
  H       -1.8512360    -0.0930200     0.8140460
  H       -1.8512350     0.0929480    -0.8140510
  H       -0.3668390     1.5267420     1.1955240
  H       -0.7357950     2.0357900    -0.4702450
  H       -0.3667790    -1.5267620    -1.1955210
  H       -0.7357130    -2.0358170     0.4702510
  H        1.8333540     1.3329410     0.1830080
  H        1.1642110     0.7451780    -1.3446810
  H        1.8334070    -1.3328680    -0.1830100
  H        1.1642440    -0.7451310     1.3446800
units angstrom
no_reorient  #important for SAPT in psi4, default
symmetry c1  #important for SAPT in psi4, default
}

set PROPERTIES_ORIGIN ["COM"]
properties('MP2/aug-cc-pvtz', properties = ['dipole'])
--------------------------------------------------------------------------

    Molecular point group: c1
  Charge       = 1
  Multiplicity = 1
  Basis Set: AUG-CC-PVTZ
    Blend: AUG-CC-PVTZ
  Basis Set: (AUG-CC-PVTZ AUX)
    Blend: AUG-CC-PVTZ-JKFIT

    Orbital Energies [Eh]
    ---------------------

    Doubly Occupied:

       1A    -15.871200     2A    -11.468545     3A    -11.465178
       4A    -11.403524     5A    -11.402782     6A     -1.499299
       7A     -1.255807     8A     -1.194949     9A     -1.043720
      10A     -0.996280    11A     -0.947630    12A     -0.907910
      13A     -0.825568    14A     -0.794000    15A     -0.762003
      16A     -0.737867    17A     -0.694735    18A     -0.685602
      19A     -0.671901    20A     -0.658879

  @DF-RHF Final Energy:  -211.59049065349635

   => Energetics <=

    Nuclear Repulsion Energy =            199.5280388851621183
    One-Electron Energy =                -671.6622975643970221
    Two-Electron Energy =                 260.5437680257385864
    Total Energy =                       -211.5904906534963175
  Basis Set: (AUG-CC-PVTZ AUX)
    Blend: AUG-CC-PVTZ-RI
    Molecular point group: c1

    Geometry (in Angstrom), charge = 1, multiplicity = 1:

       Center              X                  Y                   Z               Mass
    ------------   -----------------  -----------------  -----------------  -----------------
         N           -1.211252187925    -0.000959951583    -0.083826069862    14.003074004430
         C           -0.335878487925     1.231646648417     0.165934830138    12.000000000000
         C           -0.335829487925    -1.231209351583    -0.125511169862    12.000000000000
         C            1.040372512075     0.720186648417    -0.236956169862    12.000000000000
         C            1.040401512075    -0.719693351583     0.277376830138    12.000000000000
         H           -1.854792487925    -0.092794351583     0.834256830138     1.007825032230
         H           -1.854791487925     0.093173648417    -0.793840169862     1.007825032230
         H           -0.370395487925     1.526967648417     1.215734830138     1.007825032230
         H           -0.739351487925     2.036015648417    -0.450034169862     1.007825032230
         H           -0.370335487925    -1.526536351583    -1.175310169862     1.007825032230
         H           -0.739269487925    -2.035591351583     0.490461830138     1.007825032230
         H            1.829797512075     1.333166648417     0.203218830138     1.007825032230
         H            1.160654512075     0.745403648417    -1.324470169862     1.007825032230
         H            1.829850512075    -1.332642351583    -0.162799169862     1.007825032230
         H            1.160687512075    -0.744905351583     1.364890830138     1.007825032230

  Basis Set: AUG-CC-PVTZ
    Blend: AUG-CC-PVTZ
  Basis Set: (AUG-CC-PVTZ AUX)
    Blend: AUG-CC-PVTZ-JKFIT
	 Reference Energy          =    -211.5904906534963459 [Eh]
	 Singles Energy            =      -0.0000000000000000 [Eh]
	 Same-Spin Energy          =      -0.2181307714427493 [Eh]
	 Opposite-Spin Energy      =      -0.7830801205517025 [Eh]
	 Correlation Energy        =      -1.0012108919944518 [Eh]
	 Total Energy              =    -212.5917015454907926 [Eh]

	 ================> DF-SCS-MP2 Energies <==================
	-----------------------------------------------------------
	 SCS Same-Spin Scale       =       0.3333333333333333 [-]
	 SCS Opposite-Spin Scale   =       1.2000000000000000 [-]
	 SCS Same-Spin Energy      =      -0.0727102571475831 [Eh]
	 SCS Opposite-Spin Energy  =      -0.9396961446620430 [Eh]
	 SCS Correlation Energy    =      -1.0124064018096262 [Eh]
	 SCS Total Energy          =    -212.6028970553059594 [Eh]
	-----------------------------------------------------------

  Dipole Moment: [D]
     X:    -3.2958      Y:     0.0298      Z:     0.1440     Total:     3.2991

*** Psi4 exiting successfully. Buy a developer a beer!
