                               Psi4 1.3.2 release

  ==> Input File <==

--------------------------------------------------------------------------
#psi4
#
memory 32 gb

molecule  {
1 1
  N       -1.2112814    -0.0142978    -0.0078784
  C       -0.3323220     1.2314210     0.1457240
  C       -0.3322730    -1.2314350    -0.1457220
  C        1.0439290     0.7199610    -0.2571670
  C        1.0439580    -0.7199190     0.2571660
  H       -1.8512360    -0.0930200     0.8140460
  H       -1.8512350     0.0929480    -0.8140510
  H       -0.3668390     1.5267420     1.1955240
  H       -0.7357950     2.0357900    -0.4702450
  H       -0.3667790    -1.5267620    -1.1955210
  H       -0.7357130    -2.0358170     0.4702510
  H        1.8333540     1.3329410     0.1830080
  H        1.1642110     0.7451780    -1.3446810
  H        1.8334070    -1.3328680    -0.1830100
  H        1.1642440    -0.7451310     1.3446800
units angstrom
no_reorient  #important for SAPT in psi4, default
symmetry c1  #important for SAPT in psi4, default
}

set PROPERTIES_ORIGIN ["COM"]
properties('MP2/aug-cc-pvtz', properties = ['dipole'])
--------------------------------------------------------------------------

    Molecular point group: c1
  Charge       = 1
  Multiplicity = 1
  Basis Set: AUG-CC-PVTZ
    Blend: AUG-CC-PVTZ
  Basis Set: (AUG-CC-PVTZ AUX)
    Blend: AUG-CC-PVTZ-JKFIT

    Orbital Energies [Eh]
    ---------------------

    Doubly Occupied:

       1A    -15.871714     2A    -11.467597     3A    -11.464785
       4A    -11.403335     5A    -11.402673     6A     -1.498560
       7A     -1.254103     8A     -1.194946     9A     -1.037379
      10A     -0.997560    11A     -0.950640    12A     -0.909473
      13A     -0.825983    14A     -0.793590    15A     -0.761846
      16A     -0.738248    17A     -0.698567    18A     -0.685528
      19A     -0.671807    20A     -0.658942

  @DF-RHF Final Energy:  -211.60426313538218

   => Energetics <=

    Nuclear Repulsion Energy =            199.5280547352195413
    One-Electron Energy =                -671.6900825156952806
    Two-Electron Energy =                 260.5577646450935845
    Total Energy =                       -211.6042631353821548
  Basis Set: (AUG-CC-PVTZ AUX)
    Blend: AUG-CC-PVTZ-RI
    Molecular point group: c1

    Geometry (in Angstrom), charge = 1, multiplicity = 1:

       Center              X                  Y                   Z               Mass
    ------------   -----------------  -----------------  -----------------  -----------------
         N           -1.214141302187    -0.011524874481    -0.006348061713    14.003074004430
         C           -0.335181902187     1.234193925519     0.147254338287    12.000000000000
         C           -0.335132902187    -1.228662074481    -0.144191661713    12.000000000000
         C            1.041069097813     0.722733925519    -0.255636661713    12.000000000000
         C            1.041098097813    -0.717146074481     0.258696338287    12.000000000000
         H           -1.854095902187    -0.090247074481     0.815576338287     1.007825032230
         H           -1.854094902187     0.095720925519    -0.812520661713     1.007825032230
         H           -0.369698902187     1.529514925519     1.197054338287     1.007825032230
         H           -0.738654902187     2.038562925519    -0.468714661713     1.007825032230
         H           -0.369638902187    -1.523989074481    -1.193990661713     1.007825032230
         H           -0.738572902187    -2.033044074481     0.471781338287     1.007825032230
         H            1.830494097813     1.335713925519     0.184538338287     1.007825032230
         H            1.161351097813     0.747950925519    -1.343150661713     1.007825032230
         H            1.830547097813    -1.330095074481    -0.181479661713     1.007825032230
         H            1.161384097813    -0.742358074481     1.346210338287     1.007825032230

  Basis Set: AUG-CC-PVTZ
    Blend: AUG-CC-PVTZ
  Basis Set: (AUG-CC-PVTZ AUX)
    Blend: AUG-CC-PVTZ-JKFIT
	 Reference Energy          =    -211.6042631353821832 [Eh]
	 Singles Energy            =      -0.0000000000000000 [Eh]
	 Same-Spin Energy          =      -0.2178673756028470 [Eh]
	 Opposite-Spin Energy      =      -0.7823249741190497 [Eh]
	 Correlation Energy        =      -1.0001923497218965 [Eh]
	 Total Energy              =    -212.6044554851040687 [Eh]

	 ================> DF-SCS-MP2 Energies <==================
	-----------------------------------------------------------
	 SCS Same-Spin Scale       =       0.3333333333333333 [-]
	 SCS Opposite-Spin Scale   =       1.2000000000000000 [-]
	 SCS Same-Spin Energy      =      -0.0726224585342823 [Eh]
	 SCS Opposite-Spin Energy  =      -0.9387899689428596 [Eh]
	 SCS Correlation Energy    =      -1.0114124274771419 [Eh]
	 SCS Total Energy          =    -212.6156755628593373 [Eh]
	-----------------------------------------------------------

  Dipole Moment: [D]
     X:    -3.3041      Y:     0.0381      Z:     0.0128     Total:     3.3043

*** Psi4 exiting successfully. Buy a developer a beer!
