                               Psi4 1.3.2 release

  ==> Input File <==

--------------------------------------------------------------------------
#psi4
#
memory 32 gb

molecule  {
1 1
  N       -1.2324810    -0.0000240    -0.0000010
  C       -0.2694695     1.1918547     0.0035656
  C       -0.3322730    -1.2314350    -0.1457220
  C        1.0439290     0.7199610    -0.2571670
  C        1.0439580    -0.7199190     0.2571660
  H       -1.8512360    -0.0930200     0.8140460
  H       -1.8512350     0.0929480    -0.8140510
  H       -0.3668390     1.5267420     1.1955240
  H       -0.7357950     2.0357900    -0.4702450
  H       -0.3667790    -1.5267620    -1.1955210
  H       -0.7357130    -2.0358170     0.4702510
  H        1.8333540     1.3329410     0.1830080
  H        1.1642110     0.7451780    -1.3446810
  H        1.8334070    -1.3328680    -0.1830100
  H        1.1642440    -0.7451310     1.3446800
units angstrom
no_reorient  #important for SAPT in psi4, default
symmetry c1  #important for SAPT in psi4, default
}

set PROPERTIES_ORIGIN ["COM"]
properties('MP2/aug-cc-pvtz', properties = ['dipole'])
--------------------------------------------------------------------------

    Molecular point group: c1
  Charge       = 1
  Multiplicity = 1
  Basis Set: AUG-CC-PVTZ
    Blend: AUG-CC-PVTZ
  Basis Set: (AUG-CC-PVTZ AUX)
    Blend: AUG-CC-PVTZ-JKFIT

    Orbital Energies [Eh]
    ---------------------

    Doubly Occupied:

       1A    -15.870028     2A    -11.474920     3A    -11.468434
       4A    -11.406305     5A    -11.399334     6A     -1.499021
       7A     -1.271203     8A     -1.196847     9A     -1.037509
      10A     -0.997717    11A     -0.957802    12A     -0.911979
      13A     -0.825519    14A     -0.783694    15A     -0.762235
      16A     -0.756997    17A     -0.704085    18A     -0.680628
      19A     -0.677443    20A     -0.636239

  @DF-RHF Final Energy:  -211.57804141947261

   => Energetics <=

    Nuclear Repulsion Energy =            200.3084431986540892
    One-Electron Energy =                -673.1370945703285997
    Two-Electron Energy =                 261.2506099522018985
    Total Energy =                       -211.5780414194725836
  Basis Set: (AUG-CC-PVTZ AUX)
    Blend: AUG-CC-PVTZ-RI
    Molecular point group: c1

    Geometry (in Angstrom), charge = 1, multiplicity = 1:

       Center              X                  Y                   Z               Mass
    ------------   -----------------  -----------------  -----------------  -----------------
         N           -1.241686102371     0.006562930393     0.023665349241    14.003074004430
         C           -0.278674602371     1.198441630393     0.027231949241    12.000000000000
         C           -0.341478102371    -1.224848069607    -0.122055650759    12.000000000000
         C            1.034723897629     0.726547930393    -0.233500650759    12.000000000000
         C            1.034752897629    -0.713332069607     0.280832349241    12.000000000000
         H           -1.860441102371    -0.086433069607     0.837712349241     1.007825032230
         H           -1.860440102371     0.099534930393    -0.790384650759     1.007825032230
         H           -0.376044102371     1.533328930393     1.219190349241     1.007825032230
         H           -0.745000102371     2.042376930393    -0.446578650759     1.007825032230
         H           -0.375984102371    -1.520175069607    -1.171854650759     1.007825032230
         H           -0.744918102371    -2.029230069607     0.493917349241     1.007825032230
         H            1.824148897629     1.339527930393     0.206674349241     1.007825032230
         H            1.155005897629     0.751764930393    -1.321014650759     1.007825032230
         H            1.824201897629    -1.326281069607    -0.159343650759     1.007825032230
         H            1.155038897629    -0.738544069607     1.368346349241     1.007825032230

  Basis Set: AUG-CC-PVTZ
    Blend: AUG-CC-PVTZ
  Basis Set: (AUG-CC-PVTZ AUX)
    Blend: AUG-CC-PVTZ-JKFIT
	 Reference Energy          =    -211.5780414194726120 [Eh]
	 Singles Energy            =      -0.0000000000000000 [Eh]
	 Same-Spin Energy          =      -0.2190874545480565 [Eh]
	 Opposite-Spin Energy      =      -0.7842171276636999 [Eh]
	 Correlation Energy        =      -1.0033045822117563 [Eh]
	 Total Energy              =    -212.5813460016843806 [Eh]

	 ================> DF-SCS-MP2 Energies <==================
	-----------------------------------------------------------
	 SCS Same-Spin Scale       =       0.3333333333333333 [-]
	 SCS Opposite-Spin Scale   =       1.2000000000000000 [-]
	 SCS Same-Spin Energy      =      -0.0730291515160188 [Eh]
	 SCS Opposite-Spin Energy  =      -0.9410605531964398 [Eh]
	 SCS Correlation Energy    =      -1.0140897047124586 [Eh]
	 SCS Total Energy          =    -212.5921311241850731 [Eh]
	-----------------------------------------------------------

  Dipole Moment: [D]
     X:    -3.2303      Y:    -0.0323      Z:    -0.0110     Total:     3.2304

*** Psi4 exiting successfully. Buy a developer a beer!
