                               Psi4 1.3.2 release

  ==> Input File <==

--------------------------------------------------------------------------
#psi4
#
memory 32 gb

molecule  {
1 1
  N       -1.1013995    -0.0798922    -0.0465161
  C       -0.3323220     1.2314210     0.1457240
  C       -0.3322730    -1.2314350    -0.1457220
  C        1.0439290     0.7199610    -0.2571670
  C        1.0439580    -0.7199190     0.2571660
  H       -1.8512360    -0.0930200     0.8140460
  H       -1.8512350     0.0929480    -0.8140510
  H       -0.3668390     1.5267420     1.1955240
  H       -0.7357950     2.0357900    -0.4702450
  H       -0.3667790    -1.5267620    -1.1955210
  H       -0.7357130    -2.0358170     0.4702510
  H        1.8333540     1.3329410     0.1830080
  H        1.1642110     0.7451780    -1.3446810
  H        1.8334070    -1.3328680    -0.1830100
  H        1.1642440    -0.7451310     1.3446800
units angstrom
no_reorient  #important for SAPT in psi4, default
symmetry c1  #important for SAPT in psi4, default
}

set PROPERTIES_ORIGIN ["COM"]
properties('MP2/aug-cc-pvtz', properties = ['dipole'])
--------------------------------------------------------------------------

    Molecular point group: c1
  Charge       = 1
  Multiplicity = 1
  Basis Set: AUG-CC-PVTZ
    Blend: AUG-CC-PVTZ
  Basis Set: (AUG-CC-PVTZ AUX)
    Blend: AUG-CC-PVTZ-JKFIT

    Orbital Energies [Eh]
    ---------------------

    Doubly Occupied:

       1A    -15.882446     2A    -11.469587     3A    -11.452842
       4A    -11.401346     5A    -11.400183     6A     -1.515727
       7A     -1.245721     8A     -1.208520     9A     -1.028028
      10A     -1.000865    11A     -0.937224    12A     -0.923293
      13A     -0.823574    14A     -0.793761    15A     -0.778692
      16A     -0.719817    17A     -0.685609    18A     -0.683579
      19A     -0.670181    20A     -0.657859

  @DF-RHF Final Energy:  -211.57043787759375

   => Energetics <=

    Nuclear Repulsion Energy =            201.4277507245120376
    One-Electron Energy =                -675.4386688107787222
    Two-Electron Energy =                 262.4404802086729092
    Total Energy =                       -211.5704378775937471
  Basis Set: (AUG-CC-PVTZ AUX)
    Blend: AUG-CC-PVTZ-RI
    Molecular point group: c1

    Geometry (in Angstrom), charge = 1, multiplicity = 1:

       Center              X                  Y                   Z               Mass
    ------------   -----------------  -----------------  -----------------  -----------------
         N           -1.125605907566    -0.064376400428    -0.037479704110    14.003074004430
         C           -0.356528407566     1.246936799572     0.154760395890    12.000000000000
         C           -0.356479407566    -1.215919200428    -0.136685604110    12.000000000000
         C            1.019722592434     0.735476799572    -0.248130604110    12.000000000000
         C            1.019751592434    -0.704403200428     0.266202395890    12.000000000000
         H           -1.875442407566    -0.077504200428     0.823082395890     1.007825032230
         H           -1.875441407566     0.108463799572    -0.805014604110     1.007825032230
         H           -0.391045407566     1.542257799572     1.204560395890     1.007825032230
         H           -0.760001407566     2.051305799572    -0.461208604110     1.007825032230
         H           -0.390985407566    -1.511246200428    -1.186484604110     1.007825032230
         H           -0.759919407566    -2.020301200428     0.479287395890     1.007825032230
         H            1.809147592434     1.348456799572     0.192044395890     1.007825032230
         H            1.140004592434     0.760693799572    -1.335644604110     1.007825032230
         H            1.809200592434    -1.317352200428    -0.173973604110     1.007825032230
         H            1.140037592434    -0.729615200428     1.353716395890     1.007825032230

  Basis Set: AUG-CC-PVTZ
    Blend: AUG-CC-PVTZ
  Basis Set: (AUG-CC-PVTZ AUX)
    Blend: AUG-CC-PVTZ-JKFIT
	 Reference Energy          =    -211.5704378775937471 [Eh]
	 Singles Energy            =      -0.0000000000000000 [Eh]
	 Same-Spin Energy          =      -0.2204404514378194 [Eh]
	 Opposite-Spin Energy      =      -0.7861517449604385 [Eh]
	 Correlation Energy        =      -1.0065921963982580 [Eh]
	 Total Energy              =    -212.5770300739920060 [Eh]

	 ================> DF-SCS-MP2 Energies <==================
	-----------------------------------------------------------
	 SCS Same-Spin Scale       =       0.3333333333333333 [-]
	 SCS Opposite-Spin Scale   =       1.2000000000000000 [-]
	 SCS Same-Spin Energy      =      -0.0734801504792731 [Eh]
	 SCS Opposite-Spin Energy  =      -0.9433820939525261 [Eh]
	 SCS Correlation Energy    =      -1.0168622444317994 [Eh]
	 SCS Total Energy          =    -212.5873001220255389 [Eh]
	-----------------------------------------------------------

  Dipole Moment: [D]
     X:    -3.5470      Y:     0.1985      Z:     0.0686     Total:     3.5532

*** Psi4 exiting successfully. Buy a developer a beer!
