                               Psi4 1.3.2 release

  ==> Input File <==

--------------------------------------------------------------------------
#psi4
#
memory 32 gb

molecule  {
1 1
  N       -1.2266915    -0.0008776    -0.0260964
  C       -0.3323220     1.2314210     0.1457240
  C       -0.3322730    -1.2314350    -0.1457220
  C        1.0439290     0.7199610    -0.2571670
  C        1.0439580    -0.7199190     0.2571660
  H       -1.8512360    -0.0930200     0.8140460
  H       -1.8512350     0.0929480    -0.8140510
  H       -0.3668390     1.5267420     1.1955240
  H       -0.7357950     2.0357900    -0.4702450
  H       -0.3667790    -1.5267620    -1.1955210
  H       -0.7357130    -2.0358170     0.4702510
  H        1.8333540     1.3329410     0.1830080
  H        1.1642110     0.7451780    -1.3446810
  H        1.8334070    -1.3328680    -0.1830100
  H        1.1642440    -0.7451310     1.3446800
units angstrom
no_reorient  #important for SAPT in psi4, default
symmetry c1  #important for SAPT in psi4, default
}

set PROPERTIES_ORIGIN ["COM"]
properties('MP2/aug-cc-pvtz', properties = ['dipole'])
--------------------------------------------------------------------------

    Molecular point group: c1
  Charge       = 1
  Multiplicity = 1
  Basis Set: AUG-CC-PVTZ
    Blend: AUG-CC-PVTZ
  Basis Set: (AUG-CC-PVTZ AUX)
    Blend: AUG-CC-PVTZ-JKFIT

    Orbital Energies [Eh]
    ---------------------

    Doubly Occupied:

       1A    -15.869846     2A    -11.467510     3A    -11.466564
       4A    -11.403734     5A    -11.403110     6A     -1.496773
       7A     -1.255425     8A     -1.193258     9A     -1.039058
      10A     -0.997198    11A     -0.953198    12A     -0.906880
      13A     -0.826797    14A     -0.793614    15A     -0.758999
      16A     -0.740013    17A     -0.699735    18A     -0.685777
      19A     -0.672025    20A     -0.659124

  @DF-RHF Final Energy:  -211.60467119497002

   => Energetics <=

    Nuclear Repulsion Energy =            199.2670319056003905
    One-Electron Energy =                -671.1661287202076664
    Two-Electron Energy =                 260.2944256196372521
    Total Energy =                       -211.6046711949700239
  Basis Set: (AUG-CC-PVTZ AUX)
    Blend: AUG-CC-PVTZ-RI
    Molecular point group: c1

    Geometry (in Angstrom), charge = 1, multiplicity = 1:

       Center              X                  Y                   Z               Mass
    ------------   -----------------  -----------------  -----------------  -----------------
         N           -1.226557717308    -0.000711786039    -0.021026892523    14.003074004430
         C           -0.332188217308     1.231586813961     0.150793507477    12.000000000000
         C           -0.332139217308    -1.231269186039    -0.140652492523    12.000000000000
         C            1.044062782692     0.720126813961    -0.252097492523    12.000000000000
         C            1.044091782692    -0.719753186039     0.262235507477    12.000000000000
         H           -1.851102217308    -0.092854186039     0.819115507477     1.007825032230
         H           -1.851101217308     0.093113813961    -0.808981492523     1.007825032230
         H           -0.366705217308     1.526907813961     1.200593507477     1.007825032230
         H           -0.735661217308     2.035955813961    -0.465175492523     1.007825032230
         H           -0.366645217308    -1.526596186039    -1.190451492523     1.007825032230
         H           -0.735579217308    -2.035651186039     0.475320507477     1.007825032230
         H            1.833487782692     1.333106813961     0.188077507477     1.007825032230
         H            1.164344782692     0.745343813961    -1.339611492523     1.007825032230
         H            1.833540782692    -1.332702186039    -0.177940492523     1.007825032230
         H            1.164377782692    -0.744965186039     1.349749507477     1.007825032230

  Basis Set: AUG-CC-PVTZ
    Blend: AUG-CC-PVTZ
  Basis Set: (AUG-CC-PVTZ AUX)
    Blend: AUG-CC-PVTZ-JKFIT
	 Reference Energy          =    -211.6046711949700239 [Eh]
	 Singles Energy            =      -0.0000000000000000 [Eh]
	 Same-Spin Energy          =      -0.2176402780288511 [Eh]
	 Opposite-Spin Energy      =      -0.7820488732832380 [Eh]
	 Correlation Energy        =      -0.9996891513120891 [Eh]
	 Total Energy              =    -212.6043603462821068 [Eh]

	 ================> DF-SCS-MP2 Energies <==================
	-----------------------------------------------------------
	 SCS Same-Spin Scale       =       0.3333333333333333 [-]
	 SCS Opposite-Spin Scale   =       1.2000000000000000 [-]
	 SCS Same-Spin Energy      =      -0.0725467593429504 [Eh]
	 SCS Opposite-Spin Energy  =      -0.9384586479398855 [Eh]
	 SCS Correlation Energy    =      -1.0110054072828358 [Eh]
	 SCS Total Energy          =    -212.6156766022528473 [Eh]
	-----------------------------------------------------------

  Dipole Moment: [D]
     X:    -3.2617      Y:     0.0090      Z:     0.0368     Total:     3.2620

*** Psi4 exiting successfully. Buy a developer a beer!
