                               Psi4 1.3.2 release

  ==> Input File <==

--------------------------------------------------------------------------
#psi4
#
memory 32 gb

molecule  {
1 1
  N       -1.2324810    -0.0000240    -0.0000010
  C       -0.4210154     1.2907781     0.1527481
  C       -0.3322730    -1.2314350    -0.1457220
  C        1.0439290     0.7199610    -0.2571670
  C        1.0439580    -0.7199190     0.2571660
  H       -1.8512360    -0.0930200     0.8140460
  H       -1.8512350     0.0929480    -0.8140510
  H       -0.3668390     1.5267420     1.1955240
  H       -0.7357950     2.0357900    -0.4702450
  H       -0.3667790    -1.5267620    -1.1955210
  H       -0.7357130    -2.0358170     0.4702510
  H        1.8333540     1.3329410     0.1830080
  H        1.1642110     0.7451780    -1.3446810
  H        1.8334070    -1.3328680    -0.1830100
  H        1.1642440    -0.7451310     1.3446800
units angstrom
no_reorient  #important for SAPT in psi4, default
symmetry c1  #important for SAPT in psi4, default
}

set PROPERTIES_ORIGIN ["COM"]
properties('MP2/aug-cc-pvtz', properties = ['dipole'])
--------------------------------------------------------------------------

    Molecular point group: c1
  Charge       = 1
  Multiplicity = 1
  Basis Set: AUG-CC-PVTZ
    Blend: AUG-CC-PVTZ
  Basis Set: (AUG-CC-PVTZ AUX)
    Blend: AUG-CC-PVTZ-JKFIT

    Orbital Energies [Eh]
    ---------------------

    Doubly Occupied:

       1A    -15.870339     2A    -11.468114     3A    -11.464048
       4A    -11.408390     5A    -11.403275     6A     -1.494628
       7A     -1.246087     8A     -1.190741     9A     -1.043482
      10A     -0.993833    11A     -0.956481    12A     -0.905359
      13A     -0.824166    14A     -0.803835    15A     -0.770812
      16A     -0.730770    17A     -0.709146    18A     -0.675295
      19A     -0.665180    20A     -0.654176

  @DF-RHF Final Energy:  -211.59539418156430

   => Energetics <=

    Nuclear Repulsion Energy =            197.9689399169522801
    One-Electron Energy =                -668.5723567140782961
    Two-Electron Energy =                 259.0080226155616856
    Total Energy =                       -211.5953941815643020
  Basis Set: (AUG-CC-PVTZ AUX)
    Blend: AUG-CC-PVTZ-RI
    Molecular point group: c1

    Geometry (in Angstrom), charge = 1, multiplicity = 1:

       Center              X                  Y                   Z               Mass
    ------------   -----------------  -----------------  -----------------  -----------------
         N           -1.216456948814    -0.009905701546    -0.001170348726    14.003074004430
         C           -0.404991348814     1.280896398454     0.151578751274    12.000000000000
         C           -0.316248948814    -1.241316701546    -0.146891348726    12.000000000000
         C            1.059953051186     0.710079298454    -0.258336348726    12.000000000000
         C            1.059982051186    -0.729800701546     0.255996651274    12.000000000000
         H           -1.835211948814    -0.102901701546     0.812876651274     1.007825032230
         H           -1.835210948814     0.083066298454    -0.815220348726     1.007825032230
         H           -0.350814948814     1.516860298454     1.194354651274     1.007825032230
         H           -0.719770948814     2.025908298454    -0.471414348726     1.007825032230
         H           -0.350754948814    -1.536643701546    -1.196690348726     1.007825032230
         H           -0.719688948814    -2.045698701546     0.469081651274     1.007825032230
         H            1.849378051186     1.323059298454     0.181838651274     1.007825032230
         H            1.180235051186     0.735296298454    -1.345850348726     1.007825032230
         H            1.849431051186    -1.342749701546    -0.184179348726     1.007825032230
         H            1.180268051186    -0.755012701546     1.343510651274     1.007825032230

  Basis Set: AUG-CC-PVTZ
    Blend: AUG-CC-PVTZ
  Basis Set: (AUG-CC-PVTZ AUX)
    Blend: AUG-CC-PVTZ-JKFIT
	 Reference Energy          =    -211.5953941815643020 [Eh]
	 Singles Energy            =      -0.0000000000000000 [Eh]
	 Same-Spin Energy          =      -0.2171455281019030 [Eh]
	 Opposite-Spin Energy      =      -0.7820749147103598 [Eh]
	 Correlation Energy        =      -0.9992204428122629 [Eh]
	 Total Energy              =    -212.5946146243765611 [Eh]

	 ================> DF-SCS-MP2 Energies <==================
	-----------------------------------------------------------
	 SCS Same-Spin Scale       =       0.3333333333333333 [-]
	 SCS Opposite-Spin Scale   =       1.2000000000000000 [-]
	 SCS Same-Spin Energy      =      -0.0723818427006343 [Eh]
	 SCS Opposite-Spin Energy  =      -0.9384898976524317 [Eh]
	 SCS Correlation Energy    =      -1.0108717403530660 [Eh]
	 SCS Total Energy          =    -212.6062659219173554 [Eh]
	-----------------------------------------------------------

  Dipole Moment: [D]
     X:    -3.2245      Y:    -0.0561      Z:    -0.0135     Total:     3.2250

*** Psi4 exiting successfully. Buy a developer a beer!
