                               Psi4 1.4a3.dev225

  ==> Input File <==

--------------------------------------------------------------------------
#psi4
#
memory 32 gb

molecule  {
1 1
  N       -1.2324810    -0.0000240    -0.0000010
  C       -0.3440710     1.2153480     0.1438220
  C       -0.3322730    -1.2314350    -0.1457220
  C        1.0439290     0.7199610    -0.2571670
  C        1.0439580    -0.7199190     0.2571660
  H       -1.8512360    -0.0930200     0.8140460
  H       -1.8512350     0.0929480    -0.8140510
  H       -0.3668390     1.5267420     1.1955240
  H       -0.7357950     2.0357900    -0.4702450
  H       -0.3667790    -1.5267620    -1.1955210
  H       -0.7357130    -2.0358170     0.4702510
  H        1.8333540     1.3329410     0.1830080
  H        1.1642110     0.7451780    -1.3446810
  H        1.8334070    -1.3328680    -0.1830100
  H        1.1642440    -0.7451310     1.3446800
units angstrom
no_reorient  #important for SAPT in psi4, default
symmetry c1  #important for SAPT in psi4, default
}

set PROPERTIES_ORIGIN ["COM"]
properties('MP2/aug-cc-pvtz', properties = ['dipole'])
--------------------------------------------------------------------------

    Molecular point group: c1
  Charge       = 1
  Multiplicity = 1
  Basis Set: AUG-CC-PVTZ
    Blend: AUG-CC-PVTZ
  Basis Set: (AUG-CC-PVTZ AUX)
    Blend: AUG-CC-PVTZ-JKFIT

    Orbital Energies [Eh]
    ---------------------

    Doubly Occupied:

       1A    -15.871065     2A    -11.467961     3A    -11.466225
       4A    -11.403708     5A    -11.403091     6A     -1.500868
       7A     -1.255616     8A     -1.192594     9A     -1.038773
      10A     -0.997997    11A     -0.956720    12A     -0.908392
      13A     -0.827640    14A     -0.791808    15A     -0.760431
      16A     -0.741700    17A     -0.698602    18A     -0.685186
      19A     -0.670052    20A     -0.658663

  @DF-RHF Final Energy:  -211.60553473992144

   => Energetics <=

    Nuclear Repulsion Energy =            199.3920474496559336
    One-Electron Energy =                -671.4009815410908004
    Two-Electron Energy =                 260.4033993515134284
    Total Energy =                       -211.6055347399214384
  Basis Set: (AUG-CC-PVTZ AUX)
    Blend: AUG-CC-PVTZ-RI
    Molecular point group: c1

    Geometry (in Angstrom), charge = 1, multiplicity = 1:

       Center              X                  Y                   Z               Mass
    ------------   -----------------  -----------------  -----------------  -----------------
         N           -1.229266546982     0.002651798034     0.000315656158    14.003074004430
         C           -0.340856546982     1.218023798034     0.144138656158    12.000000000000
         C           -0.329058546982    -1.228759201966    -0.145405343842    12.000000000000
         C            1.047143453018     0.722636798034    -0.256850343842    12.000000000000
         C            1.047172453018    -0.717243201966     0.257482656158    12.000000000000
         H           -1.848021546982    -0.090344201966     0.814362656158     1.007825032230
         H           -1.848020546982     0.095623798034    -0.813734343842     1.007825032230
         H           -0.363624546982     1.529417798034     1.195840656158     1.007825032230
         H           -0.732580546982     2.038465798034    -0.469928343842     1.007825032230
         H           -0.363564546982    -1.524086201966    -1.195204343842     1.007825032230
         H           -0.732498546982    -2.033141201966     0.470567656158     1.007825032230
         H            1.836568453018     1.335616798034     0.183324656158     1.007825032230
         H            1.167425453018     0.747853798034    -1.344364343842     1.007825032230
         H            1.836621453018    -1.330192201966    -0.182693343842     1.007825032230
         H            1.167458453018    -0.742455201966     1.344996656158     1.007825032230

  Basis Set: AUG-CC-PVTZ
    Blend: AUG-CC-PVTZ
  Basis Set: (AUG-CC-PVTZ AUX)
    Blend: AUG-CC-PVTZ-JKFIT
	 Reference Energy          =    -211.6055347399214384 [Eh]
	 Singles Energy            =      -0.0000000000000000 [Eh]
	 Same-Spin Energy          =      -0.2176370582265596 [Eh]
	 Opposite-Spin Energy      =      -0.7818987460870404 [Eh]
	 Correlation Energy        =      -0.9995358043136000 [Eh]
	 Total Energy              =    -212.6050705442350477 [Eh]

	 ================> DF-SCS-MP2 Energies <==================
	-----------------------------------------------------------
	 SCS Same-Spin Scale       =       0.3333333333333333 [-]
	 SCS Opposite-Spin Scale   =       1.2000000000000000 [-]
	 SCS Same-Spin Energy      =      -0.0725456860755199 [Eh]
	 SCS Opposite-Spin Energy  =      -0.9382784953044484 [Eh]
	 SCS Correlation Energy    =      -1.0108241813799683 [Eh]
	 SCS Total Energy          =    -212.6163589213014120 [Eh]
	-----------------------------------------------------------

  Dipole Moment: [D]
     X:    -3.2668      Y:    -0.0235      Z:    -0.0032     Total:     3.2669

*** Psi4 exiting successfully. Buy a developer a beer!
