                               Psi4 1.3.2 release

  ==> Input File <==

--------------------------------------------------------------------------
#psi4
#
memory 32 gb

molecule  {
1 1
  N       -1.2324810    -0.0000240    -0.0000010
  C       -0.2895937     1.1994734     0.1419434
  C       -0.3322730    -1.2314350    -0.1457220
  C        1.0439290     0.7199610    -0.2571670
  C        1.0439580    -0.7199190     0.2571660
  H       -1.8512360    -0.0930200     0.8140460
  H       -1.8512350     0.0929480    -0.8140510
  H       -0.3668390     1.5267420     1.1955240
  H       -0.7357950     2.0357900    -0.4702450
  H       -0.3667790    -1.5267620    -1.1955210
  H       -0.7357130    -2.0358170     0.4702510
  H        1.8333540     1.3329410     0.1830080
  H        1.1642110     0.7451780    -1.3446810
  H        1.8334070    -1.3328680    -0.1830100
  H        1.1642440    -0.7451310     1.3446800
units angstrom
no_reorient  #important for SAPT in psi4, default
symmetry c1  #important for SAPT in psi4, default
}

set PROPERTIES_ORIGIN ["COM"]
properties('MP2/aug-cc-pvtz', properties = ['dipole'])
--------------------------------------------------------------------------

    Molecular point group: c1
  Charge       = 1
  Multiplicity = 1
  Basis Set: AUG-CC-PVTZ
    Blend: AUG-CC-PVTZ
  Basis Set: (AUG-CC-PVTZ AUX)
    Blend: AUG-CC-PVTZ-JKFIT

    Orbital Energies [Eh]
    ---------------------

    Doubly Occupied:

       1A    -15.868859     2A    -11.469597     3A    -11.467087
       4A    -11.404111     5A    -11.401087     6A     -1.497163
       7A     -1.262992     8A     -1.193453     9A     -1.037088
      10A     -0.999159    11A     -0.953884    12A     -0.906180
      13A     -0.829345    14A     -0.790375    15A     -0.751167
      16A     -0.749181    17A     -0.698720    18A     -0.688742
      19A     -0.673151    20A     -0.656538

  @DF-RHF Final Energy:  -211.60186689810646

   => Energetics <=

    Nuclear Repulsion Energy =            199.8247859588969959
    One-Electron Energy =                -672.2575453081188925
    Two-Electron Energy =                 260.8308924511154601
    Total Energy =                       -211.6018668981064366
  Basis Set: (AUG-CC-PVTZ AUX)
    Blend: AUG-CC-PVTZ-RI
    Molecular point group: c1

    Geometry (in Angstrom), charge = 1, multiplicity = 1:

       Center              X                  Y                   Z               Mass
    ------------   -----------------  -----------------  -----------------  -----------------
         N           -1.238335853159     0.005294579667     0.000628402909    14.003074004430
         C           -0.295448553159     1.204791979667     0.142572802909    12.000000000000
         C           -0.338127853159    -1.226116420333    -0.145092597091    12.000000000000
         C            1.038074146841     0.725279579667    -0.256537597091    12.000000000000
         C            1.038103146841    -0.714600420333     0.257795402909    12.000000000000
         H           -1.857090853159    -0.087701420333     0.814675402909     1.007825032230
         H           -1.857089853159     0.098266579667    -0.813421597091     1.007825032230
         H           -0.372693853159     1.532060579667     1.196153402909     1.007825032230
         H           -0.741649853159     2.041108579667    -0.469615597091     1.007825032230
         H           -0.372633853159    -1.521443420333    -1.194891597091     1.007825032230
         H           -0.741567853159    -2.030498420333     0.470880402909     1.007825032230
         H            1.827499146841     1.338259579667     0.183637402909     1.007825032230
         H            1.158356146841     0.750496579667    -1.344051597091     1.007825032230
         H            1.827552146841    -1.327549420333    -0.182380597091     1.007825032230
         H            1.158389146841    -0.739812420333     1.345309402909     1.007825032230

  Basis Set: AUG-CC-PVTZ
    Blend: AUG-CC-PVTZ
  Basis Set: (AUG-CC-PVTZ AUX)
    Blend: AUG-CC-PVTZ-JKFIT
	 Reference Energy          =    -211.6018668981064650 [Eh]
	 Singles Energy            =      -0.0000000000000000 [Eh]
	 Same-Spin Energy          =      -0.2180921373993754 [Eh]
	 Opposite-Spin Energy      =      -0.7824350465961483 [Eh]
	 Correlation Energy        =      -1.0005271839955237 [Eh]
	 Total Energy              =    -212.6023940821019949 [Eh]

	 ================> DF-SCS-MP2 Energies <==================
	-----------------------------------------------------------
	 SCS Same-Spin Scale       =       0.3333333333333333 [-]
	 SCS Opposite-Spin Scale   =       1.2000000000000000 [-]
	 SCS Same-Spin Energy      =      -0.0726973791331251 [Eh]
	 SCS Opposite-Spin Energy  =      -0.9389220559153779 [Eh]
	 SCS Correlation Energy    =      -1.0116194350485030 [Eh]
	 SCS Total Energy          =    -212.6134863331549809 [Eh]
	-----------------------------------------------------------

  Dipole Moment: [D]
     X:    -3.2399      Y:     0.0120      Z:     0.0062     Total:     3.2399

*** Psi4 exiting successfully. Buy a developer a beer!
