                               Psi4 1.3.2 release

  ==> Input File <==

--------------------------------------------------------------------------
#psi4
#
memory 32 gb

molecule  {
1 1
  N       -1.2324810    -0.0000240    -0.0000010
  C       -0.2076340     1.1312348     0.1338683
  C       -0.3322730    -1.2314350    -0.1457220
  C        1.0439290     0.7199610    -0.2571670
  C        1.0439580    -0.7199190     0.2571660
  H       -1.8512360    -0.0930200     0.8140460
  H       -1.8512350     0.0929480    -0.8140510
  H       -0.3668390     1.5267420     1.1955240
  H       -0.7357950     2.0357900    -0.4702450
  H       -0.3667790    -1.5267620    -1.1955210
  H       -0.7357130    -2.0358170     0.4702510
  H        1.8333540     1.3329410     0.1830080
  H        1.1642110     0.7451780    -1.3446810
  H        1.8334070    -1.3328680    -0.1830100
  H        1.1642440    -0.7451310     1.3446800
units angstrom
no_reorient  #important for SAPT in psi4, default
symmetry c1  #important for SAPT in psi4, default
}

set PROPERTIES_ORIGIN ["COM"]
properties('MP2/aug-cc-pvtz', properties = ['dipole'])
--------------------------------------------------------------------------

    Molecular point group: c1
  Charge       = 1
  Multiplicity = 1
  Basis Set: AUG-CC-PVTZ
    Blend: AUG-CC-PVTZ
  Basis Set: (AUG-CC-PVTZ AUX)
    Blend: AUG-CC-PVTZ-JKFIT

    Orbital Energies [Eh]
    ---------------------

    Doubly Occupied:

       1A    -15.868513     2A    -11.475344     3A    -11.467216
       4A    -11.406119     5A    -11.396254     6A     -1.500124
       7A     -1.282836     8A     -1.194740     9A     -1.034365
      10A     -1.002909    11A     -0.953691    12A     -0.905649
      13A     -0.835774    14A     -0.787491    15A     -0.771470
      16A     -0.739792    17A     -0.702068    18A     -0.685629
      19A     -0.673710    20A     -0.639964

  @DF-RHF Final Energy:  -211.57248853877056

   => Energetics <=

    Nuclear Repulsion Energy =            201.2363925505200370
    One-Electron Energy =                -674.9704448700422290
    Two-Electron Energy =                 262.1615637807516919
    Total Energy =                       -211.5724885387705285
  Basis Set: (AUG-CC-PVTZ AUX)
    Blend: AUG-CC-PVTZ-RI
    Molecular point group: c1

    Geometry (in Angstrom), charge = 1, multiplicity = 1:

       Center              X                  Y                   Z               Mass
    ------------   -----------------  -----------------  -----------------  -----------------
         N           -1.251980391591     0.016654848192     0.001972734481    14.003074004430
         C           -0.227133391591     1.147913648192     0.135842034481    12.000000000000
         C           -0.351772391591    -1.214756151808    -0.143748265519    12.000000000000
         C            1.024429608409     0.736639848192    -0.255193265519    12.000000000000
         C            1.024458608409    -0.703240151808     0.259139734481    12.000000000000
         H           -1.870735391591    -0.076341151808     0.816019734481     1.007825032230
         H           -1.870734391591     0.109626848192    -0.812077265519     1.007825032230
         H           -0.386338391591     1.543420848192     1.197497734481     1.007825032230
         H           -0.755294391591     2.052468848192    -0.468271265519     1.007825032230
         H           -0.386278391591    -1.510083151808    -1.193547265519     1.007825032230
         H           -0.755212391591    -2.019138151808     0.472224734481     1.007825032230
         H            1.813854608409     1.349619848192     0.184981734481     1.007825032230
         H            1.144711608409     0.761856848192    -1.342707265519     1.007825032230
         H            1.813907608409    -1.316189151808    -0.181036265519     1.007825032230
         H            1.144744608409    -0.728452151808     1.346653734481     1.007825032230

  Basis Set: AUG-CC-PVTZ
    Blend: AUG-CC-PVTZ
  Basis Set: (AUG-CC-PVTZ AUX)
    Blend: AUG-CC-PVTZ-JKFIT
	 Reference Energy          =    -211.5724885387705569 [Eh]
	 Singles Energy            =      -0.0000000000000000 [Eh]
	 Same-Spin Energy          =      -0.2199241533708116 [Eh]
	 Opposite-Spin Energy      =      -0.7848078408956791 [Eh]
	 Correlation Energy        =      -1.0047319942664907 [Eh]
	 Total Energy              =    -212.5772205330370355 [Eh]

	 ================> DF-SCS-MP2 Energies <==================
	-----------------------------------------------------------
	 SCS Same-Spin Scale       =       0.3333333333333333 [-]
	 SCS Opposite-Spin Scale   =       1.2000000000000000 [-]
	 SCS Same-Spin Energy      =      -0.0733080511236038 [Eh]
	 SCS Opposite-Spin Energy  =      -0.9417694090748149 [Eh]
	 SCS Correlation Energy    =      -1.0150774601984187 [Eh]
	 SCS Total Energy          =    -212.5875659989689836 [Eh]
	-----------------------------------------------------------

  Dipole Moment: [D]
     X:    -3.1849      Y:    -0.0016      Z:     0.0192     Total:     3.1850

*** Psi4 exiting successfully. Buy a developer a beer!
