                               Psi4 1.3.2 release

  ==> Input File <==

--------------------------------------------------------------------------
#psi4
#
memory 32 gb

molecule  {
1 1
  N       -1.2206295    -0.0013558    -0.0521395
  C       -0.3323220     1.2314210     0.1457240
  C       -0.3322730    -1.2314350    -0.1457220
  C        1.0439290     0.7199610    -0.2571670
  C        1.0439580    -0.7199190     0.2571660
  H       -1.8512360    -0.0930200     0.8140460
  H       -1.8512350     0.0929480    -0.8140510
  H       -0.3668390     1.5267420     1.1955240
  H       -0.7357950     2.0357900    -0.4702450
  H       -0.3667790    -1.5267620    -1.1955210
  H       -0.7357130    -2.0358170     0.4702510
  H        1.8333540     1.3329410     0.1830080
  H        1.1642110     0.7451780    -1.3446810
  H        1.8334070    -1.3328680    -0.1830100
  H        1.1642440    -0.7451310     1.3446800
units angstrom
no_reorient  #important for SAPT in psi4, default
symmetry c1  #important for SAPT in psi4, default
}

set PROPERTIES_ORIGIN ["COM"]
properties('MP2/aug-cc-pvtz', properties = ['dipole'])
--------------------------------------------------------------------------

    Molecular point group: c1
  Charge       = 1
  Multiplicity = 1
  Basis Set: AUG-CC-PVTZ
    Blend: AUG-CC-PVTZ
  Basis Set: (AUG-CC-PVTZ AUX)
    Blend: AUG-CC-PVTZ-JKFIT

    Orbital Energies [Eh]
    ---------------------

    Doubly Occupied:

       1A    -15.870382     2A    -11.467797     3A    -11.465972
       4A    -11.403631     5A    -11.402985     6A     -1.497551
       7A     -1.255343     8A     -1.193832     9A     -1.039970
      10A     -0.996963    11A     -0.951550    12A     -0.907499
      13A     -0.826401    14A     -0.793692    15A     -0.760107
      16A     -0.739280    17A     -0.698538    18A     -0.685714
      19A     -0.671972    20A     -0.659049

  @DF-RHF Final Energy:  -211.60164904283479

   => Energetics <=

    Nuclear Repulsion Energy =            199.3572955155125328
    One-Electron Energy =                -671.3414301857088731
    Two-Electron Energy =                 260.3824856273615183
    Total Energy =                       -211.6016490428348220
  Basis Set: (AUG-CC-PVTZ AUX)
    Blend: AUG-CC-PVTZ-RI
    Molecular point group: c1

    Geometry (in Angstrom), charge = 1, multiplicity = 1:

       Center              X                  Y                   Z               Mass
    ------------   -----------------  -----------------  -----------------  -----------------
         N           -1.221673368182    -0.001097087219    -0.042010659055    14.003074004430
         C           -0.333365868182     1.231679712781     0.155852840945    12.000000000000
         C           -0.333316868182    -1.231176287219    -0.135593159055    12.000000000000
         C            1.042885131818     0.720219712781    -0.247038159055    12.000000000000
         C            1.042914131818    -0.719660287219     0.267294840945    12.000000000000
         H           -1.852279868182    -0.092761287219     0.824174840945     1.007825032230
         H           -1.852278868182     0.093206712781    -0.803922159055     1.007825032230
         H           -0.367882868182     1.527000712781     1.205652840945     1.007825032230
         H           -0.736838868182     2.036048712781    -0.460116159055     1.007825032230
         H           -0.367822868182    -1.526503287219    -1.185392159055     1.007825032230
         H           -0.736756868182    -2.035558287219     0.480379840945     1.007825032230
         H            1.832310131818     1.333199712781     0.193136840945     1.007825032230
         H            1.163167131818     0.745436712781    -1.334552159055     1.007825032230
         H            1.832363131818    -1.332609287219    -0.172881159055     1.007825032230
         H            1.163200131818    -0.744872287219     1.354808840945     1.007825032230

  Basis Set: AUG-CC-PVTZ
    Blend: AUG-CC-PVTZ
  Basis Set: (AUG-CC-PVTZ AUX)
    Blend: AUG-CC-PVTZ-JKFIT
	 Reference Energy          =    -211.6016490428347936 [Eh]
	 Singles Energy            =      -0.0000000000000000 [Eh]
	 Same-Spin Energy          =      -0.2177698028694789 [Eh]
	 Opposite-Spin Energy      =      -0.7822952048127361 [Eh]
	 Correlation Energy        =      -1.0000650076822151 [Eh]
	 Total Energy              =    -212.6017140505170175 [Eh]

	 ================> DF-SCS-MP2 Energies <==================
	-----------------------------------------------------------
	 SCS Same-Spin Scale       =       0.3333333333333333 [-]
	 SCS Opposite-Spin Scale   =       1.2000000000000000 [-]
	 SCS Same-Spin Energy      =      -0.0725899342898263 [Eh]
	 SCS Opposite-Spin Energy  =      -0.9387542457752832 [Eh]
	 SCS Correlation Energy    =      -1.0113441800651095 [Eh]
	 SCS Total Energy          =    -212.6129932228999166 [Eh]
	-----------------------------------------------------------

  Dipole Moment: [D]
     X:    -3.2747      Y:     0.0170      Z:     0.0731     Total:     3.2755

*** Psi4 exiting successfully. Buy a developer a beer!
