                               Psi4 1.3.2 release

  ==> Input File <==

--------------------------------------------------------------------------
#psi4
#
memory 32 gb

molecule  {
1 1
  N       -1.2324810    -0.0000240    -0.0000010
  C       -0.3323220     1.2314210     0.1457240
  C       -0.3322730    -1.2314350    -0.1457220
  C        1.0439290     0.7199610    -0.2571670
  C        1.0439580    -0.7199190     0.2571660
  H       -1.7622019    -0.0998489     0.8738464
  H       -1.8512350     0.0929480    -0.8140510
  H       -0.3668390     1.5267420     1.1955240
  H       -0.7357950     2.0357900    -0.4702450
  H       -0.3667790    -1.5267620    -1.1955210
  H       -0.7357130    -2.0358170     0.4702510
  H        1.8333540     1.3329410     0.1830080
  H        1.1642110     0.7451780    -1.3446810
  H        1.8334070    -1.3328680    -0.1830100
  H        1.1642440    -0.7451310     1.3446800
units angstrom
no_reorient  #important for SAPT in psi4, default
symmetry c1  #important for SAPT in psi4, default
}

set PROPERTIES_ORIGIN ["COM"]
properties('MP2/aug-cc-pvtz', properties = ['dipole'])
--------------------------------------------------------------------------

    Molecular point group: c1
  Charge       = 1
  Multiplicity = 1
  Basis Set: AUG-CC-PVTZ
    Blend: AUG-CC-PVTZ
  Basis Set: (AUG-CC-PVTZ AUX)
    Blend: AUG-CC-PVTZ-JKFIT

    Orbital Energies [Eh]
    ---------------------

    Doubly Occupied:

       1A    -15.869270     2A    -11.467109     3A    -11.467062
       4A    -11.403986     5A    -11.403302     6A     -1.496780
       7A     -1.254475     8A     -1.193087     9A     -1.036046
      10A     -0.999514    11A     -0.962702    12A     -0.902486
      13A     -0.828518    14A     -0.794137    15A     -0.758317
      16A     -0.737028    17A     -0.701258    18A     -0.685961
      19A     -0.672231    20A     -0.659580

  @DF-RHF Final Energy:  -211.60448811334444

   => Energetics <=

    Nuclear Repulsion Energy =            199.2845686164529866
    One-Electron Energy =                -671.1924146844247616
    Two-Electron Energy =                 260.3033579546273018
    Total Energy =                       -211.6044881133444733
  Basis Set: (AUG-CC-PVTZ AUX)
    Blend: AUG-CC-PVTZ-RI
    Molecular point group: c1

    Geometry (in Angstrom), charge = 1, multiplicity = 1:

       Center              X                  Y                   Z               Mass
    ------------   -----------------  -----------------  -----------------  -----------------
         N           -1.232467359354     0.000071467201    -0.000837102075    14.003074004430
         C           -0.332308359354     1.231516467201     0.144887897925    12.000000000000
         C           -0.332259359354    -1.231339532799    -0.146558102075    12.000000000000
         C            1.043942640646     0.720056467201    -0.258003102075    12.000000000000
         C            1.043971640646    -0.719823532799     0.256329897925    12.000000000000
         H           -1.762188259354    -0.099753432799     0.873010297925     1.007825032230
         H           -1.851221359354     0.093043467201    -0.814887102075     1.007825032230
         H           -0.366825359354     1.526837467201     1.194687897925     1.007825032230
         H           -0.735781359354     2.035885467201    -0.471081102075     1.007825032230
         H           -0.366765359354    -1.526666532799    -1.196357102075     1.007825032230
         H           -0.735699359354    -2.035721532799     0.469414897925     1.007825032230
         H            1.833367640646     1.333036467201     0.182171897925     1.007825032230
         H            1.164224640646     0.745273467201    -1.345517102075     1.007825032230
         H            1.833420640646    -1.332772532799    -0.183846102075     1.007825032230
         H            1.164257640646    -0.745035532799     1.343843897925     1.007825032230

  Basis Set: AUG-CC-PVTZ
    Blend: AUG-CC-PVTZ
  Basis Set: (AUG-CC-PVTZ AUX)
    Blend: AUG-CC-PVTZ-JKFIT
	 Reference Energy          =    -211.6044881133444449 [Eh]
	 Singles Energy            =      -0.0000000000000000 [Eh]
	 Same-Spin Energy          =      -0.2176701417119656 [Eh]
	 Opposite-Spin Energy      =      -0.7821200921513831 [Eh]
	 Correlation Energy        =      -0.9997902338633486 [Eh]
	 Total Energy              =    -212.6042783472077815 [Eh]

	 ================> DF-SCS-MP2 Energies <==================
	-----------------------------------------------------------
	 SCS Same-Spin Scale       =       0.3333333333333333 [-]
	 SCS Opposite-Spin Scale   =       1.2000000000000000 [-]
	 SCS Same-Spin Energy      =      -0.0725567139039885 [Eh]
	 SCS Opposite-Spin Energy  =      -0.9385441105816597 [Eh]
	 SCS Correlation Energy    =      -1.0111008244856481 [Eh]
	 SCS Total Energy          =    -212.6155889378300969 [Eh]
	-----------------------------------------------------------

  Dipole Moment: [D]
     X:    -3.1670      Y:    -0.0057      Z:     0.0421     Total:     3.1673

*** Psi4 exiting successfully. Buy a developer a beer!
