                               Psi4 1.3.2 release

  ==> Input File <==

--------------------------------------------------------------------------
#psi4
#
memory 32 gb

molecule  {
1 1
  N       -1.2324810    -0.0000240    -0.0000010
  C       -0.3102390     1.2197129     0.0984385
  C       -0.3322730    -1.2314350    -0.1457220
  C        1.0439290     0.7199610    -0.2571670
  C        1.0439580    -0.7199190     0.2571660
  H       -1.8512360    -0.0930200     0.8140460
  H       -1.8512350     0.0929480    -0.8140510
  H       -0.3668390     1.5267420     1.1955240
  H       -0.7357950     2.0357900    -0.4702450
  H       -0.3667790    -1.5267620    -1.1955210
  H       -0.7357130    -2.0358170     0.4702510
  H        1.8333540     1.3329410     0.1830080
  H        1.1642110     0.7451780    -1.3446810
  H        1.8334070    -1.3328680    -0.1830100
  H        1.1642440    -0.7451310     1.3446800
units angstrom
no_reorient  #important for SAPT in psi4, default
symmetry c1  #important for SAPT in psi4, default
}

set PROPERTIES_ORIGIN ["COM"]
properties('MP2/aug-cc-pvtz', properties = ['dipole'])
--------------------------------------------------------------------------

    Molecular point group: c1
  Charge       = 1
  Multiplicity = 1
  Basis Set: AUG-CC-PVTZ
    Blend: AUG-CC-PVTZ
  Basis Set: (AUG-CC-PVTZ AUX)
    Blend: AUG-CC-PVTZ-JKFIT

    Orbital Energies [Eh]
    ---------------------

    Doubly Occupied:

       1A    -15.869200     2A    -11.469259     3A    -11.467560
       4A    -11.404356     5A    -11.401848     6A     -1.496827
       7A     -1.260182     8A     -1.193937     9A     -1.037875
      10A     -0.997177    11A     -0.955641    12A     -0.907735
      13A     -0.826139    14A     -0.788952    15A     -0.758304
      16A     -0.746389    17A     -0.693007    18A     -0.691874
      19A     -0.674546    20A     -0.655497

  @DF-RHF Final Energy:  -211.60223989563232

   => Energetics <=

    Nuclear Repulsion Energy =            199.5495444154558982
    One-Electron Energy =                -671.7109588142884604
    Two-Electron Energy =                 260.5591745032002109
    Total Energy =                       -211.6022398956323514
  Basis Set: (AUG-CC-PVTZ AUX)
    Blend: AUG-CC-PVTZ-RI
    Molecular point group: c1

    Geometry (in Angstrom), charge = 1, multiplicity = 1:

       Center              X                  Y                   Z               Mass
    ------------   -----------------  -----------------  -----------------  -----------------
         N           -1.234898851934     0.001925135470     0.007871038986    14.003074004430
         C           -0.312656851934     1.221662035470     0.106310538986    12.000000000000
         C           -0.334690851934    -1.229485864530    -0.137849961014    12.000000000000
         C            1.041511148066     0.721910135470    -0.249294961014    12.000000000000
         C            1.041540148066    -0.717969864530     0.265038038986    12.000000000000
         H           -1.853653851934    -0.091070864530     0.821918038986     1.007825032230
         H           -1.853652851934     0.094897135470    -0.806178961014     1.007825032230
         H           -0.369256851934     1.528691135470     1.203396038986     1.007825032230
         H           -0.738212851934     2.037739135470    -0.462372961014     1.007825032230
         H           -0.369196851934    -1.524812864530    -1.187648961014     1.007825032230
         H           -0.738130851934    -2.033867864530     0.478123038986     1.007825032230
         H            1.830936148066     1.334890135470     0.190880038986     1.007825032230
         H            1.161793148066     0.747127135470    -1.336808961014     1.007825032230
         H            1.830989148066    -1.330918864530    -0.175137961014     1.007825032230
         H            1.161826148066    -0.743181864530     1.352552038986     1.007825032230

  Basis Set: AUG-CC-PVTZ
    Blend: AUG-CC-PVTZ
  Basis Set: (AUG-CC-PVTZ AUX)
    Blend: AUG-CC-PVTZ-JKFIT
	 Reference Energy          =    -211.6022398956323229 [Eh]
	 Singles Energy            =      -0.0000000000000000 [Eh]
	 Same-Spin Energy          =      -0.2178959013991796 [Eh]
	 Opposite-Spin Energy      =      -0.7823138954710902 [Eh]
	 Correlation Energy        =      -1.0002097968702699 [Eh]
	 Total Energy              =    -212.6024496925026028 [Eh]

	 ================> DF-SCS-MP2 Energies <==================
	-----------------------------------------------------------
	 SCS Same-Spin Scale       =       0.3333333333333333 [-]
	 SCS Opposite-Spin Scale   =       1.2000000000000000 [-]
	 SCS Same-Spin Energy      =      -0.0726319671330599 [Eh]
	 SCS Opposite-Spin Energy  =      -0.9387766745653082 [Eh]
	 SCS Correlation Energy    =      -1.0114086416983681 [Eh]
	 SCS Total Energy          =    -212.6136485373307039 [Eh]
	-----------------------------------------------------------

  Dipole Moment: [D]
     X:    -3.2465      Y:    -0.0035      Z:     0.0036     Total:     3.2465

*** Psi4 exiting successfully. Buy a developer a beer!
