                               Psi4 1.3.2 release

  ==> Input File <==

--------------------------------------------------------------------------
#psi4
#
memory 32 gb

molecule  {
1 1
  N       -1.3537002     0.0933362     0.0481107
  C       -0.3323220     1.2314210     0.1457240
  C       -0.3322730    -1.2314350    -0.1457220
  C        1.0439290     0.7199610    -0.2571670
  C        1.0439580    -0.7199190     0.2571660
  H       -1.8512360    -0.0930200     0.8140460
  H       -1.8512350     0.0929480    -0.8140510
  H       -0.3668390     1.5267420     1.1955240
  H       -0.7357950     2.0357900    -0.4702450
  H       -0.3667790    -1.5267620    -1.1955210
  H       -0.7357130    -2.0358170     0.4702510
  H        1.8333540     1.3329410     0.1830080
  H        1.1642110     0.7451780    -1.3446810
  H        1.8334070    -1.3328680    -0.1830100
  H        1.1642440    -0.7451310     1.3446800
units angstrom
no_reorient  #important for SAPT in psi4, default
symmetry c1  #important for SAPT in psi4, default
}

set PROPERTIES_ORIGIN ["COM"]
properties('MP2/aug-cc-pvtz', properties = ['dipole'])
--------------------------------------------------------------------------

    Molecular point group: c1
  Charge       = 1
  Multiplicity = 1
  Basis Set: AUG-CC-PVTZ
    Blend: AUG-CC-PVTZ
  Basis Set: (AUG-CC-PVTZ AUX)
    Blend: AUG-CC-PVTZ-JKFIT

    Orbital Energies [Eh]
    ---------------------

    Doubly Occupied:

       1A    -15.852702     2A    -11.483041     3A    -11.465822
       4A    -11.408632     5A    -11.406423     6A     -1.484832
       7A     -1.264303     8A     -1.183467     9A     -1.048429
      10A     -0.999537    11A     -0.975218    12A     -0.883441
      13A     -0.833705    14A     -0.793893    15A     -0.763767
      16A     -0.720760    17A     -0.707082    18A     -0.687079
      19A     -0.673477    20A     -0.661189

  @DF-RHF Final Energy:  -211.58518500715053

   => Energetics <=

    Nuclear Repulsion Energy =            197.1966662760366944
    One-Electron Energy =                -666.9701070232688380
    Two-Electron Energy =                 258.1882557400816154
    Total Energy =                       -211.5851850071505282
  Basis Set: (AUG-CC-PVTZ AUX)
    Blend: AUG-CC-PVTZ-RI
    Molecular point group: c1

    Geometry (in Angstrom), charge = 1, multiplicity = 1:

       Center              X                  Y                   Z               Mass
    ------------   -----------------  -----------------  -----------------  -----------------
         N           -1.328892727668     0.075199314532     0.038764163895    14.003074004430
         C           -0.307514527668     1.213284114532     0.136377463895    12.000000000000
         C           -0.307465527668    -1.249571885468    -0.155068536105    12.000000000000
         C            1.068736472332     0.701824114532    -0.266513536105    12.000000000000
         C            1.068765472332    -0.738055885468     0.247819463895    12.000000000000
         H           -1.826428527668    -0.111156885468     0.804699463895     1.007825032230
         H           -1.826427527668     0.074811114532    -0.823397536105     1.007825032230
         H           -0.342031527668     1.508605114532     1.186177463895     1.007825032230
         H           -0.710987527668     2.017653114532    -0.479591536105     1.007825032230
         H           -0.341971527668    -1.544898885468    -1.204867536105     1.007825032230
         H           -0.710905527668    -2.053953885468     0.460904463895     1.007825032230
         H            1.858161472332     1.314804114532     0.173661463895     1.007825032230
         H            1.189018472332     0.727041114532    -1.354027536105     1.007825032230
         H            1.858214472332    -1.351004885468    -0.192356536105     1.007825032230
         H            1.189051472332    -0.763267885468     1.335333463895     1.007825032230

  Basis Set: AUG-CC-PVTZ
    Blend: AUG-CC-PVTZ
  Basis Set: (AUG-CC-PVTZ AUX)
    Blend: AUG-CC-PVTZ-JKFIT
	 Reference Energy          =    -211.5851850071505282 [Eh]
	 Singles Energy            =      -0.0000000000000000 [Eh]
	 Same-Spin Energy          =      -0.2168340235313689 [Eh]
	 Opposite-Spin Energy      =      -0.7816348813678383 [Eh]
	 Correlation Energy        =      -0.9984689048992073 [Eh]
	 Total Energy              =    -212.5836539120497264 [Eh]

	 ================> DF-SCS-MP2 Energies <==================
	-----------------------------------------------------------
	 SCS Same-Spin Scale       =       0.3333333333333333 [-]
	 SCS Opposite-Spin Scale   =       1.2000000000000000 [-]
	 SCS Same-Spin Energy      =      -0.0722780078437896 [Eh]
	 SCS Opposite-Spin Energy  =      -0.9379618576414059 [Eh]
	 SCS Correlation Energy    =      -1.0102398654851956 [Eh]
	 SCS Total Energy          =    -212.5954248726357321 [Eh]
	-----------------------------------------------------------

  Dipole Moment: [D]
     X:    -2.8652      Y:    -0.2689      Z:    -0.0892     Total:     2.8792

*** Psi4 exiting successfully. Buy a developer a beer!
