                               Psi4 1.3.2 release

  ==> Input File <==

--------------------------------------------------------------------------
#psi4
#
memory 32 gb

molecule  {
1 1
  N       -1.2324810    -0.0000240    -0.0000010
  C       -0.3761470     1.2618683     0.1493270
  C       -0.3322730    -1.2314350    -0.1457220
  C        1.0439290     0.7199610    -0.2571670
  C        1.0439580    -0.7199190     0.2571660
  H       -1.8512360    -0.0930200     0.8140460
  H       -1.8512350     0.0929480    -0.8140510
  H       -0.3668390     1.5267420     1.1955240
  H       -0.7357950     2.0357900    -0.4702450
  H       -0.3667790    -1.5267620    -1.1955210
  H       -0.7357130    -2.0358170     0.4702510
  H        1.8333540     1.3329410     0.1830080
  H        1.1642110     0.7451780    -1.3446810
  H        1.8334070    -1.3328680    -0.1830100
  H        1.1642440    -0.7451310     1.3446800
units angstrom
no_reorient  #important for SAPT in psi4, default
symmetry c1  #important for SAPT in psi4, default
}

set PROPERTIES_ORIGIN ["COM"]
properties('MP2/aug-cc-pvtz', properties = ['dipole'])
--------------------------------------------------------------------------

    Molecular point group: c1
  Charge       = 1
  Multiplicity = 1
  Basis Set: AUG-CC-PVTZ
    Blend: AUG-CC-PVTZ
  Basis Set: (AUG-CC-PVTZ AUX)
    Blend: AUG-CC-PVTZ-JKFIT

    Orbital Energies [Eh]
    ---------------------

    Doubly Occupied:

       1A    -15.869706     2A    -11.467634     3A    -11.465421
       4A    -11.406011     5A    -11.403274     6A     -1.495252
       7A     -1.250155     8A     -1.191773     9A     -1.041171
      10A     -0.995447    11A     -0.955343    12A     -0.905737
      13A     -0.825458    14A     -0.798079    15A     -0.764779
      16A     -0.734570    17A     -0.704906    18A     -0.679250
      19A     -0.669355    20A     -0.659273

  @DF-RHF Final Energy:  -211.60347382922293

   => Energetics <=

    Nuclear Repulsion Energy =            198.5567340409836845
    One-Electron Energy =                -669.7552271555196057
    Two-Electron Energy =                 259.5950192853130147
    Total Energy =                       -211.6034738292229349
  Basis Set: (AUG-CC-PVTZ AUX)
    Blend: AUG-CC-PVTZ-RI
    Molecular point group: c1

    Geometry (in Angstrom), charge = 1, multiplicity = 1:

       Center              X                  Y                   Z               Mass
    ------------   -----------------  -----------------  -----------------  -----------------
         N           -1.223926578500    -0.005092837698    -0.000600808690    14.003074004430
         C           -0.367592578500     1.256799462302     0.148727191310    12.000000000000
         C           -0.323718578500    -1.236503837698    -0.146321808690    12.000000000000
         C            1.052483421500     0.714892162302    -0.257766808690    12.000000000000
         C            1.052512421500    -0.724987837698     0.256566191310    12.000000000000
         H           -1.842681578500    -0.098088837698     0.813446191310     1.007825032230
         H           -1.842680578500     0.087879162302    -0.814650808690     1.007825032230
         H           -0.358284578500     1.521673162302     1.194924191310     1.007825032230
         H           -0.727240578500     2.030721162302    -0.470844808690     1.007825032230
         H           -0.358224578500    -1.531830837698    -1.196120808690     1.007825032230
         H           -0.727158578500    -2.040885837698     0.469651191310     1.007825032230
         H            1.841908421500     1.327872162302     0.182408191310     1.007825032230
         H            1.172765421500     0.740109162302    -1.345280808690     1.007825032230
         H            1.841961421500    -1.337936837698    -0.183609808690     1.007825032230
         H            1.172798421500    -0.750199837698     1.344080191310     1.007825032230

  Basis Set: AUG-CC-PVTZ
    Blend: AUG-CC-PVTZ
  Basis Set: (AUG-CC-PVTZ AUX)
    Blend: AUG-CC-PVTZ-JKFIT
	 Reference Energy          =    -211.6034738292229349 [Eh]
	 Singles Energy            =      -0.0000000000000000 [Eh]
	 Same-Spin Energy          =      -0.2172322891617669 [Eh]
	 Opposite-Spin Energy      =      -0.7817835147129202 [Eh]
	 Correlation Energy        =      -0.9990158038746870 [Eh]
	 Total Energy              =    -212.6024896330976333 [Eh]

	 ================> DF-SCS-MP2 Energies <==================
	-----------------------------------------------------------
	 SCS Same-Spin Scale       =       0.3333333333333333 [-]
	 SCS Opposite-Spin Scale   =       1.2000000000000000 [-]
	 SCS Same-Spin Energy      =      -0.0724107630539223 [Eh]
	 SCS Opposite-Spin Energy  =      -0.9381402176555041 [Eh]
	 SCS Correlation Energy    =      -1.0105509807094264 [Eh]
	 SCS Total Energy          =    -212.6140248099323742 [Eh]
	-----------------------------------------------------------

  Dipole Moment: [D]
     X:    -3.2419      Y:    -0.0230      Z:    -0.0064     Total:     3.2420

*** Psi4 exiting successfully. Buy a developer a beer!
