                               Psi4 1.3.2 release

  ==> Input File <==

--------------------------------------------------------------------------
#psi4
#
memory 32 gb

molecule  {
1 1
  N       -1.2324810    -0.0000240    -0.0000010
  C       -0.3323220     1.2314210     0.1457240
  C       -0.3322730    -1.2314350    -0.1457220
  C        1.0439290     0.7199610    -0.2571670
  C        1.0439580    -0.7199190     0.2571660
  H       -1.9717650    -0.1111350     0.9726165
  H       -1.8512350     0.0929480    -0.8140510
  H       -0.3668390     1.5267420     1.1955240
  H       -0.7357950     2.0357900    -0.4702450
  H       -0.3667790    -1.5267620    -1.1955210
  H       -0.7357130    -2.0358170     0.4702510
  H        1.8333540     1.3329410     0.1830080
  H        1.1642110     0.7451780    -1.3446810
  H        1.8334070    -1.3328680    -0.1830100
  H        1.1642440    -0.7451310     1.3446800
units angstrom
no_reorient  #important for SAPT in psi4, default
symmetry c1  #important for SAPT in psi4, default
}

set PROPERTIES_ORIGIN ["COM"]
properties('MP2/aug-cc-pvtz', properties = ['dipole'])
--------------------------------------------------------------------------

    Molecular point group: c1
  Charge       = 1
  Multiplicity = 1
  Basis Set: AUG-CC-PVTZ
    Blend: AUG-CC-PVTZ
  Basis Set: (AUG-CC-PVTZ AUX)
    Blend: AUG-CC-PVTZ-JKFIT

    Orbital Energies [Eh]
    ---------------------

    Doubly Occupied:

       1A    -15.880023     2A    -11.465106     3A    -11.465001
       4A    -11.402327     5A    -11.401710     6A     -1.475585
       7A     -1.246337     8A     -1.190047     9A     -1.029834
      10A     -0.992012    11A     -0.927243    12A     -0.893644
      13A     -0.817226    14A     -0.791074    15A     -0.753615
      16A     -0.733612    17A     -0.692681    18A     -0.683812
      19A     -0.670111    20A     -0.657562

  @DF-RHF Final Energy:  -211.57759227000449

   => Energetics <=

    Nuclear Repulsion Energy =            198.2040769577014316
    One-Electron Energy =                -669.2262130824231008
    Two-Electron Energy =                 259.4445438547171534
    Total Energy =                       -211.5775922700045157
  Basis Set: (AUG-CC-PVTZ AUX)
    Blend: AUG-CC-PVTZ-RI
    Molecular point group: c1

    Geometry (in Angstrom), charge = 1, multiplicity = 1:

       Center              X                  Y                   Z               Mass
    ------------   -----------------  -----------------  -----------------  -----------------
         N           -1.229537294736     0.000229266940    -0.002218083628    14.003074004430
         C           -0.329378294736     1.231674266940     0.143506916372    12.000000000000
         C           -0.329329294736    -1.231181733060    -0.147939083628    12.000000000000
         C            1.046872705264     0.720214266940    -0.259384083628    12.000000000000
         C            1.046901705264    -0.719665733060     0.254948916372    12.000000000000
         H           -1.968821294736    -0.110881733060     0.970399416372     1.007825032230
         H           -1.848291294736     0.093201266940    -0.816268083628     1.007825032230
         H           -0.363895294736     1.526995266940     1.193306916372     1.007825032230
         H           -0.732851294736     2.036043266940    -0.472462083628     1.007825032230
         H           -0.363835294736    -1.526508733060    -1.197738083628     1.007825032230
         H           -0.732769294736    -2.035563733060     0.468033916372     1.007825032230
         H            1.836297705264     1.333194266940     0.180790916372     1.007825032230
         H            1.167154705264     0.745431266940    -1.346898083628     1.007825032230
         H            1.836350705264    -1.332614733060    -0.185227083628     1.007825032230
         H            1.167187705264    -0.744877733060     1.342462916372     1.007825032230

  Basis Set: AUG-CC-PVTZ
    Blend: AUG-CC-PVTZ
  Basis Set: (AUG-CC-PVTZ AUX)
    Blend: AUG-CC-PVTZ-JKFIT
	 Reference Energy          =    -211.5775922700044873 [Eh]
	 Singles Energy            =      -0.0000000000000000 [Eh]
	 Same-Spin Energy          =      -0.2188726854716151 [Eh]
	 Opposite-Spin Energy      =      -0.7861951486798271 [Eh]
	 Correlation Energy        =      -1.0050678341514421 [Eh]
	 Total Energy              =    -212.5826601041559343 [Eh]

	 ================> DF-SCS-MP2 Energies <==================
	-----------------------------------------------------------
	 SCS Same-Spin Scale       =       0.3333333333333333 [-]
	 SCS Opposite-Spin Scale   =       1.2000000000000000 [-]
	 SCS Same-Spin Energy      =      -0.0729575618238717 [Eh]
	 SCS Opposite-Spin Energy  =      -0.9434341784157925 [Eh]
	 SCS Correlation Energy    =      -1.0163917402396643 [Eh]
	 SCS Total Energy          =    -212.5939840102441565 [Eh]
	-----------------------------------------------------------

  Dipole Moment: [D]
     X:    -3.4208      Y:    -0.0243      Z:     0.2087     Total:     3.4273

*** Psi4 exiting successfully. Buy a developer a beer!
