                               Psi4 1.3.2 release

  ==> Input File <==

--------------------------------------------------------------------------
#psi4
#
memory 32 gb

molecule  {
1 1
  N       -1.2534064     0.0146249     0.0079208
  C       -0.3323220     1.2314210     0.1457240
  C       -0.3322730    -1.2314350    -0.1457220
  C        1.0439290     0.7199610    -0.2571670
  C        1.0439580    -0.7199190     0.2571660
  H       -1.8512360    -0.0930200     0.8140460
  H       -1.8512350     0.0929480    -0.8140510
  H       -0.3668390     1.5267420     1.1955240
  H       -0.7357950     2.0357900    -0.4702450
  H       -0.3667790    -1.5267620    -1.1955210
  H       -0.7357130    -2.0358170     0.4702510
  H        1.8333540     1.3329410     0.1830080
  H        1.1642110     0.7451780    -1.3446810
  H        1.8334070    -1.3328680    -0.1830100
  H        1.1642440    -0.7451310     1.3446800
units angstrom
no_reorient  #important for SAPT in psi4, default
symmetry c1  #important for SAPT in psi4, default
}

set PROPERTIES_ORIGIN ["COM"]
properties('MP2/aug-cc-pvtz', properties = ['dipole'])
--------------------------------------------------------------------------

    Molecular point group: c1
  Charge       = 1
  Multiplicity = 1
  Basis Set: AUG-CC-PVTZ
    Blend: AUG-CC-PVTZ
  Basis Set: (AUG-CC-PVTZ AUX)
    Blend: AUG-CC-PVTZ-JKFIT

    Orbital Energies [Eh]
    ---------------------

    Doubly Occupied:

       1A    -15.866622     2A    -11.469818     3A    -11.467000
       4A    -11.404486     5A    -11.403814     6A     -1.493854
       7A     -1.257312     8A     -1.190619     9A     -1.040600
      10A     -0.997126    11A     -0.958378    12A     -0.902472
      13A     -0.828333    14A     -0.793587    15A     -0.755354
      16A     -0.741296    17A     -0.702110    18A     -0.686181
      19A     -0.672373    20A     -0.659470

  @DF-RHF Final Energy:  -211.60584075935742

   => Energetics <=

    Nuclear Repulsion Energy =            198.8282072949668020
    One-Electron Energy =                -670.2864851616022861
    Two-Electron Energy =                 259.8524371072780923
    Total Energy =                       -211.6058407593574202
  Basis Set: (AUG-CC-PVTZ AUX)
    Blend: AUG-CC-PVTZ-RI
    Molecular point group: c1

    Geometry (in Angstrom), charge = 1, multiplicity = 1:

       Center              X                  Y                   Z               Mass
    ------------   -----------------  -----------------  -----------------  -----------------
         N           -1.248082774790     0.011779078745     0.006381863841    14.003074004430
         C           -0.326998374790     1.228575178745     0.144185063841    12.000000000000
         C           -0.326949374790    -1.234280821255    -0.147260936159    12.000000000000
         C            1.049252625210     0.717115178745    -0.258705936159    12.000000000000
         C            1.049281625210    -0.722764821255     0.255627063841    12.000000000000
         H           -1.845912374790    -0.095865821255     0.812507063841     1.007825032230
         H           -1.845911374790     0.090102178745    -0.815589936159     1.007825032230
         H           -0.361515374790     1.523896178745     1.193985063841     1.007825032230
         H           -0.730471374790     2.032944178745    -0.471783936159     1.007825032230
         H           -0.361455374790    -1.529607821255    -1.197059936159     1.007825032230
         H           -0.730389374790    -2.038662821255     0.468712063841     1.007825032230
         H            1.838677625210     1.330095178745     0.181469063841     1.007825032230
         H            1.169534625210     0.742332178745    -1.346219936159     1.007825032230
         H            1.838730625210    -1.335713821255    -0.184548936159     1.007825032230
         H            1.169567625210    -0.747976821255     1.343141063841     1.007825032230

  Basis Set: AUG-CC-PVTZ
    Blend: AUG-CC-PVTZ
  Basis Set: (AUG-CC-PVTZ AUX)
    Blend: AUG-CC-PVTZ-JKFIT
	 Reference Energy          =    -211.6058407593574202 [Eh]
	 Singles Energy            =      -0.0000000000000000 [Eh]
	 Same-Spin Energy          =      -0.2172834997413490 [Eh]
	 Opposite-Spin Energy      =      -0.7815864598866993 [Eh]
	 Correlation Energy        =      -0.9988699596280483 [Eh]
	 Total Energy              =    -212.6047107189854728 [Eh]

	 ================> DF-SCS-MP2 Energies <==================
	-----------------------------------------------------------
	 SCS Same-Spin Scale       =       0.3333333333333333 [-]
	 SCS Opposite-Spin Scale   =       1.2000000000000000 [-]
	 SCS Same-Spin Energy      =      -0.0724278332471163 [Eh]
	 SCS Opposite-Spin Energy  =      -0.9379037518640391 [Eh]
	 SCS Correlation Energy    =      -1.0103315851111554 [Eh]
	 SCS Total Energy          =    -212.6161723444685663 [Eh]
	-----------------------------------------------------------

  Dipole Moment: [D]
     X:    -3.1879      Y:    -0.0402      Z:    -0.0134     Total:     3.1882

*** Psi4 exiting successfully. Buy a developer a beer!
