                               Psi4 1.3.2 release

  ==> Input File <==

--------------------------------------------------------------------------
#psi4
#
memory 32 gb

molecule  {
1 1
  N       -1.2324810    -0.0000240    -0.0000010
  C       -0.3323220     1.2314210     0.1457240
  C       -0.3322730    -1.2314350    -0.1457220
  C        1.0439290     0.7199610    -0.2571670
  C        1.0439580    -0.7199190     0.2571660
  H       -1.8512360    -0.0930200     0.8140460
  H       -1.8512350     0.0929480    -0.8140510
  H       -0.3668390     1.5267420     1.1955240
  H       -0.7357950     2.0357900    -0.4702450
  H       -0.3667790    -1.5267620    -1.1955210
  H       -0.7357130    -2.0358170     0.4702510
  H        1.8333540     1.3329410     0.1830080
  H        1.1642110     0.7451780    -1.3446810
  H        1.8334070    -1.3328680    -0.1830100
  H        1.1642440    -0.7451310     1.3446800
units angstrom
no_reorient  #important for SAPT in psi4, default
symmetry c1  #important for SAPT in psi4, default
}

set PROPERTIES_ORIGIN ["COM"]
properties('MP2/aug-cc-pvtz', properties = ['dipole'])
--------------------------------------------------------------------------

    Molecular point group: c1
  Charge       = 1
  Multiplicity = 1
  Basis Set: AUG-CC-PVTZ
    Blend: AUG-CC-PVTZ
  Basis Set: (AUG-CC-PVTZ AUX)
    Blend: AUG-CC-PVTZ-JKFIT

    Orbital Energies [Eh]
    ---------------------

    Doubly Occupied:

       1A    -15.869214     2A    -11.467293     3A    -11.467279
       4A    -11.403870     5A    -11.403254     6A     -1.496090
       7A     -1.255737     8A     -1.192679     9A     -1.039015
      10A     -0.997252    11A     -0.954464    12A     -0.906039
      13A     -0.827145    14A     -0.793588    15A     -0.757967
      16A     -0.740608    17A     -0.700447    18A     -0.685856
      19A     -0.672093    20A     -0.659196

  @DF-RHF Final Energy:  -211.60584082739285

   => Energetics <=

    Nuclear Repulsion Energy =            199.1742375460986807
    One-Electron Energy =                -670.9819840102031776
    Two-Electron Energy =                 260.2019056367116718
    Total Energy =                       -211.6058408273928535
  Basis Set: (AUG-CC-PVTZ AUX)
    Blend: AUG-CC-PVTZ-RI
    Molecular point group: c1

    Geometry (in Angstrom), charge = 1, multiplicity = 1:

       Center              X                  Y                   Z               Mass
    ------------   -----------------  -----------------  -----------------  -----------------
         N           -1.231222504385    -0.000024012958    -0.000000986193    14.003074004430
         C           -0.331063504385     1.231420987042     0.145724013807    12.000000000000
         C           -0.331014504385    -1.231435012958    -0.145721986193    12.000000000000
         C            1.045187495615     0.719960987042    -0.257166986193    12.000000000000
         C            1.045216495615    -0.719919012958     0.257166013807    12.000000000000
         H           -1.849977504385    -0.093020012958     0.814046013807     1.007825032230
         H           -1.849976504385     0.092947987042    -0.814050986193     1.007825032230
         H           -0.365580504385     1.526741987042     1.195524013807     1.007825032230
         H           -0.734536504385     2.035789987042    -0.470244986193     1.007825032230
         H           -0.365520504385    -1.526762012958    -1.195520986193     1.007825032230
         H           -0.734454504385    -2.035817012958     0.470251013807     1.007825032230
         H            1.834612495615     1.332940987042     0.183008013807     1.007825032230
         H            1.165469495615     0.745177987042    -1.344680986193     1.007825032230
         H            1.834665495615    -1.332868012958    -0.183009986193     1.007825032230
         H            1.165502495615    -0.745131012958     1.344680013807     1.007825032230

  Basis Set: AUG-CC-PVTZ
    Blend: AUG-CC-PVTZ
  Basis Set: (AUG-CC-PVTZ AUX)
    Blend: AUG-CC-PVTZ-JKFIT
	 Reference Energy          =    -211.6058408273928535 [Eh]
	 Singles Energy            =      -0.0000000000000000 [Eh]
	 Same-Spin Energy          =      -0.2175448601813648 [Eh]
	 Opposite-Spin Energy      =      -0.7819005361481943 [Eh]
	 Correlation Energy        =      -0.9994453963295591 [Eh]
	 Total Energy              =    -212.6052862237224019 [Eh]

	 ================> DF-SCS-MP2 Energies <==================
	-----------------------------------------------------------
	 SCS Same-Spin Scale       =       0.3333333333333333 [-]
	 SCS Opposite-Spin Scale   =       1.2000000000000000 [-]
	 SCS Same-Spin Energy      =      -0.0725149533937882 [Eh]
	 SCS Opposite-Spin Energy  =      -0.9382806433778331 [Eh]
	 SCS Correlation Energy    =      -1.0107955967716213 [Eh]
	 SCS Total Energy          =    -212.6166364241644828 [Eh]
	-----------------------------------------------------------

  Dipole Moment: [D]
     X:    -3.2471      Y:    -0.0001      Z:    -0.0000     Total:     3.2471

*** Psi4 exiting successfully. Buy a developer a beer!
