                               Psi4 1.3.2 release

  ==> Input File <==

--------------------------------------------------------------------------
#psi4
#
memory 32 gb

molecule  {
1 1
  N       -1.2324810    -0.0000240    -0.0000010
  C       -0.3323220     1.2314210     0.1457240
  C       -0.3322730    -1.2314350    -0.1457220
  C        1.0439290     0.7199610    -0.2571670
  C        1.0439580    -0.7199190     0.2571660
  H       -1.7909715    -0.0839625     0.7347608
  H       -1.8512350     0.0929480    -0.8140510
  H       -0.3668390     1.5267420     1.1955240
  H       -0.7357950     2.0357900    -0.4702450
  H       -0.3667790    -1.5267620    -1.1955210
  H       -0.7357130    -2.0358170     0.4702510
  H        1.8333540     1.3329410     0.1830080
  H        1.1642110     0.7451780    -1.3446810
  H        1.8334070    -1.3328680    -0.1830100
  H        1.1642440    -0.7451310     1.3446800
units angstrom
no_reorient  #important for SAPT in psi4, default
symmetry c1  #important for SAPT in psi4, default
}

set PROPERTIES_ORIGIN ["COM"]
properties('MP2/aug-cc-pvtz', properties = ['dipole'])
--------------------------------------------------------------------------

    Molecular point group: c1
  Charge       = 1
  Multiplicity = 1
  Basis Set: AUG-CC-PVTZ
    Blend: AUG-CC-PVTZ
  Basis Set: (AUG-CC-PVTZ AUX)
    Blend: AUG-CC-PVTZ-JKFIT

    Orbital Energies [Eh]
    ---------------------

    Doubly Occupied:

       1A    -15.861341     2A    -11.468463     3A    -11.468419
       4A    -11.404640     5A    -11.404023     6A     -1.512073
       7A     -1.262308     8A     -1.193994     9A     -1.047638
      10A     -1.001685    11A     -0.969247    12A     -0.909583
      13A     -0.831063    14A     -0.794724    15A     -0.760381
      16A     -0.743521    17A     -0.703370    18A     -0.686830
      19A     -0.673011    20A     -0.659978

  @DF-RHF Final Energy:  -211.60029789063685

   => Energetics <=

    Nuclear Repulsion Energy =            199.7648611777428584
    One-Electron Energy =                -672.0177358485226478
    Two-Electron Energy =                 260.6525767801429083
    Total Energy =                       -211.6002978906368526
  Basis Set: (AUG-CC-PVTZ AUX)
    Blend: AUG-CC-PVTZ-RI
    Molecular point group: c1

    Geometry (in Angstrom), charge = 1, multiplicity = 1:

       Center              X                  Y                   Z               Mass
    ------------   -----------------  -----------------  -----------------  -----------------
         N           -1.232065109210    -0.000150652907     0.001107561826    14.003074004430
         C           -0.331906109210     1.231294347093     0.146832561826    12.000000000000
         C           -0.331857109210    -1.231561652907    -0.144613438174    12.000000000000
         C            1.044344890790     0.719834347093    -0.256058438174    12.000000000000
         C            1.044373890790    -0.720045652907     0.258274561826    12.000000000000
         H           -1.790555609210    -0.084089152907     0.735869361826     1.007825032230
         H           -1.850819109210     0.092821347093    -0.812942438174     1.007825032230
         H           -0.366423109210     1.526615347093     1.196632561826     1.007825032230
         H           -0.735379109210     2.035663347093    -0.469136438174     1.007825032230
         H           -0.366363109210    -1.526888652907    -1.194412438174     1.007825032230
         H           -0.735297109210    -2.035943652907     0.471359561826     1.007825032230
         H            1.833769890790     1.332814347093     0.184116561826     1.007825032230
         H            1.164626890790     0.745051347093    -1.343572438174     1.007825032230
         H            1.833822890790    -1.332994652907    -0.181901438174     1.007825032230
         H            1.164659890790    -0.745257652907     1.345788561826     1.007825032230

  Basis Set: AUG-CC-PVTZ
    Blend: AUG-CC-PVTZ
  Basis Set: (AUG-CC-PVTZ AUX)
    Blend: AUG-CC-PVTZ-JKFIT
	 Reference Energy          =    -211.6002978906368526 [Eh]
	 Singles Energy            =      -0.0000000000000000 [Eh]
	 Same-Spin Energy          =      -0.2169461988880034 [Eh]
	 Opposite-Spin Energy      =      -0.7801115638766416 [Eh]
	 Correlation Energy        =      -0.9970577627646451 [Eh]
	 Total Energy              =    -212.5973556534015074 [Eh]

	 ================> DF-SCS-MP2 Energies <==================
	-----------------------------------------------------------
	 SCS Same-Spin Scale       =       0.3333333333333333 [-]
	 SCS Opposite-Spin Scale   =       1.2000000000000000 [-]
	 SCS Same-Spin Energy      =      -0.0723153996293345 [Eh]
	 SCS Opposite-Spin Energy  =      -0.9361338766519699 [Eh]
	 SCS Correlation Energy    =      -1.0084492762813044 [Eh]
	 SCS Total Energy          =    -212.6087471669181639 [Eh]
	-----------------------------------------------------------

  Dipole Moment: [D]
     X:    -3.1608      Y:     0.0110      Z:    -0.0975     Total:     3.1624

*** Psi4 exiting successfully. Buy a developer a beer!
