                               Psi4 1.4a3.dev225

  ==> Input File <==

--------------------------------------------------------------------------
#psi4
#
memory 32 gb

molecule  {
1 1
  N       -1.2324810    -0.0000240    -0.0000010
  C       -0.3323220     1.2314210     0.1457240
  C       -0.3322730    -1.2314350    -0.1457220
  C        1.0439290     0.7199610    -0.2571670
  C        1.0439580    -0.7199190     0.2571660
  H       -1.8391831    -0.0912085     0.7981890
  H       -1.8512350     0.0929480    -0.8140510
  H       -0.3668390     1.5267420     1.1955240
  H       -0.7357950     2.0357900    -0.4702450
  H       -0.3667790    -1.5267620    -1.1955210
  H       -0.7357130    -2.0358170     0.4702510
  H        1.8333540     1.3329410     0.1830080
  H        1.1642110     0.7451780    -1.3446810
  H        1.8334070    -1.3328680    -0.1830100
  H        1.1642440    -0.7451310     1.3446800
units angstrom
no_reorient  #important for SAPT in psi4, default
symmetry c1  #important for SAPT in psi4, default
}

set PROPERTIES_ORIGIN ["COM"]
properties('MP2/aug-cc-pvtz', properties = ['dipole'])
--------------------------------------------------------------------------

    Molecular point group: c1
  Charge       = 1
  Multiplicity = 1
  Basis Set: AUG-CC-PVTZ
    Blend: AUG-CC-PVTZ
  Basis Set: (AUG-CC-PVTZ AUX)
    Blend: AUG-CC-PVTZ-JKFIT

    Orbital Energies [Eh]
    ---------------------

    Doubly Occupied:

       1A    -15.867766     2A    -11.467523     3A    -11.467506
       4A    -11.404025     5A    -11.403408     6A     -1.498901
       7A     -1.256937     8A     -1.192943     9A     -1.040431
      10A     -0.998008    11A     -0.957615    12A     -0.906839
      13A     -0.827980    14A     -0.793822    15A     -0.758437
      16A     -0.741220    17A     -0.701072    18A     -0.686053
      19A     -0.672279    20A     -0.659354

  @DF-RHF Final Energy:  -211.60630214372242

   => Energetics <=

    Nuclear Repulsion Energy =            199.2856379687294179
    One-Electron Energy =                -671.1796423920812913
    Two-Electron Energy =                 260.2877022796294568
    Total Energy =                       -211.6063021437224165
  Basis Set: (AUG-CC-PVTZ AUX)
    Blend: AUG-CC-PVTZ-RI
    Molecular point group: c1

    Geometry (in Angstrom), charge = 1, multiplicity = 1:

       Center              X                  Y                   Z               Mass
    ------------   -----------------  -----------------  -----------------  -----------------
         N           -1.231391025350    -0.000049340948     0.000220722852    14.003074004430
         C           -0.331232025350     1.231395659052     0.145945722852    12.000000000000
         C           -0.331183025350    -1.231460340948    -0.145500277148    12.000000000000
         C            1.045018974650     0.719935659052    -0.256945277148    12.000000000000
         C            1.045047974650    -0.719944340948     0.257387722852    12.000000000000
         H           -1.838093125350    -0.091233840948     0.798410722852     1.007825032230
         H           -1.850145025350     0.092922659052    -0.813829277148     1.007825032230
         H           -0.365749025350     1.526716659052     1.195745722852     1.007825032230
         H           -0.734705025350     2.035764659052    -0.470023277148     1.007825032230
         H           -0.365689025350    -1.526787340948    -1.195299277148     1.007825032230
         H           -0.734623025350    -2.035842340948     0.470472722852     1.007825032230
         H            1.834443974650     1.332915659052     0.183229722852     1.007825032230
         H            1.165300974650     0.745152659052    -1.344459277148     1.007825032230
         H            1.834496974650    -1.332893340948    -0.182788277148     1.007825032230
         H            1.165333974650    -0.745156340948     1.344901722852     1.007825032230

  Basis Set: AUG-CC-PVTZ
    Blend: AUG-CC-PVTZ
  Basis Set: (AUG-CC-PVTZ AUX)
    Blend: AUG-CC-PVTZ-JKFIT
	 Reference Energy          =    -211.6063021437224165 [Eh]
	 Singles Energy            =      -0.0000000000000000 [Eh]
	 Same-Spin Energy          =      -0.2174192486038962 [Eh]
	 Opposite-Spin Energy      =      -0.7815170040886915 [Eh]
	 Correlation Energy        =      -0.9989362526925877 [Eh]
	 Total Energy              =    -212.6052383964150181 [Eh]

	 ================> DF-SCS-MP2 Energies <==================
	-----------------------------------------------------------
	 SCS Same-Spin Scale       =       0.3333333333333333 [-]
	 SCS Opposite-Spin Scale   =       1.2000000000000000 [-]
	 SCS Same-Spin Energy      =      -0.0724730828679654 [Eh]
	 SCS Opposite-Spin Energy  =      -0.9378204049064298 [Eh]
	 SCS Correlation Energy    =      -1.0102934877743952 [Eh]
	 SCS Total Energy          =    -212.6165956314968071 [Eh]
	-----------------------------------------------------------

  Dipole Moment: [D]
     X:    -3.2297      Y:     0.0022      Z:    -0.0199     Total:     3.2298

*** Psi4 exiting successfully. Buy a developer a beer!
