                               Psi4 1.3.2 release

  ==> Input File <==

--------------------------------------------------------------------------
#psi4
#
memory 32 gb

molecule  {
1 1
  N       -1.2324810    -0.0000240    -0.0000010
  C       -0.4050368     1.2574953     0.2862858
  C       -0.3322730    -1.2314350    -0.1457220
  C        1.0439290     0.7199610    -0.2571670
  C        1.0439580    -0.7199190     0.2571660
  H       -1.8512360    -0.0930200     0.8140460
  H       -1.8512350     0.0929480    -0.8140510
  H       -0.3668390     1.5267420     1.1955240
  H       -0.7357950     2.0357900    -0.4702450
  H       -0.3667790    -1.5267620    -1.1955210
  H       -0.7357130    -2.0358170     0.4702510
  H        1.8333540     1.3329410     0.1830080
  H        1.1642110     0.7451780    -1.3446810
  H        1.8334070    -1.3328680    -0.1830100
  H        1.1642440    -0.7451310     1.3446800
units angstrom
no_reorient  #important for SAPT in psi4, default
symmetry c1  #important for SAPT in psi4, default
}

set PROPERTIES_ORIGIN ["COM"]
properties('MP2/aug-cc-pvtz', properties = ['dipole'])
--------------------------------------------------------------------------

    Molecular point group: c1
  Charge       = 1
  Multiplicity = 1
  Basis Set: AUG-CC-PVTZ
    Blend: AUG-CC-PVTZ
  Basis Set: (AUG-CC-PVTZ AUX)
    Blend: AUG-CC-PVTZ-JKFIT

    Orbital Energies [Eh]
    ---------------------

    Doubly Occupied:

       1A    -15.870995     2A    -11.467110     3A    -11.464612
       4A    -11.409892     5A    -11.402275     6A     -1.495222
       7A     -1.246542     8A     -1.191002     9A     -1.048220
      10A     -0.997130    11A     -0.951007    12A     -0.906188
      13A     -0.837261    14A     -0.808516    15A     -0.752695
      16A     -0.731352    17A     -0.717228    18A     -0.674897
      19A     -0.663301    20A     -0.646307

  @DF-RHF Final Energy:  -211.57476606887704

   => Energetics <=

    Nuclear Repulsion Energy =            198.1048738149784185
    One-Electron Energy =                -668.7957783447915290
    Two-Electron Energy =                 259.1161384609360994
    Total Energy =                       -211.5747660688770111
  Basis Set: (AUG-CC-PVTZ AUX)
    Blend: AUG-CC-PVTZ-RI
    Molecular point group: c1

    Geometry (in Angstrom), charge = 1, multiplicity = 1:

       Center              X                  Y                   Z               Mass
    ------------   -----------------  -----------------  -----------------  -----------------
         N           -1.219117044224    -0.004364826656    -0.023401521848    14.003074004430
         C           -0.391672844224     1.253154473344     0.262885278152    12.000000000000
         C           -0.318909044224    -1.235775826656    -0.169122521848    12.000000000000
         C            1.057292955776     0.715620173344    -0.280567521848    12.000000000000
         C            1.057321955776    -0.724259826656     0.233765478152    12.000000000000
         H           -1.837872044224    -0.097360826656     0.790645478152     1.007825032230
         H           -1.837871044224     0.088607173344    -0.837451521848     1.007825032230
         H           -0.353475044224     1.522401173344     1.172123478152     1.007825032230
         H           -0.722431044224     2.031449173344    -0.493645521848     1.007825032230
         H           -0.353415044224    -1.531102826656    -1.218921521848     1.007825032230
         H           -0.722349044224    -2.040157826656     0.446850478152     1.007825032230
         H            1.846717955776     1.328600173344     0.159607478152     1.007825032230
         H            1.177574955776     0.740837173344    -1.368081521848     1.007825032230
         H            1.846770955776    -1.337208826656    -0.206410521848     1.007825032230
         H            1.177607955776    -0.749471826656     1.321279478152     1.007825032230

  Basis Set: AUG-CC-PVTZ
    Blend: AUG-CC-PVTZ
  Basis Set: (AUG-CC-PVTZ AUX)
    Blend: AUG-CC-PVTZ-JKFIT
	 Reference Energy          =    -211.5747660688770395 [Eh]
	 Singles Energy            =      -0.0000000000000000 [Eh]
	 Same-Spin Energy          =      -0.2175200379684473 [Eh]
	 Opposite-Spin Energy      =      -0.7830096704951237 [Eh]
	 Correlation Energy        =      -1.0005297084635711 [Eh]
	 Total Energy              =    -212.5752957773406138 [Eh]

	 ================> DF-SCS-MP2 Energies <==================
	-----------------------------------------------------------
	 SCS Same-Spin Scale       =       0.3333333333333333 [-]
	 SCS Opposite-Spin Scale   =       1.2000000000000000 [-]
	 SCS Same-Spin Energy      =      -0.0725066793228158 [Eh]
	 SCS Opposite-Spin Energy  =      -0.9396116045941484 [Eh]
	 SCS Correlation Energy    =      -1.0121182839169642 [Eh]
	 SCS Total Energy          =    -212.5868843527940157 [Eh]
	-----------------------------------------------------------

  Dipole Moment: [D]
     X:    -3.2181      Y:    -0.0398      Z:    -0.0568     Total:     3.2189

*** Psi4 exiting successfully. Buy a developer a beer!
