                               Psi4 1.3.2 release

  ==> Input File <==

--------------------------------------------------------------------------
#psi4
#
memory 32 gb

molecule  {
1 1
  N       -1.2740512     0.0296445     0.0158846
  C       -0.3323220     1.2314210     0.1457240
  C       -0.3322730    -1.2314350    -0.1457220
  C        1.0439290     0.7199610    -0.2571670
  C        1.0439580    -0.7199190     0.2571660
  H       -1.8512360    -0.0930200     0.8140460
  H       -1.8512350     0.0929480    -0.8140510
  H       -0.3668390     1.5267420     1.1955240
  H       -0.7357950     2.0357900    -0.4702450
  H       -0.3667790    -1.5267620    -1.1955210
  H       -0.7357130    -2.0358170     0.4702510
  H        1.8333540     1.3329410     0.1830080
  H        1.1642110     0.7451780    -1.3446810
  H        1.8334070    -1.3328680    -0.1830100
  H        1.1642440    -0.7451310     1.3446800
units angstrom
no_reorient  #important for SAPT in psi4, default
symmetry c1  #important for SAPT in psi4, default
}

set PROPERTIES_ORIGIN ["COM"]
properties('MP2/aug-cc-pvtz', properties = ['dipole'])
--------------------------------------------------------------------------

    Molecular point group: c1
  Charge       = 1
  Multiplicity = 1
  Basis Set: AUG-CC-PVTZ
    Blend: AUG-CC-PVTZ
  Basis Set: (AUG-CC-PVTZ AUX)
    Blend: AUG-CC-PVTZ-JKFIT

    Orbital Energies [Eh]
    ---------------------

    Doubly Occupied:

       1A    -15.863950     2A    -11.472381     3A    -11.466736
       4A    -11.405187     5A    -11.404347     6A     -1.491812
       7A     -1.258825     8A     -1.188772     9A     -1.042154
      10A     -0.997205    11A     -0.962256    12A     -0.898793
      13A     -0.829503    14A     -0.793597    15A     -0.755113
      16A     -0.739287    17A     -0.703569    18A     -0.686493
      19A     -0.672647    20A     -0.659767

  @DF-RHF Final Energy:  -211.60434084621221

   => Energetics <=

    Nuclear Repulsion Energy =            198.4894772344455873
    One-Electron Energy =                -669.6028506284823152
    Two-Electron Energy =                 259.5090325478245177
    Total Energy =                       -211.6043408462122102
  Basis Set: (AUG-CC-PVTZ AUX)
    Blend: AUG-CC-PVTZ-RI
    Molecular point group: c1

    Geometry (in Angstrom), charge = 1, multiplicity = 1:

       Center              X                  Y                   Z               Mass
    ------------   -----------------  -----------------  -----------------  -----------------
         N           -1.264716956716     0.023880855408     0.012798554631    14.003074004430
         C           -0.322987756716     1.225657355408     0.142637954631    12.000000000000
         C           -0.322938756716    -1.237198644592    -0.148808045369    12.000000000000
         C            1.053263243284     0.714197355408    -0.260253045369    12.000000000000
         C            1.053292243284    -0.725682644592     0.254079954631    12.000000000000
         H           -1.841901756716    -0.098783644592     0.810959954631     1.007825032230
         H           -1.841900756716     0.087184355408    -0.817137045369     1.007825032230
         H           -0.357504756716     1.520978355408     1.192437954631     1.007825032230
         H           -0.726460756716     2.030026355408    -0.473331045369     1.007825032230
         H           -0.357444756716    -1.532525644592    -1.198607045369     1.007825032230
         H           -0.726378756716    -2.041580644592     0.467164954631     1.007825032230
         H            1.842688243284     1.327177355408     0.179921954631     1.007825032230
         H            1.173545243284     0.739414355408    -1.347767045369     1.007825032230
         H            1.842741243284    -1.338631644592    -0.186096045369     1.007825032230
         H            1.173578243284    -0.750894644592     1.341593954631     1.007825032230

  Basis Set: AUG-CC-PVTZ
    Blend: AUG-CC-PVTZ
  Basis Set: (AUG-CC-PVTZ AUX)
    Blend: AUG-CC-PVTZ-JKFIT
	 Reference Energy          =    -211.6043408462122102 [Eh]
	 Singles Energy            =      -0.0000000000000000 [Eh]
	 Same-Spin Energy          =      -0.2170818193471402 [Eh]
	 Opposite-Spin Energy      =      -0.7813821580571445 [Eh]
	 Correlation Energy        =      -0.9984639774042847 [Eh]
	 Total Energy              =    -212.6028048236165091 [Eh]

	 ================> DF-SCS-MP2 Energies <==================
	-----------------------------------------------------------
	 SCS Same-Spin Scale       =       0.3333333333333333 [-]
	 SCS Opposite-Spin Scale   =       1.2000000000000000 [-]
	 SCS Same-Spin Energy      =      -0.0723606064490467 [Eh]
	 SCS Opposite-Spin Energy  =      -0.9376585896685734 [Eh]
	 SCS Correlation Energy    =      -1.0100191961176201 [Eh]
	 SCS Total Energy          =    -212.6143600423298210 [Eh]
	-----------------------------------------------------------

  Dipole Moment: [D]
     X:    -3.1268      Y:    -0.0821      Z:    -0.0274     Total:     3.1280

*** Psi4 exiting successfully. Buy a developer a beer!
