                               Psi4 1.3.2 release

  ==> Input File <==

--------------------------------------------------------------------------
#psi4
#
memory 32 gb

molecule  {
1 1
  N       -1.2324810    -0.0000240    -0.0000010
  C       -0.4668724     1.3181153     0.1559831
  C       -0.3322730    -1.2314350    -0.1457220
  C        1.0439290     0.7199610    -0.2571670
  C        1.0439580    -0.7199190     0.2571660
  H       -1.8512360    -0.0930200     0.8140460
  H       -1.8512350     0.0929480    -0.8140510
  H       -0.3668390     1.5267420     1.1955240
  H       -0.7357950     2.0357900    -0.4702450
  H       -0.3667790    -1.5267620    -1.1955210
  H       -0.7357130    -2.0358170     0.4702510
  H        1.8333540     1.3329410     0.1830080
  H        1.1642110     0.7451780    -1.3446810
  H        1.8334070    -1.3328680    -0.1830100
  H        1.1642440    -0.7451310     1.3446800
units angstrom
no_reorient  #important for SAPT in psi4, default
symmetry c1  #important for SAPT in psi4, default
}

set PROPERTIES_ORIGIN ["COM"]
properties('MP2/aug-cc-pvtz', properties = ['dipole'])
--------------------------------------------------------------------------

    Molecular point group: c1
  Charge       = 1
  Multiplicity = 1
  Basis Set: AUG-CC-PVTZ
    Blend: AUG-CC-PVTZ
  Basis Set: (AUG-CC-PVTZ AUX)
    Blend: AUG-CC-PVTZ-JKFIT

    Orbital Energies [Eh]
    ---------------------

    Doubly Occupied:

       1A    -15.871106     2A    -11.468712     3A    -11.463193
       4A    -11.410804     5A    -11.403486     6A     -1.494196
       7A     -1.243332     8A     -1.189609     9A     -1.045899
      10A     -0.992488    11A     -0.957805    12A     -0.904978
      13A     -0.823180    14A     -0.810442    15A     -0.775643
      16A     -0.728504    17A     -0.712573    18A     -0.673880
      19A     -0.663877    20A     -0.641837

  @DF-RHF Final Energy:  -211.58227908502062

   => Energetics <=

    Nuclear Repulsion Energy =            197.4072428860697812
    One-Electron Energy =                -667.4279557760543184
    Two-Electron Energy =                 258.4384338049639496
    Total Energy =                       -211.5822790850206161
  Basis Set: (AUG-CC-PVTZ AUX)
    Blend: AUG-CC-PVTZ-RI
    Molecular point group: c1

    Geometry (in Angstrom), charge = 1, multiplicity = 1:

       Center              X                  Y                   Z               Mass
    ------------   -----------------  -----------------  -----------------  -----------------
         N           -1.208822738356    -0.014456761104    -0.001708907088    14.003074004430
         C           -0.443214138356     1.303682538896     0.154275192912    12.000000000000
         C           -0.308614738356    -1.245867761104    -0.147429907088    12.000000000000
         C            1.067587261644     0.705528238896    -0.258874907088    12.000000000000
         C            1.067616261644    -0.734351761104     0.255458092912    12.000000000000
         H           -1.827577738356    -0.107452761104     0.812338092912     1.007825032230
         H           -1.827576738356     0.078515238896    -0.815758907088     1.007825032230
         H           -0.343180738356     1.512309238896     1.193816092912     1.007825032230
         H           -0.712136738356     2.021357238896    -0.471952907088     1.007825032230
         H           -0.343120738356    -1.541194761104    -1.197228907088     1.007825032230
         H           -0.712054738356    -2.050249761104     0.468543092912     1.007825032230
         H            1.857012261644     1.318508238896     0.181300092912     1.007825032230
         H            1.187869261644     0.730745238896    -1.346388907088     1.007825032230
         H            1.857065261644    -1.347300761104    -0.184717907088     1.007825032230
         H            1.187902261644    -0.759563761104     1.342972092912     1.007825032230

  Basis Set: AUG-CC-PVTZ
    Blend: AUG-CC-PVTZ
  Basis Set: (AUG-CC-PVTZ AUX)
    Blend: AUG-CC-PVTZ-JKFIT
	 Reference Energy          =    -211.5822790850206161 [Eh]
	 Singles Energy            =      -0.0000000000000000 [Eh]
	 Same-Spin Energy          =      -0.2172752326151326 [Eh]
	 Opposite-Spin Energy      =      -0.7827702058930186 [Eh]
	 Correlation Energy        =      -1.0000454385081512 [Eh]
	 Total Energy              =    -212.5823245235287686 [Eh]

	 ================> DF-SCS-MP2 Energies <==================
	-----------------------------------------------------------
	 SCS Same-Spin Scale       =       0.3333333333333333 [-]
	 SCS Opposite-Spin Scale   =       1.2000000000000000 [-]
	 SCS Same-Spin Energy      =      -0.0724250775383775 [Eh]
	 SCS Opposite-Spin Energy  =      -0.9393242470716223 [Eh]
	 SCS Correlation Energy    =      -1.0117493246099998 [Eh]
	 SCS Total Energy          =    -212.5940284096306243 [Eh]
	-----------------------------------------------------------

  Dipole Moment: [D]
     X:    -3.1938      Y:    -0.0990      Z:    -0.0216     Total:     3.1955

*** Psi4 exiting successfully. Buy a developer a beer!
