                               Psi4 1.3.2 release

  ==> Input File <==

--------------------------------------------------------------------------
#psi4
#
memory 32 gb

molecule  {
1 1
  N       -1.2614042     0.0129577     0.1572245
  C       -0.3323220     1.2314210     0.1457240
  C       -0.3322730    -1.2314350    -0.1457220
  C        1.0439290     0.7199610    -0.2571670
  C        1.0439580    -0.7199190     0.2571660
  H       -1.8512360    -0.0930200     0.8140460
  H       -1.8512350     0.0929480    -0.8140510
  H       -0.3668390     1.5267420     1.1955240
  H       -0.7357950     2.0357900    -0.4702450
  H       -0.3667790    -1.5267620    -1.1955210
  H       -0.7357130    -2.0358170     0.4702510
  H        1.8333540     1.3329410     0.1830080
  H        1.1642110     0.7451780    -1.3446810
  H        1.8334070    -1.3328680    -0.1830100
  H        1.1642440    -0.7451310     1.3446800
units angstrom
no_reorient  #important for SAPT in psi4, default
symmetry c1  #important for SAPT in psi4, default
}

set PROPERTIES_ORIGIN ["COM"]
properties('MP2/aug-cc-pvtz', properties = ['dipole'])
--------------------------------------------------------------------------

    Molecular point group: c1
  Charge       = 1
  Multiplicity = 1
  Basis Set: AUG-CC-PVTZ
    Blend: AUG-CC-PVTZ
  Basis Set: (AUG-CC-PVTZ AUX)
    Blend: AUG-CC-PVTZ-JKFIT

    Orbital Energies [Eh]
    ---------------------

    Doubly Occupied:

       1A    -15.863041     2A    -11.474201     3A    -11.467346
       4A    -11.405391     5A    -11.404646     6A     -1.495040
       7A     -1.262735     8A     -1.189353     9A     -1.056306
      10A     -0.993686    11A     -0.952398    12A     -0.897722
      13A     -0.827451    14A     -0.794434    15A     -0.760446
      16A     -0.733910    17A     -0.695951    18A     -0.686820
      19A     -0.672879    20A     -0.659544

  @DF-RHF Final Energy:  -211.56854735762508

   => Energetics <=

    Nuclear Repulsion Energy =            198.5904841979611035
    One-Electron Energy =                -669.7314606012712375
    Two-Electron Energy =                 259.5724290456849985
    Total Energy =                       -211.5685473576251070
  Basis Set: (AUG-CC-PVTZ AUX)
    Blend: AUG-CC-PVTZ-RI
    Molecular point group: c1

    Geometry (in Angstrom), charge = 1, multiplicity = 1:

       Center              X                  Y                   Z               Mass
    ------------   -----------------  -----------------  -----------------  -----------------
         N           -1.254526860478     0.010435761876     0.126680675546    14.003074004430
         C           -0.325444660478     1.228899061876     0.115180175546    12.000000000000
         C           -0.325395660478    -1.233956938124    -0.176265824454    12.000000000000
         C            1.050806339522     0.717439061876    -0.287710824454    12.000000000000
         C            1.050835339522    -0.722440938124     0.226622175546    12.000000000000
         H           -1.844358660478    -0.095541938124     0.783502175546     1.007825032230
         H           -1.844357660478     0.090426061876    -0.844594824454     1.007825032230
         H           -0.359961660478     1.524220061876     1.164980175546     1.007825032230
         H           -0.728917660478     2.033268061876    -0.500788824454     1.007825032230
         H           -0.359901660478    -1.529283938124    -1.226064824454     1.007825032230
         H           -0.728835660478    -2.038338938124     0.439707175546     1.007825032230
         H            1.840231339522     1.330419061876     0.152464175546     1.007825032230
         H            1.171088339522     0.742656061876    -1.375224824454     1.007825032230
         H            1.840284339522    -1.335389938124    -0.213553824454     1.007825032230
         H            1.171121339522    -0.747652938124     1.314136175546     1.007825032230

  Basis Set: AUG-CC-PVTZ
    Blend: AUG-CC-PVTZ
  Basis Set: (AUG-CC-PVTZ AUX)
    Blend: AUG-CC-PVTZ-JKFIT
	 Reference Energy          =    -211.5685473576250786 [Eh]
	 Singles Energy            =      -0.0000000000000000 [Eh]
	 Same-Spin Energy          =      -0.2177093503320894 [Eh]
	 Opposite-Spin Energy      =      -0.7831340264961247 [Eh]
	 Correlation Energy        =      -1.0008433768282141 [Eh]
	 Total Energy              =    -212.5693907344532931 [Eh]

	 ================> DF-SCS-MP2 Energies <==================
	-----------------------------------------------------------
	 SCS Same-Spin Scale       =       0.3333333333333333 [-]
	 SCS Opposite-Spin Scale   =       1.2000000000000000 [-]
	 SCS Same-Spin Energy      =      -0.0725697834440298 [Eh]
	 SCS Opposite-Spin Energy  =      -0.9397608317953496 [Eh]
	 SCS Correlation Energy    =      -1.0123306152393794 [Eh]
	 SCS Total Energy          =    -212.5808779728644708 [Eh]
	-----------------------------------------------------------

  Dipole Moment: [D]
     X:    -3.1191      Y:    -0.0731      Z:    -0.2335     Total:     3.1287

*** Psi4 exiting successfully. Buy a developer a beer!
