                               Psi4 1.4a3.dev225

  ==> Input File <==

--------------------------------------------------------------------------
#psi4
#
memory 32 gb

molecule  {
1 1
  N       -1.2324810    -0.0000240    -0.0000010
  C       -0.3323220     1.2314210     0.1457240
  C       -0.3322730    -1.2314350    -0.1457220
  C        1.0439290     0.7199610    -0.2571670
  C        1.0439580    -0.7199190     0.2571660
  H       -1.8211037    -0.0884913     0.7744034
  H       -1.8512350     0.0929480    -0.8140510
  H       -0.3668390     1.5267420     1.1955240
  H       -0.7357950     2.0357900    -0.4702450
  H       -0.3667790    -1.5267620    -1.1955210
  H       -0.7357130    -2.0358170     0.4702510
  H        1.8333540     1.3329410     0.1830080
  H        1.1642110     0.7451780    -1.3446810
  H        1.8334070    -1.3328680    -0.1830100
  H        1.1642440    -0.7451310     1.3446800
units angstrom
no_reorient  #important for SAPT in psi4, default
symmetry c1  #important for SAPT in psi4, default
}

set PROPERTIES_ORIGIN ["COM"]
properties('MP2/aug-cc-pvtz', properties = ['dipole'])
--------------------------------------------------------------------------

    Molecular point group: c1
  Charge       = 1
  Multiplicity = 1
  Basis Set: AUG-CC-PVTZ
    Blend: AUG-CC-PVTZ
  Basis Set: (AUG-CC-PVTZ AUX)
    Blend: AUG-CC-PVTZ-JKFIT

    Orbital Energies [Eh]
    ---------------------

    Doubly Occupied:

       1A    -15.865472     2A    -11.467873     3A    -11.467847
       4A    -11.404256     5A    -11.403639     6A     -1.503460
       7A     -1.258843     8A     -1.193338     9A     -1.042823
      10A     -0.999260    11A     -0.962217    12A     -0.907944
      13A     -0.829182    14A     -0.794166    15A     -0.759154
      16A     -0.742109    17A     -0.701969    18A     -0.686347
      19A     -0.672557    20A     -0.659590

  @DF-RHF Final Energy:  -211.60567601631465

   => Energetics <=

    Nuclear Repulsion Energy =            199.4587505737220852
    One-Electron Energy =                -671.4847669128623693
    Two-Electron Energy =                 260.4203403228256093
    Total Energy =                       -211.6056760163146464
  Basis Set: (AUG-CC-PVTZ AUX)
    Blend: AUG-CC-PVTZ-RI
    Molecular point group: c1

    Geometry (in Angstrom), charge = 1, multiplicity = 1:

       Center              X                  Y                   Z               Mass
    ------------   -----------------  -----------------  -----------------  -----------------
         N           -1.231643807497    -0.000087332234     0.000553287817    14.003074004430
         C           -0.331484807497     1.231357667766     0.146278287817    12.000000000000
         C           -0.331435807497    -1.231498332234    -0.145167712183    12.000000000000
         C            1.044766192503     0.719897667766    -0.256612712183    12.000000000000
         C            1.044795192503    -0.719982332234     0.257720287817    12.000000000000
         H           -1.820266507497    -0.088554632234     0.774957687817     1.007825032230
         H           -1.850397807497     0.092884667766    -0.813496712183     1.007825032230
         H           -0.366001807497     1.526678667766     1.196078287817     1.007825032230
         H           -0.734957807497     2.035726667766    -0.469690712183     1.007825032230
         H           -0.365941807497    -1.526825332234    -1.194966712183     1.007825032230
         H           -0.734875807497    -2.035880332234     0.470805287817     1.007825032230
         H            1.834191192503     1.332877667766     0.183562287817     1.007825032230
         H            1.165048192503     0.745114667766    -1.344126712183     1.007825032230
         H            1.834244192503    -1.332931332234    -0.182455712183     1.007825032230
         H            1.165081192503    -0.745194332234     1.345234287817     1.007825032230

  Basis Set: AUG-CC-PVTZ
    Blend: AUG-CC-PVTZ
  Basis Set: (AUG-CC-PVTZ AUX)
    Blend: AUG-CC-PVTZ-JKFIT
	 Reference Energy          =    -211.6056760163146464 [Eh]
	 Singles Energy            =      -0.0000000000000000 [Eh]
	 Same-Spin Energy          =      -0.2172355322382413 [Eh]
	 Opposite-Spin Energy      =      -0.7809638277684537 [Eh]
	 Correlation Energy        =      -0.9981993600066951 [Eh]
	 Total Energy              =    -212.6038753763213549 [Eh]

	 ================> DF-SCS-MP2 Energies <==================
	-----------------------------------------------------------
	 SCS Same-Spin Scale       =       0.3333333333333333 [-]
	 SCS Opposite-Spin Scale   =       1.2000000000000000 [-]
	 SCS Same-Spin Energy      =      -0.0724118440794138 [Eh]
	 SCS Opposite-Spin Energy  =      -0.9371565933221444 [Eh]
	 SCS Correlation Energy    =      -1.0095684374015581 [Eh]
	 SCS Total Energy          =    -212.6152444537162012 [Eh]
	-----------------------------------------------------------

  Dipole Moment: [D]
     X:    -3.2038      Y:     0.0056      Z:    -0.0494     Total:     3.2041

*** Psi4 exiting successfully. Buy a developer a beer!
