                               Psi4 1.3.2 release

  ==> Input File <==

--------------------------------------------------------------------------
#psi4
#
memory 32 gb

molecule  {
1 1
  N       -1.2528808     0.0071371     0.1047448
  C       -0.3323220     1.2314210     0.1457240
  C       -0.3322730    -1.2314350    -0.1457220
  C        1.0439290     0.7199610    -0.2571670
  C        1.0439580    -0.7199190     0.2571660
  H       -1.8512360    -0.0930200     0.8140460
  H       -1.8512350     0.0929480    -0.8140510
  H       -0.3668390     1.5267420     1.1955240
  H       -0.7357950     2.0357900    -0.4702450
  H       -0.3667790    -1.5267620    -1.1955210
  H       -0.7357130    -2.0358170     0.4702510
  H        1.8333540     1.3329410     0.1830080
  H        1.1642110     0.7451780    -1.3446810
  H        1.8334070    -1.3328680    -0.1830100
  H        1.1642440    -0.7451310     1.3446800
units angstrom
no_reorient  #important for SAPT in psi4, default
symmetry c1  #important for SAPT in psi4, default
}

set PROPERTIES_ORIGIN ["COM"]
properties('MP2/aug-cc-pvtz', properties = ['dipole'])
--------------------------------------------------------------------------

    Molecular point group: c1
  Charge       = 1
  Multiplicity = 1
  Basis Set: AUG-CC-PVTZ
    Blend: AUG-CC-PVTZ
  Basis Set: (AUG-CC-PVTZ AUX)
    Blend: AUG-CC-PVTZ-JKFIT

    Orbital Energies [Eh]
    ---------------------

    Doubly Occupied:

       1A    -15.865575     2A    -11.471436     3A    -11.467052
       4A    -11.404755     5A    -11.404066     6A     -1.494696
       7A     -1.259437     8A     -1.190393     9A     -1.048045
      10A     -0.995237    11A     -0.954761    12A     -0.900997
      13A     -0.827738    14A     -0.793949    15A     -0.757973
      16A     -0.738195    17A     -0.698904    18A     -0.686394
      19A     -0.672542    20A     -0.659459

  @DF-RHF Final Energy:  -211.59000227159552

   => Energetics <=

    Nuclear Repulsion Energy =            198.7875041397475400
    One-Electron Energy =                -670.1718082858241132
    Two-Electron Energy =                 259.7943018744811070
    Total Energy =                       -211.5900022715954947
  Basis Set: (AUG-CC-PVTZ AUX)
    Blend: AUG-CC-PVTZ-RI
    Molecular point group: c1

    Geometry (in Angstrom), charge = 1, multiplicity = 1:

       Center              X                  Y                   Z               Mass
    ------------   -----------------  -----------------  -----------------  -----------------
         N           -1.247659281900     0.005745916524     0.084396086828    14.003074004430
         C           -0.327100481900     1.230029816524     0.125375286828    12.000000000000
         C           -0.327051481900    -1.232826183476    -0.166070713172    12.000000000000
         C            1.049150518100     0.718569816524    -0.277515713172    12.000000000000
         C            1.049179518100    -0.721310183476     0.236817286828    12.000000000000
         H           -1.846014481900    -0.094411183476     0.793697286828     1.007825032230
         H           -1.846013481900     0.091556816524    -0.834399713172     1.007825032230
         H           -0.361617481900     1.525350816524     1.175175286828     1.007825032230
         H           -0.730573481900     2.034398816524    -0.490593713172     1.007825032230
         H           -0.361557481900    -1.528153183476    -1.215869713172     1.007825032230
         H           -0.730491481900    -2.037208183476     0.449902286828     1.007825032230
         H            1.838575518100     1.331549816524     0.162659286828     1.007825032230
         H            1.169432518100     0.743786816524    -1.365029713172     1.007825032230
         H            1.838628518100    -1.334259183476    -0.203358713172     1.007825032230
         H            1.169465518100    -0.746522183476     1.324331286828     1.007825032230

  Basis Set: AUG-CC-PVTZ
    Blend: AUG-CC-PVTZ
  Basis Set: (AUG-CC-PVTZ AUX)
    Blend: AUG-CC-PVTZ-JKFIT
	 Reference Energy          =    -211.5900022715955231 [Eh]
	 Singles Energy            =      -0.0000000000000000 [Eh]
	 Same-Spin Energy          =      -0.2175111723732494 [Eh]
	 Opposite-Spin Energy      =      -0.7823091717272733 [Eh]
	 Correlation Energy        =      -0.9998203441005227 [Eh]
	 Total Energy              =    -212.5898226156960504 [Eh]

	 ================> DF-SCS-MP2 Energies <==================
	-----------------------------------------------------------
	 SCS Same-Spin Scale       =       0.3333333333333333 [-]
	 SCS Opposite-Spin Scale   =       1.2000000000000000 [-]
	 SCS Same-Spin Energy      =      -0.0725037241244164 [Eh]
	 SCS Opposite-Spin Energy  =      -0.9387710060727279 [Eh]
	 SCS Correlation Energy    =      -1.0112747301971443 [Eh]
	 SCS Total Energy          =    -212.6012770017926812 [Eh]
	-----------------------------------------------------------

  Dipole Moment: [D]
     X:    -3.1694      Y:    -0.0457      Z:    -0.1533     Total:     3.1734

*** Psi4 exiting successfully. Buy a developer a beer!
