                               Psi4 1.4a3.dev225

  ==> Input File <==

--------------------------------------------------------------------------
#psi4
#
memory 32 gb

molecule  {
1 1
  N       -1.2324810    -0.0000240    -0.0000010
  C       -0.3323220     1.2314210     0.1457240
  C       -0.3322730    -1.2314350    -0.1457220
  C        1.0439290     0.7199610    -0.2571670
  C        1.0439580    -0.7199190     0.2571660
  H       -1.8813683    -0.0975487     0.8536886
  H       -1.8512350     0.0929480    -0.8140510
  H       -0.3668390     1.5267420     1.1955240
  H       -0.7357950     2.0357900    -0.4702450
  H       -0.3667790    -1.5267620    -1.1955210
  H       -0.7357130    -2.0358170     0.4702510
  H        1.8333540     1.3329410     0.1830080
  H        1.1642110     0.7451780    -1.3446810
  H        1.8334070    -1.3328680    -0.1830100
  H        1.1642440    -0.7451310     1.3446800
units angstrom
no_reorient  #important for SAPT in psi4, default
symmetry c1  #important for SAPT in psi4, default
}

set PROPERTIES_ORIGIN ["COM"]
properties('MP2/aug-cc-pvtz', properties = ['dipole'])
--------------------------------------------------------------------------

    Molecular point group: c1
  Charge       = 1
  Multiplicity = 1
  Basis Set: AUG-CC-PVTZ
    Blend: AUG-CC-PVTZ
  Basis Set: (AUG-CC-PVTZ AUX)
    Blend: AUG-CC-PVTZ-JKFIT

    Orbital Energies [Eh]
    ---------------------

    Doubly Occupied:

       1A    -15.872542     2A    -11.466734     3A    -11.466706
       4A    -11.403484     5A    -11.402868     6A     -1.489775
       7A     -1.252966     8A     -1.192019     9A     -1.035993
      10A     -0.995602    11A     -0.946579    12A     -0.903762
      13A     -0.824938    14A     -0.792991    15A     -0.756820
      16A     -0.739008    17A     -0.698785    18A     -0.685358
      19A     -0.671618    20A     -0.658795

  @DF-RHF Final Energy:  -211.60218920550733

   => Energetics <=

    Nuclear Repulsion Energy =            198.9085864291077996
    One-Electron Energy =                -670.5068638928494238
    Two-Electron Energy =                 259.9960882582342947
    Total Energy =                       -211.6021892055073295
  Basis Set: (AUG-CC-PVTZ AUX)
    Blend: AUG-CC-PVTZ-RI
    Molecular point group: c1

    Geometry (in Angstrom), charge = 1, multiplicity = 1:

       Center              X                  Y                   Z               Mass
    ------------   -----------------  -----------------  -----------------  -----------------
         N           -1.230801201274     0.000039306317    -0.000555260202    14.003074004430
         C           -0.330642201274     1.231484306317     0.145169739798    12.000000000000
         C           -0.330593201274    -1.231371693683    -0.146276260202    12.000000000000
         C            1.045608798726     0.720024306317    -0.257721260202    12.000000000000
         C            1.045637798726    -0.719855693683     0.256611739798    12.000000000000
         H           -1.879688501274    -0.097485393683     0.853134339798     1.007825032230
         H           -1.849555201274     0.093011306317    -0.814605260202     1.007825032230
         H           -0.365159201274     1.526805306317     1.194969739798     1.007825032230
         H           -0.734115201274     2.035853306317    -0.470799260202     1.007825032230
         H           -0.365099201274    -1.526698693683    -1.196075260202     1.007825032230
         H           -0.734033201274    -2.035753693683     0.469696739798     1.007825032230
         H            1.835033798726     1.333004306317     0.182453739798     1.007825032230
         H            1.165890798726     0.745241306317    -1.345235260202     1.007825032230
         H            1.835086798726    -1.332804693683    -0.183564260202     1.007825032230
         H            1.165923798726    -0.745067693683     1.344125739798     1.007825032230

  Basis Set: AUG-CC-PVTZ
    Blend: AUG-CC-PVTZ
  Basis Set: (AUG-CC-PVTZ AUX)
    Blend: AUG-CC-PVTZ-JKFIT
	 Reference Energy          =    -211.6021892055073295 [Eh]
	 Singles Energy            =      -0.0000000000000000 [Eh]
	 Same-Spin Energy          =      -0.2178667661763034 [Eh]
	 Opposite-Spin Energy      =      -0.7829030269720189 [Eh]
	 Correlation Energy        =      -1.0007697931483222 [Eh]
	 Total Energy              =    -212.6029589986556516 [Eh]

	 ================> DF-SCS-MP2 Energies <==================
	-----------------------------------------------------------
	 SCS Same-Spin Scale       =       0.3333333333333333 [-]
	 SCS Opposite-Spin Scale   =       1.2000000000000000 [-]
	 SCS Same-Spin Energy      =      -0.0726222553921011 [Eh]
	 SCS Opposite-Spin Energy  =      -0.9394836323664226 [Eh]
	 SCS Correlation Energy    =      -1.0121058877585238 [Eh]
	 SCS Total Energy          =    -212.6142950932658664 [Eh]
	-----------------------------------------------------------

  Dipole Moment: [D]
     X:    -3.2906      Y:    -0.0059      Z:     0.0507     Total:     3.2910

*** Psi4 exiting successfully. Buy a developer a beer!
