                               Psi4 1.4a3.dev225

  ==> Input File <==

--------------------------------------------------------------------------
#psi4
#
memory 32 gb

molecule  {
1 1
  N       -1.2324810    -0.0000240    -0.0000010
  C       -0.3029494     1.2716036     0.1504791
  C       -0.3322730    -1.2314350    -0.1457220
  C        1.0439290     0.7199610    -0.2571670
  C        1.0439580    -0.7199190     0.2571660
  H       -1.8512360    -0.0930200     0.8140460
  H       -1.8512350     0.0929480    -0.8140510
  H       -0.3668390     1.5267420     1.1955240
  H       -0.7357950     2.0357900    -0.4702450
  H       -0.3667790    -1.5267620    -1.1955210
  H       -0.7357130    -2.0358170     0.4702510
  H        1.8333540     1.3329410     0.1830080
  H        1.1642110     0.7451780    -1.3446810
  H        1.8334070    -1.3328680    -0.1830100
  H        1.1642440    -0.7451310     1.3446800
units angstrom
no_reorient  #important for SAPT in psi4, default
symmetry c1  #important for SAPT in psi4, default
}

set PROPERTIES_ORIGIN ["COM"]
properties('MP2/aug-cc-pvtz', properties = ['dipole'])
--------------------------------------------------------------------------

    Molecular point group: c1
  Charge       = 1
  Multiplicity = 1
  Basis Set: AUG-CC-PVTZ
    Blend: AUG-CC-PVTZ
  Basis Set: (AUG-CC-PVTZ AUX)
    Blend: AUG-CC-PVTZ-JKFIT

    Orbital Energies [Eh]
    ---------------------

    Doubly Occupied:

       1A    -15.863948     2A    -11.470479     3A    -11.465488
       4A    -11.404460     5A    -11.403800     6A     -1.484792
       7A     -1.256247     8A     -1.192901     9A     -1.039833
      10A     -0.995836    11A     -0.948918    12A     -0.900042
      13A     -0.826893    14A     -0.798149    15A     -0.754150
      16A     -0.734490    17A     -0.704482    18A     -0.688352
      19A     -0.675636    20A     -0.660324

  @DF-RHF Final Energy:  -211.60409019431174

   => Energetics <=

    Nuclear Repulsion Energy =            198.6381794114209640
    One-Electron Energy =                -669.9460997871476593
    Two-Electron Energy =                 259.7038301814149008
    Total Energy =                       -211.6040901943117660
  Basis Set: (AUG-CC-PVTZ AUX)
    Blend: AUG-CC-PVTZ-RI
    Molecular point group: c1

    Geometry (in Angstrom), charge = 1, multiplicity = 1:

       Center              X                  Y                   Z               Mass
    ------------   -----------------  -----------------  -----------------  -----------------
         N           -1.236112414543    -0.006713557088    -0.000792608718    14.003074004430
         C           -0.306580814543     1.264914042912     0.149687491282    12.000000000000
         C           -0.335904414543    -1.238124557088    -0.146513608718    12.000000000000
         C            1.040297585457     0.713271442912    -0.257958608718    12.000000000000
         C            1.040326585457    -0.726608557088     0.256374391282    12.000000000000
         H           -1.854867414543    -0.099709557088     0.813254391282     1.007825032230
         H           -1.854866414543     0.086258442912    -0.814842608718     1.007825032230
         H           -0.370470414543     1.520052442912     1.194732391282     1.007825032230
         H           -0.739426414543     2.029100442912    -0.471036608718     1.007825032230
         H           -0.370410414543    -1.533451557088    -1.196312608718     1.007825032230
         H           -0.739344414543    -2.042506557088     0.469459391282     1.007825032230
         H            1.829722585457     1.326251442912     0.182216391282     1.007825032230
         H            1.160579585457     0.738488442912    -1.345472608718     1.007825032230
         H            1.829775585457    -1.339557557088    -0.183801608718     1.007825032230
         H            1.160612585457    -0.751820557088     1.343888391282     1.007825032230

  Basis Set: AUG-CC-PVTZ
    Blend: AUG-CC-PVTZ
  Basis Set: (AUG-CC-PVTZ AUX)
    Blend: AUG-CC-PVTZ-JKFIT
	 Reference Energy          =    -211.6040901943117376 [Eh]
	 Singles Energy            =      -0.0000000000000000 [Eh]
	 Same-Spin Energy          =      -0.2173993028661421 [Eh]
	 Opposite-Spin Energy      =      -0.7820278319449252 [Eh]
	 Correlation Energy        =      -0.9994271348110673 [Eh]
	 Total Energy              =    -212.6035173291228091 [Eh]

	 ================> DF-SCS-MP2 Energies <==================
	-----------------------------------------------------------
	 SCS Same-Spin Scale       =       0.3333333333333333 [-]
	 SCS Opposite-Spin Scale   =       1.2000000000000000 [-]
	 SCS Same-Spin Energy      =      -0.0724664342887140 [Eh]
	 SCS Opposite-Spin Energy  =      -0.9384333983339102 [Eh]
	 SCS Correlation Energy    =      -1.0108998326226242 [Eh]
	 SCS Total Energy          =    -212.6149900269343505 [Eh]
	-----------------------------------------------------------

  Dipole Moment: [D]
     X:    -3.1895      Y:     0.0641      Z:     0.0084     Total:     3.1902

*** Psi4 exiting successfully. Buy a developer a beer!
