                               Psi4 1.3.2 release

  ==> Input File <==

--------------------------------------------------------------------------
#psi4
#
memory 32 gb

molecule  {
1 1
  N       -1.3144740     0.0607772     0.0319283
  C       -0.3323220     1.2314210     0.1457240
  C       -0.3322730    -1.2314350    -0.1457220
  C        1.0439290     0.7199610    -0.2571670
  C        1.0439580    -0.7199190     0.2571660
  H       -1.8512360    -0.0930200     0.8140460
  H       -1.8512350     0.0929480    -0.8140510
  H       -0.3668390     1.5267420     1.1955240
  H       -0.7357950     2.0357900    -0.4702450
  H       -0.3667790    -1.5267620    -1.1955210
  H       -0.7357130    -2.0358170     0.4702510
  H        1.8333540     1.3329410     0.1830080
  H        1.1642110     0.7451780    -1.3446810
  H        1.8334070    -1.3328680    -0.1830100
  H        1.1642440    -0.7451310     1.3446800
units angstrom
no_reorient  #important for SAPT in psi4, default
symmetry c1  #important for SAPT in psi4, default
}

set PROPERTIES_ORIGIN ["COM"]
properties('MP2/aug-cc-pvtz', properties = ['dipole'])
--------------------------------------------------------------------------

    Molecular point group: c1
  Charge       = 1
  Multiplicity = 1
  Basis Set: AUG-CC-PVTZ
    Blend: AUG-CC-PVTZ
  Basis Set: (AUG-CC-PVTZ AUX)
    Blend: AUG-CC-PVTZ-JKFIT

    Orbital Energies [Eh]
    ---------------------

    Doubly Occupied:

       1A    -15.858415     2A    -11.477615     3A    -11.466259
       4A    -11.406795     5A    -11.405382     6A     -1.488158
       7A     -1.261670     8A     -1.185715     9A     -1.045241
      10A     -0.998019    11A     -0.969422    12A     -0.891194
      13A     -0.831708    14A     -0.793683    15A     -0.758896
      16A     -0.730404    17A     -0.705884    18A     -0.686999
      19A     -0.673148    20A     -0.660430

  @DF-RHF Final Energy:  -211.59719244154053

   => Energetics <=

    Nuclear Repulsion Energy =            197.8317926139796157
    One-Electron Energy =                -668.2678965563130760
    Two-Electron Energy =                 258.8389115007929604
    Total Energy =                       -211.5971924415405283
  Basis Set: (AUG-CC-PVTZ AUX)
    Blend: AUG-CC-PVTZ-RI
    Molecular point group: c1

    Geometry (in Angstrom), charge = 1, multiplicity = 1:

       Center              X                  Y                   Z               Mass
    ------------   -----------------  -----------------  -----------------  -----------------
         N           -1.297286911819     0.048965476989     0.025725481729    14.003074004430
         C           -0.315134911819     1.219609276989     0.139521181729    12.000000000000
         C           -0.315085911819    -1.243246723011    -0.151924818271    12.000000000000
         C            1.061116088181     0.708149276989    -0.263369818271    12.000000000000
         C            1.061145088181    -0.731730723011     0.250963181729    12.000000000000
         H           -1.834048911819    -0.104831723011     0.807843181729     1.007825032230
         H           -1.834047911819     0.081136276989    -0.820253818271     1.007825032230
         H           -0.349651911819     1.514930276989     1.189321181729     1.007825032230
         H           -0.718607911819     2.023978276989    -0.476447818271     1.007825032230
         H           -0.349591911819    -1.538573723011    -1.201723818271     1.007825032230
         H           -0.718525911819    -2.047628723011     0.464048181729     1.007825032230
         H            1.850541088181     1.321129276989     0.176805181729     1.007825032230
         H            1.181398088181     0.733366276989    -1.350883818271     1.007825032230
         H            1.850594088181    -1.344679723011    -0.189212818271     1.007825032230
         H            1.181431088181    -0.756942723011     1.338477181729     1.007825032230

  Basis Set: AUG-CC-PVTZ
    Blend: AUG-CC-PVTZ
  Basis Set: (AUG-CC-PVTZ AUX)
    Blend: AUG-CC-PVTZ-JKFIT
	 Reference Energy          =    -211.5971924415405283 [Eh]
	 Singles Energy            =      -0.0000000000000000 [Eh]
	 Same-Spin Energy          =      -0.2168505088944594 [Eh]
	 Opposite-Spin Energy      =      -0.7812989991560413 [Eh]
	 Correlation Energy        =      -0.9981495080505007 [Eh]
	 Total Energy              =    -212.5953419495910168 [Eh]

	 ================> DF-SCS-MP2 Energies <==================
	-----------------------------------------------------------
	 SCS Same-Spin Scale       =       0.3333333333333333 [-]
	 SCS Opposite-Spin Scale   =       1.2000000000000000 [-]
	 SCS Same-Spin Energy      =      -0.0722835029648198 [Eh]
	 SCS Opposite-Spin Energy  =      -0.9375587989872495 [Eh]
	 SCS Correlation Energy    =      -1.0098423019520693 [Eh]
	 SCS Total Energy          =    -212.6070347434925907 [Eh]
	-----------------------------------------------------------

  Dipole Moment: [D]
     X:    -2.9993      Y:    -0.1717      Z:    -0.0572     Total:     3.0048

*** Psi4 exiting successfully. Buy a developer a beer!
