                               Psi4 1.3.2 release

  ==> Input File <==

--------------------------------------------------------------------------
#psi4
#
memory 32 gb

molecule  {
1 1
  N       -1.2324810    -0.0000240    -0.0000010
  C       -0.3211417     1.2257537     0.1220999
  C       -0.3322730    -1.2314350    -0.1457220
  C        1.0439290     0.7199610    -0.2571670
  C        1.0439580    -0.7199190     0.2571660
  H       -1.8512360    -0.0930200     0.8140460
  H       -1.8512350     0.0929480    -0.8140510
  H       -0.3668390     1.5267420     1.1955240
  H       -0.7357950     2.0357900    -0.4702450
  H       -0.3667790    -1.5267620    -1.1955210
  H       -0.7357130    -2.0358170     0.4702510
  H        1.8333540     1.3329410     0.1830080
  H        1.1642110     0.7451780    -1.3446810
  H        1.8334070    -1.3328680    -0.1830100
  H        1.1642440    -0.7451310     1.3446800
units angstrom
no_reorient  #important for SAPT in psi4, default
symmetry c1  #important for SAPT in psi4, default
}

set PROPERTIES_ORIGIN ["COM"]
properties('MP2/aug-cc-pvtz', properties = ['dipole'])
--------------------------------------------------------------------------

    Molecular point group: c1
  Charge       = 1
  Multiplicity = 1
  Basis Set: AUG-CC-PVTZ
    Blend: AUG-CC-PVTZ
  Basis Set: (AUG-CC-PVTZ AUX)
    Blend: AUG-CC-PVTZ-JKFIT

    Orbital Energies [Eh]
    ---------------------

    Doubly Occupied:

       1A    -15.869170     2A    -11.468203     3A    -11.467410
       4A    -11.403993     5A    -11.402621     6A     -1.496429
       7A     -1.257870     8A     -1.193283     9A     -1.038347
      10A     -0.997199    11A     -0.955057    12A     -0.906826
      13A     -0.826557    14A     -0.791109    15A     -0.758214
      16A     -0.743322    17A     -0.696157    18A     -0.689458
      19A     -0.673477    20A     -0.657692

  @DF-RHF Final Energy:  -211.60481398454064

   => Energetics <=

    Nuclear Repulsion Energy =            199.3611669077064903
    One-Electron Energy =                -671.3471737239162849
    Two-Electron Energy =                 260.3811928316691819
    Total Energy =                       -211.6048139845406126
  Basis Set: (AUG-CC-PVTZ AUX)
    Blend: AUG-CC-PVTZ-RI
    Molecular point group: c1

    Geometry (in Angstrom), charge = 1, multiplicity = 1:

       Center              X                  Y                   Z               Mass
    ------------   -----------------  -----------------  -----------------  -----------------
         N           -1.233083785393     0.000919471372     0.003931921570    14.003074004430
         C           -0.321744485393     1.226697171372     0.126032821570    12.000000000000
         C           -0.332875785393    -1.230491528628    -0.141789078430    12.000000000000
         C            1.043326214607     0.720904471372    -0.253234078430    12.000000000000
         C            1.043355214607    -0.718975528628     0.261098921570    12.000000000000
         H           -1.851838785393    -0.092076528628     0.817978921570     1.007825032230
         H           -1.851837785393     0.093891471372    -0.810118078430     1.007825032230
         H           -0.367441785393     1.527685471372     1.199456921570     1.007825032230
         H           -0.736397785393     2.036733471372    -0.466312078430     1.007825032230
         H           -0.367381785393    -1.525818528628    -1.191588078430     1.007825032230
         H           -0.736315785393    -2.034873528628     0.474183921570     1.007825032230
         H            1.832751214607     1.333884471372     0.186940921570     1.007825032230
         H            1.163608214607     0.746121471372    -1.340748078430     1.007825032230
         H            1.832804214607    -1.331924528628    -0.179077078430     1.007825032230
         H            1.163641214607    -0.744187528628     1.348612921570     1.007825032230

  Basis Set: AUG-CC-PVTZ
    Blend: AUG-CC-PVTZ
  Basis Set: (AUG-CC-PVTZ AUX)
    Blend: AUG-CC-PVTZ-JKFIT
	 Reference Energy          =    -211.6048139845406411 [Eh]
	 Singles Energy            =      -0.0000000000000000 [Eh]
	 Same-Spin Energy          =      -0.2176995118599679 [Eh]
	 Opposite-Spin Energy      =      -0.7820609446873084 [Eh]
	 Correlation Energy        =      -0.9997604565472763 [Eh]
	 Total Energy              =    -212.6045744410879195 [Eh]

	 ================> DF-SCS-MP2 Energies <==================
	-----------------------------------------------------------
	 SCS Same-Spin Scale       =       0.3333333333333333 [-]
	 SCS Opposite-Spin Scale   =       1.2000000000000000 [-]
	 SCS Same-Spin Energy      =      -0.0725665039533226 [Eh]
	 SCS Opposite-Spin Energy  =      -0.9384731336247700 [Eh]
	 SCS Correlation Energy    =      -1.0110396375780928 [Eh]
	 SCS Total Energy          =    -212.6158536221187205 [Eh]
	-----------------------------------------------------------

  Dipole Moment: [D]
     X:    -3.2474      Y:    -0.0008      Z:     0.0027     Total:     3.2474

*** Psi4 exiting successfully. Buy a developer a beer!
