                               Psi4 1.3.2 release

  ==> Input File <==

--------------------------------------------------------------------------
#psi4
#
memory 32 gb

molecule  {
1 1
  N       -1.2324810    -0.0000240    -0.0000010
  C       -0.3323220     1.2314210     0.1457240
  C       -0.3322730    -1.2314350    -0.1457220
  C        1.0439290     0.7199610    -0.2571670
  C        1.0439580    -0.7199190     0.2571660
  H       -1.9334909    -0.0851722     0.7453267
  H       -1.8512350     0.0929480    -0.8140510
  H       -0.3668390     1.5267420     1.1955240
  H       -0.7357950     2.0357900    -0.4702450
  H       -0.3667790    -1.5267620    -1.1955210
  H       -0.7357130    -2.0358170     0.4702510
  H        1.8333540     1.3329410     0.1830080
  H        1.1642110     0.7451780    -1.3446810
  H        1.8334070    -1.3328680    -0.1830100
  H        1.1642440    -0.7451310     1.3446800
units angstrom
no_reorient  #important for SAPT in psi4, default
symmetry c1  #important for SAPT in psi4, default
}

set PROPERTIES_ORIGIN ["COM"]
properties('MP2/aug-cc-pvtz', properties = ['dipole'])
--------------------------------------------------------------------------

    Molecular point group: c1
  Charge       = 1
  Multiplicity = 1
  Basis Set: AUG-CC-PVTZ
    Blend: AUG-CC-PVTZ
  Basis Set: (AUG-CC-PVTZ AUX)
    Blend: AUG-CC-PVTZ-JKFIT

    Orbital Energies [Eh]
    ---------------------

    Doubly Occupied:

       1A    -15.868879     2A    -11.467582     3A    -11.467565
       4A    -11.403919     5A    -11.403254     6A     -1.495773
       7A     -1.257157     8A     -1.192340     9A     -1.042289
      10A     -0.995684    11A     -0.945404    12A     -0.909547
      13A     -0.825325    14A     -0.793150    15A     -0.757562
      16A     -0.744173    17A     -0.699175    18A     -0.685823
      19A     -0.672035    20A     -0.658909

  @DF-RHF Final Energy:  -211.60449729670762

   => Energetics <=

    Nuclear Repulsion Energy =            199.0808453728773770
    One-Electron Energy =                -670.7996006349335403
    Two-Electron Energy =                 260.1142579653485427
    Total Energy =                       -211.6044972967076205
  Basis Set: (AUG-CC-PVTZ AUX)
    Blend: AUG-CC-PVTZ-RI
    Molecular point group: c1

    Geometry (in Angstrom), charge = 1, multiplicity = 1:

       Center              X                  Y                   Z               Mass
    ------------   -----------------  -----------------  -----------------  -----------------
         N           -1.230072434683    -0.000133739151     0.000959831764    14.003074004430
         C           -0.329913434683     1.231311260849     0.146684831764    12.000000000000
         C           -0.329864434683    -1.231544739151    -0.144761168236    12.000000000000
         C            1.046337565317     0.719851260849    -0.256206168236    12.000000000000
         C            1.046366565317    -0.720028739151     0.258126831764    12.000000000000
         H           -1.931082334683    -0.085281939151     0.746287531764     1.007825032230
         H           -1.848826434683     0.092838260849    -0.813090168236     1.007825032230
         H           -0.364430434683     1.526632260849     1.196484831764     1.007825032230
         H           -0.733386434683     2.035680260849    -0.469284168236     1.007825032230
         H           -0.364370434683    -1.526871739151    -1.194560168236     1.007825032230
         H           -0.733304434683    -2.035926739151     0.471211831764     1.007825032230
         H            1.835762565317     1.332831260849     0.183968831764     1.007825032230
         H            1.166619565317     0.745068260849    -1.343720168236     1.007825032230
         H            1.835815565317    -1.332977739151    -0.182049168236     1.007825032230
         H            1.166652565317    -0.745240739151     1.345640831764     1.007825032230

  Basis Set: AUG-CC-PVTZ
    Blend: AUG-CC-PVTZ
  Basis Set: (AUG-CC-PVTZ AUX)
    Blend: AUG-CC-PVTZ-JKFIT
	 Reference Energy          =    -211.6044972967076205 [Eh]
	 Singles Energy            =      -0.0000000000000000 [Eh]
	 Same-Spin Energy          =      -0.2175363598927696 [Eh]
	 Opposite-Spin Energy      =      -0.7818377054511283 [Eh]
	 Correlation Energy        =      -0.9993740653438978 [Eh]
	 Total Energy              =    -212.6038713620515068 [Eh]

	 ================> DF-SCS-MP2 Energies <==================
	-----------------------------------------------------------
	 SCS Same-Spin Scale       =       0.3333333333333333 [-]
	 SCS Opposite-Spin Scale   =       1.2000000000000000 [-]
	 SCS Same-Spin Energy      =      -0.0725121199642565 [Eh]
	 SCS Opposite-Spin Energy  =      -0.9382052465413540 [Eh]
	 SCS Correlation Energy    =      -1.0107173665056104 [Eh]
	 SCS Total Energy          =    -212.6152146632132371 [Eh]
	-----------------------------------------------------------

  Dipole Moment: [D]
     X:    -3.3188      Y:     0.0074      Z:    -0.0566     Total:     3.3193

*** Psi4 exiting successfully. Buy a developer a beer!
