                               Psi4 1.3.2 release

  ==> Input File <==

--------------------------------------------------------------------------
#psi4
#
memory 32 gb

molecule  {
1 1
  N       -1.2324810    -0.0000240    -0.0000010
  C       -0.3323220     1.2314210     0.1457240
  C       -0.3322730    -1.2314350    -0.1457220
  C        1.0439290     0.7199610    -0.2571670
  C        1.0439580    -0.7199190     0.2571660
  H       -1.8368423    -0.0942311     0.8246510
  H       -1.8512350     0.0929480    -0.8140510
  H       -0.3668390     1.5267420     1.1955240
  H       -0.7357950     2.0357900    -0.4702450
  H       -0.3667790    -1.5267620    -1.1955210
  H       -0.7357130    -2.0358170     0.4702510
  H        1.8333540     1.3329410     0.1830080
  H        1.1642110     0.7451780    -1.3446810
  H        1.8334070    -1.3328680    -0.1830100
  H        1.1642440    -0.7451310     1.3446800
units angstrom
no_reorient  #important for SAPT in psi4, default
symmetry c1  #important for SAPT in psi4, default
}

set PROPERTIES_ORIGIN ["COM"]
properties('MP2/aug-cc-pvtz', properties = ['dipole'])
--------------------------------------------------------------------------

    Molecular point group: c1
  Charge       = 1
  Multiplicity = 1
  Basis Set: AUG-CC-PVTZ
    Blend: AUG-CC-PVTZ
  Basis Set: (AUG-CC-PVTZ AUX)
    Blend: AUG-CC-PVTZ-JKFIT

    Orbital Energies [Eh]
    ---------------------

    Doubly Occupied:

       1A    -15.869243     2A    -11.467254     3A    -11.467239
       4A    -11.403877     5A    -11.403258     6A     -1.496180
       7A     -1.255516     8A     -1.192741     9A     -1.038497
      10A     -0.997574    11A     -0.955906    12A     -0.905449
      13A     -0.827404    14A     -0.793672    15A     -0.758029
      16A     -0.740009    17A     -0.700617    18A     -0.685868
      19A     -0.672109    20A     -0.659253

  @DF-RHF Final Energy:  -211.60580220434579

   => Energetics <=

    Nuclear Repulsion Energy =            199.1914392900874589
    One-Electron Energy =                -671.0150928541378335
    Two-Electron Energy =                 260.2178513597045253
    Total Energy =                       -211.6058022043458209
  Basis Set: (AUG-CC-PVTZ AUX)
    Blend: AUG-CC-PVTZ-RI
    Molecular point group: c1

    Geometry (in Angstrom), charge = 1, multiplicity = 1:

       Center              X                  Y                   Z               Mass
    ------------   -----------------  -----------------  -----------------  -----------------
         N           -1.231423753895    -0.000007079628    -0.000149262942    14.003074004430
         C           -0.331264753895     1.231437920372     0.145575737058    12.000000000000
         C           -0.331215753895    -1.231418079628    -0.145870262942    12.000000000000
         C            1.044986246105     0.719977920372    -0.257315262942    12.000000000000
         C            1.045015246105    -0.719902079628     0.257017737058    12.000000000000
         H           -1.835785053895    -0.094214179628     0.824502737058     1.007825032230
         H           -1.850177753895     0.092964920372    -0.814199262942     1.007825032230
         H           -0.365781753895     1.526758920372     1.195375737058     1.007825032230
         H           -0.734737753895     2.035806920372    -0.470393262942     1.007825032230
         H           -0.365721753895    -1.526745079628    -1.195669262942     1.007825032230
         H           -0.734655753895    -2.035800079628     0.470102737058     1.007825032230
         H            1.834411246105     1.332957920372     0.182859737058     1.007825032230
         H            1.165268246105     0.745194920372    -1.344829262942     1.007825032230
         H            1.834464246105    -1.332851079628    -0.183158262942     1.007825032230
         H            1.165301246105    -0.745114079628     1.344531737058     1.007825032230

  Basis Set: AUG-CC-PVTZ
    Blend: AUG-CC-PVTZ
  Basis Set: (AUG-CC-PVTZ AUX)
    Blend: AUG-CC-PVTZ-JKFIT
	 Reference Energy          =    -211.6058022043457925 [Eh]
	 Singles Energy            =      -0.0000000000000000 [Eh]
	 Same-Spin Energy          =      -0.2175575966033433 [Eh]
	 Opposite-Spin Energy      =      -0.7819264547054885 [Eh]
	 Correlation Energy        =      -0.9994840513088318 [Eh]
	 Total Energy              =    -212.6052862556546188 [Eh]

	 ================> DF-SCS-MP2 Energies <==================
	-----------------------------------------------------------
	 SCS Same-Spin Scale       =       0.3333333333333333 [-]
	 SCS Opposite-Spin Scale   =       1.2000000000000000 [-]
	 SCS Same-Spin Energy      =      -0.0725191988677811 [Eh]
	 SCS Opposite-Spin Energy  =      -0.9383117456465861 [Eh]
	 SCS Correlation Energy    =      -1.0108309445143673 [Eh]
	 SCS Total Energy          =    -212.6166331488601600 [Eh]
	-----------------------------------------------------------

  Dipole Moment: [D]
     X:    -3.2343      Y:    -0.0011      Z:     0.0080     Total:     3.2343

*** Psi4 exiting successfully. Buy a developer a beer!
