                               Psi4 1.4a3.dev225

  ==> Input File <==

--------------------------------------------------------------------------
#psi4
#
memory 32 gb

molecule  {
1 1
  N       -1.2324810    -0.0000240    -0.0000010
  C       -0.3616946     1.1912384     0.1409689
  C       -0.3322730    -1.2314350    -0.1457220
  C        1.0439290     0.7199610    -0.2571670
  C        1.0439580    -0.7199190     0.2571660
  H       -1.8512360    -0.0930200     0.8140460
  H       -1.8512350     0.0929480    -0.8140510
  H       -0.3668390     1.5267420     1.1955240
  H       -0.7357950     2.0357900    -0.4702450
  H       -0.3667790    -1.5267620    -1.1955210
  H       -0.7357130    -2.0358170     0.4702510
  H        1.8333540     1.3329410     0.1830080
  H        1.1642110     0.7451780    -1.3446810
  H        1.8334070    -1.3328680    -0.1830100
  H        1.1642440    -0.7451310     1.3446800
units angstrom
no_reorient  #important for SAPT in psi4, default
symmetry c1  #important for SAPT in psi4, default
}

set PROPERTIES_ORIGIN ["COM"]
properties('MP2/aug-cc-pvtz', properties = ['dipole'])
--------------------------------------------------------------------------

    Molecular point group: c1
  Charge       = 1
  Multiplicity = 1
  Basis Set: AUG-CC-PVTZ
    Blend: AUG-CC-PVTZ
  Basis Set: (AUG-CC-PVTZ AUX)
    Blend: AUG-CC-PVTZ-JKFIT

    Orbital Energies [Eh]
    ---------------------

    Doubly Occupied:

       1A    -15.873564     2A    -11.468928     3A    -11.464863
       4A    -11.403538     5A    -11.402912     6A     -1.508356
       7A     -1.255533     8A     -1.192477     9A     -1.038534
      10A     -0.999324    11A     -0.960162    12A     -0.911822
      13A     -0.828749    14A     -0.789488    15A     -0.764482
      16A     -0.742274    17A     -0.695619    18A     -0.684462
      19A     -0.666413    20A     -0.657742

  @DF-RHF Final Energy:  -211.60383600261039

   => Energetics <=

    Nuclear Repulsion Energy =            199.7234423559488050
    One-Electron Energy =                -672.0360676232459127
    Two-Electron Energy =                 260.7087892646867431
    Total Energy =                       -211.6038360026103646
  Basis Set: (AUG-CC-PVTZ AUX)
    Blend: AUG-CC-PVTZ-RI
    Molecular point group: c1

    Geometry (in Angstrom), charge = 1, multiplicity = 1:

       Center              X                  Y                   Z               Mass
    ------------   -----------------  -----------------  -----------------  -----------------
         N           -1.226332594228     0.006665531171     0.000790636333    14.003074004430
         C           -0.355546194228     1.197927931171     0.141760536333    12.000000000000
         C           -0.326124594228    -1.224745468829    -0.144930363667    12.000000000000
         C            1.050077405772     0.726650531171    -0.256375363667    12.000000000000
         C            1.050106405772    -0.713229468829     0.257957636333    12.000000000000
         H           -1.845087594228    -0.086330468829     0.814837636333     1.007825032230
         H           -1.845086594228     0.099637531171    -0.813259363667     1.007825032230
         H           -0.360690594228     1.533431531171     1.196315636333     1.007825032230
         H           -0.729646594228     2.042479531171    -0.469453363667     1.007825032230
         H           -0.360630594228    -1.520072468829    -1.194729363667     1.007825032230
         H           -0.729564594228    -2.029127468829     0.471042636333     1.007825032230
         H            1.839502405772     1.339630531171     0.183799636333     1.007825032230
         H            1.170359405772     0.751867531171    -1.343889363667     1.007825032230
         H            1.839555405772    -1.326178468829    -0.182218363667     1.007825032230
         H            1.170392405772    -0.738441468829     1.345471636333     1.007825032230

  Basis Set: AUG-CC-PVTZ
    Blend: AUG-CC-PVTZ
  Basis Set: (AUG-CC-PVTZ AUX)
    Blend: AUG-CC-PVTZ-JKFIT
	 Reference Energy          =    -211.6038360026103931 [Eh]
	 Singles Energy            =      -0.0000000000000000 [Eh]
	 Same-Spin Energy          =      -0.2178167012799668 [Eh]
	 Opposite-Spin Energy      =      -0.7819568611556951 [Eh]
	 Correlation Energy        =      -0.9997735624356618 [Eh]
	 Total Energy              =    -212.6036095650460425 [Eh]

	 ================> DF-SCS-MP2 Energies <==================
	-----------------------------------------------------------
	 SCS Same-Spin Scale       =       0.3333333333333333 [-]
	 SCS Opposite-Spin Scale   =       1.2000000000000000 [-]
	 SCS Same-Spin Energy      =      -0.0726055670933222 [Eh]
	 SCS Opposite-Spin Energy  =      -0.9383482333868340 [Eh]
	 SCS Correlation Energy    =      -1.0109538004801564 [Eh]
	 SCS Total Energy          =    -212.6147898030905594 [Eh]
	-----------------------------------------------------------

  Dipole Moment: [D]
     X:    -3.2930      Y:    -0.0561      Z:    -0.0077     Total:     3.2935

*** Psi4 exiting successfully. Buy a developer a beer!
