                               Psi4 1.3.2 release

  ==> Input File <==

--------------------------------------------------------------------------
#psi4
#
memory 32 gb

molecule  {
1 1
  N       -1.2324810    -0.0000240    -0.0000010
  C       -0.3323220     1.2314210     0.1457240
  C       -0.3322730    -1.2314350    -0.1457220
  C        1.0439290     0.7199610    -0.2571670
  C        1.0439580    -0.7199190     0.2571660
  H       -1.8794537    -0.0905133     0.7920953
  H       -1.8512350     0.0929480    -0.8140510
  H       -0.3668390     1.5267420     1.1955240
  H       -0.7357950     2.0357900    -0.4702450
  H       -0.3667790    -1.5267620    -1.1955210
  H       -0.7357130    -2.0358170     0.4702510
  H        1.8333540     1.3329410     0.1830080
  H        1.1642110     0.7451780    -1.3446810
  H        1.8334070    -1.3328680    -0.1830100
  H        1.1642440    -0.7451310     1.3446800
units angstrom
no_reorient  #important for SAPT in psi4, default
symmetry c1  #important for SAPT in psi4, default
}

set PROPERTIES_ORIGIN ["COM"]
properties('MP2/aug-cc-pvtz', properties = ['dipole'])
--------------------------------------------------------------------------

    Molecular point group: c1
  Charge       = 1
  Multiplicity = 1
  Basis Set: AUG-CC-PVTZ
    Blend: AUG-CC-PVTZ
  Basis Set: (AUG-CC-PVTZ AUX)
    Blend: AUG-CC-PVTZ-JKFIT

    Orbital Energies [Eh]
    ---------------------

    Doubly Occupied:

       1A    -15.869132     2A    -11.467381     3A    -11.467366
       4A    -11.403871     5A    -11.403248     6A     -1.495941
       7A     -1.256193     8A     -1.192559     9A     -1.040075
      10A     -0.996665    11A     -0.951512    12A     -0.907216
      13A     -0.826591    14A     -0.793431    15A     -0.757839
      16A     -0.741803    17A     -0.700071    18A     -0.685838
      19A     -0.672065    20A     -0.659091

  @DF-RHF Final Energy:  -211.60569320575075

   => Energetics <=

    Nuclear Repulsion Energy =            199.1412430986702589
    One-Electron Energy =                -670.9180999743459779
    Two-Electron Energy =                 260.1711636699249652
    Total Energy =                       -211.6056932057507538
  Basis Set: (AUG-CC-PVTZ AUX)
    Blend: AUG-CC-PVTZ-RI
    Molecular point group: c1

    Geometry (in Angstrom), charge = 1, multiplicity = 1:

       Center              X                  Y                   Z               Mass
    ------------   -----------------  -----------------  -----------------  -----------------
         N           -1.230827970785    -0.000059061080     0.000305923609    14.003074004430
         C           -0.330668970785     1.231385938920     0.146030923609    12.000000000000
         C           -0.330619970785    -1.231470061080    -0.145415076391    12.000000000000
         C            1.045582029215     0.719925938920    -0.256860076391    12.000000000000
         C            1.045611029215    -0.719954061080     0.257472923609    12.000000000000
         H           -1.877800670785    -0.090548361080     0.792402223609     1.007825032230
         H           -1.849581970785     0.092912938920    -0.813744076391     1.007825032230
         H           -0.365185970785     1.526706938920     1.195830923609     1.007825032230
         H           -0.734141970785     2.035754938920    -0.469938076391     1.007825032230
         H           -0.365125970785    -1.526797061080    -1.195214076391     1.007825032230
         H           -0.734059970785    -2.035852061080     0.470557923609     1.007825032230
         H            1.835007029215     1.332905938920     0.183314923609     1.007825032230
         H            1.165864029215     0.745142938920    -1.344374076391     1.007825032230
         H            1.835060029215    -1.332903061080    -0.182703076391     1.007825032230
         H            1.165897029215    -0.745166061080     1.344986923609     1.007825032230

  Basis Set: AUG-CC-PVTZ
    Blend: AUG-CC-PVTZ
  Basis Set: (AUG-CC-PVTZ AUX)
    Blend: AUG-CC-PVTZ-JKFIT
	 Reference Energy          =    -211.6056932057507538 [Eh]
	 Singles Energy            =      -0.0000000000000000 [Eh]
	 Same-Spin Energy          =      -0.2175291118173074 [Eh]
	 Opposite-Spin Energy      =      -0.7818618059130142 [Eh]
	 Correlation Energy        =      -0.9993909177303217 [Eh]
	 Total Energy              =    -212.6050841234810775 [Eh]

	 ================> DF-SCS-MP2 Energies <==================
	-----------------------------------------------------------
	 SCS Same-Spin Scale       =       0.3333333333333333 [-]
	 SCS Opposite-Spin Scale   =       1.2000000000000000 [-]
	 SCS Same-Spin Energy      =      -0.0725097039391025 [Eh]
	 SCS Opposite-Spin Energy  =      -0.9382341670956170 [Eh]
	 SCS Correlation Energy    =      -1.0107438710347194 [Eh]
	 SCS Total Energy          =    -212.6164370767854734 [Eh]
	-----------------------------------------------------------

  Dipole Moment: [D]
     X:    -3.2719      Y:     0.0022      Z:    -0.0173     Total:     3.2719

*** Psi4 exiting successfully. Buy a developer a beer!
