                               Psi4 1.3.2 release

  ==> Input File <==

--------------------------------------------------------------------------
#psi4
#
memory 32 gb

molecule  {
1 1
  N       -1.1936955     0.0004863    -0.1556299
  C       -0.3323220     1.2314210     0.1457240
  C       -0.3322730    -1.2314350    -0.1457220
  C        1.0439290     0.7199610    -0.2571670
  C        1.0439580    -0.7199190     0.2571660
  H       -1.8512360    -0.0930200     0.8140460
  H       -1.8512350     0.0929480    -0.8140510
  H       -0.3668390     1.5267420     1.1955240
  H       -0.7357950     2.0357900    -0.4702450
  H       -0.3667790    -1.5267620    -1.1955210
  H       -0.7357130    -2.0358170     0.4702510
  H        1.8333540     1.3329410     0.1830080
  H        1.1642110     0.7451780    -1.3446810
  H        1.8334070    -1.3328680    -0.1830100
  H        1.1642440    -0.7451310     1.3446800
units angstrom
no_reorient  #important for SAPT in psi4, default
symmetry c1  #important for SAPT in psi4, default
}

set PROPERTIES_ORIGIN ["COM"]
properties('MP2/aug-cc-pvtz', properties = ['dipole'])
--------------------------------------------------------------------------

    Molecular point group: c1
  Charge       = 1
  Multiplicity = 1
  Basis Set: AUG-CC-PVTZ
    Blend: AUG-CC-PVTZ
  Basis Set: (AUG-CC-PVTZ AUX)
    Blend: AUG-CC-PVTZ-JKFIT

    Orbital Energies [Eh]
    ---------------------

    Doubly Occupied:

       1A    -15.871741     2A    -11.469497     3A    -11.464886
       4A    -11.403530     5A    -11.402632     6A     -1.501159
       7A     -1.256977     8A     -1.195998     9A     -1.048870
      10A     -0.995673    11A     -0.943898    12A     -0.906935
      13A     -0.824897    14A     -0.794414    15A     -0.762982
      16A     -0.736796    17A     -0.689496    18A     -0.685286
      19A     -0.671833    20A     -0.658646

  @DF-RHF Final Energy:  -211.57331921815563

   => Energetics <=

    Nuclear Repulsion Energy =            199.6819047202134811
    One-Electron Energy =                -671.9381551637898156
    Two-Electron Energy =                 260.6829312254207025
    Total Energy =                       -211.5733192181556319
  Basis Set: (AUG-CC-PVTZ AUX)
    Blend: AUG-CC-PVTZ-RI
    Molecular point group: c1

    Geometry (in Angstrom), charge = 1, multiplicity = 1:

       Center              X                  Y                   Z               Mass
    ------------   -----------------  -----------------  -----------------  -----------------
         N           -1.199971774756     0.000387152228    -0.125396215762    14.003074004430
         C           -0.338598274756     1.231321852228     0.175957684238    12.000000000000
         C           -0.338549274756    -1.231534147772    -0.115488315762    12.000000000000
         C            1.037652725244     0.719861852228    -0.226933315762    12.000000000000
         C            1.037681725244    -0.720018147772     0.287399684238    12.000000000000
         H           -1.857512274756    -0.093119147772     0.844279684238     1.007825032230
         H           -1.857511274756     0.092848852228    -0.783817315762     1.007825032230
         H           -0.373115274756     1.526642852228     1.225757684238     1.007825032230
         H           -0.742071274756     2.035690852228    -0.440011315762     1.007825032230
         H           -0.373055274756    -1.526861147772    -1.165287315762     1.007825032230
         H           -0.741989274756    -2.035916147772     0.500484684238     1.007825032230
         H            1.827077725244     1.332841852228     0.213241684238     1.007825032230
         H            1.157934725244     0.745078852228    -1.314447315762     1.007825032230
         H            1.827130725244    -1.332967147772    -0.152776315762     1.007825032230
         H            1.157967725244    -0.745230147772     1.374913684238     1.007825032230

  Basis Set: AUG-CC-PVTZ
    Blend: AUG-CC-PVTZ
  Basis Set: (AUG-CC-PVTZ AUX)
    Blend: AUG-CC-PVTZ-JKFIT
	 Reference Energy          =    -211.5733192181556319 [Eh]
	 Singles Energy            =      -0.0000000000000000 [Eh]
	 Same-Spin Energy          =      -0.2186283623602207 [Eh]
	 Opposite-Spin Energy      =      -0.7842554696395024 [Eh]
	 Correlation Energy        =      -1.0028838319997231 [Eh]
	 Total Energy              =    -212.5762030501553568 [Eh]

	 ================> DF-SCS-MP2 Energies <==================
	-----------------------------------------------------------
	 SCS Same-Spin Scale       =       0.3333333333333333 [-]
	 SCS Opposite-Spin Scale   =       1.2000000000000000 [-]
	 SCS Same-Spin Energy      =      -0.0728761207867402 [Eh]
	 SCS Opposite-Spin Energy  =      -0.9411065635674029 [Eh]
	 SCS Correlation Energy    =      -1.0139826843541431 [Eh]
	 SCS Total Energy          =    -212.5873019025097790 [Eh]
	-----------------------------------------------------------

  Dipole Moment: [D]
     X:    -3.3117      Y:     0.0379      Z:     0.2135     Total:     3.3188

*** Psi4 exiting successfully. Buy a developer a beer!
