                               Psi4 1.3.2 release

  ==> Input File <==

--------------------------------------------------------------------------
#psi4
#
memory 32 gb

molecule  {
1 1
  N       -1.2324810    -0.0000240    -0.0000010
  C       -0.2735768     1.3117862     0.1552341
  C       -0.3322730    -1.2314350    -0.1457220
  C        1.0439290     0.7199610    -0.2571670
  C        1.0439580    -0.7199190     0.2571660
  H       -1.8512360    -0.0930200     0.8140460
  H       -1.8512350     0.0929480    -0.8140510
  H       -0.3668390     1.5267420     1.1955240
  H       -0.7357950     2.0357900    -0.4702450
  H       -0.3667790    -1.5267620    -1.1955210
  H       -0.7357130    -2.0358170     0.4702510
  H        1.8333540     1.3329410     0.1830080
  H        1.1642110     0.7451780    -1.3446810
  H        1.8334070    -1.3328680    -0.1830100
  H        1.1642440    -0.7451310     1.3446800
units angstrom
no_reorient  #important for SAPT in psi4, default
symmetry c1  #important for SAPT in psi4, default
}

set PROPERTIES_ORIGIN ["COM"]
properties('MP2/aug-cc-pvtz', properties = ['dipole'])
--------------------------------------------------------------------------

    Molecular point group: c1
  Charge       = 1
  Multiplicity = 1
  Basis Set: AUG-CC-PVTZ
    Blend: AUG-CC-PVTZ
  Basis Set: (AUG-CC-PVTZ AUX)
    Blend: AUG-CC-PVTZ-JKFIT

    Orbital Energies [Eh]
    ---------------------

    Doubly Occupied:

       1A    -15.857816     2A    -11.474431     3A    -11.463530
       4A    -11.405440     5A    -11.404412     6A     -1.474273
       7A     -1.257019     8A     -1.193105     9A     -1.040851
      10A     -0.994957    11A     -0.943465    12A     -0.894034
      13A     -0.828258    14A     -0.801991    15A     -0.753045
      16A     -0.725251    17A     -0.707252    18A     -0.691662
      19A     -0.677225    20A     -0.661235

  @DF-RHF Final Energy:  -211.59933142171658

   => Energetics <=

    Nuclear Repulsion Energy =            198.1103197415978343
    One-Electron Energy =                -668.9207976083911262
    Two-Electron Energy =                 259.2111464450766789
    Total Energy =                       -211.5993314217166130
  Basis Set: (AUG-CC-PVTZ AUX)
    Blend: AUG-CC-PVTZ-RI
    Molecular point group: c1

    Geometry (in Angstrom), charge = 1, multiplicity = 1:

       Center              X                  Y                   Z               Mass
    ------------   -----------------  -----------------  -----------------  -----------------
         N           -1.241002324701    -0.013403101217    -0.001584214596    14.003074004430
         C           -0.282098124701     1.298407098783     0.153650885404    12.000000000000
         C           -0.340794324701    -1.244814101217    -0.147305214596    12.000000000000
         C            1.035407675299     0.706581898783    -0.258750214596    12.000000000000
         C            1.035436675299    -0.733298101217     0.255582785404    12.000000000000
         H           -1.859757324701    -0.106399101217     0.812462785404     1.007825032230
         H           -1.859756324701     0.079568898783    -0.815634214596     1.007825032230
         H           -0.375360324701     1.513362898783     1.193940785404     1.007825032230
         H           -0.744316324701     2.022410898783    -0.471828214596     1.007825032230
         H           -0.375300324701    -1.540141101217    -1.197104214596     1.007825032230
         H           -0.744234324701    -2.049196101217     0.468667785404     1.007825032230
         H            1.824832675299     1.319561898783     0.181424785404     1.007825032230
         H            1.155689675299     0.731798898783    -1.346264214596     1.007825032230
         H            1.824885675299    -1.346247101217    -0.184593214596     1.007825032230
         H            1.155722675299    -0.758510101217     1.343096785404     1.007825032230

  Basis Set: AUG-CC-PVTZ
    Blend: AUG-CC-PVTZ
  Basis Set: (AUG-CC-PVTZ AUX)
    Blend: AUG-CC-PVTZ-JKFIT
	 Reference Energy          =    -211.5993314217165846 [Eh]
	 Singles Energy            =      -0.0000000000000000 [Eh]
	 Same-Spin Energy          =      -0.2173554555764737 [Eh]
	 Opposite-Spin Energy      =      -0.7822979882337557 [Eh]
	 Correlation Energy        =      -0.9996534438102294 [Eh]
	 Total Energy              =    -212.5989848655268020 [Eh]

	 ================> DF-SCS-MP2 Energies <==================
	-----------------------------------------------------------
	 SCS Same-Spin Scale       =       0.3333333333333333 [-]
	 SCS Opposite-Spin Scale   =       1.2000000000000000 [-]
	 SCS Same-Spin Energy      =      -0.0724518185254912 [Eh]
	 SCS Opposite-Spin Energy  =      -0.9387575858805068 [Eh]
	 SCS Correlation Energy    =      -1.0112094044059980 [Eh]
	 SCS Total Energy          =    -212.6105408261225875 [Eh]
	-----------------------------------------------------------

  Dipole Moment: [D]
     X:    -3.1211      Y:     0.1357      Z:     0.0174     Total:     3.1241

*** Psi4 exiting successfully. Buy a developer a beer!
