                               Psi4 1.3.2 release

  ==> Input File <==

--------------------------------------------------------------------------
#psi4
#
memory 32 gb

molecule  {
-1 1
  S        2.0766110     0.0000000     0.0075520
  O        2.3891470     0.0000020     1.4601760
  O        2.4489030    -1.2526260    -0.7015720
  O        2.4489040     1.2526220    -0.7015770
  C        0.2698850     0.0000000    -0.0431290
  C       -1.8281600    -1.2204390    -0.0177060
  C       -1.8281600     1.2204390    -0.0177050
  C       -0.4294560     1.2077840    -0.0326800
  C       -0.4294570    -1.2077850    -0.0326810
  C       -2.5145250     0.0000000     0.0013750
  C       -2.5812260    -2.5268720     0.0200930
  C       -2.5812240     2.5268730     0.0200930
  H        0.1401440     2.1341360    -0.0762120
  H        0.1401420    -2.1341370    -0.0762130
  H       -3.6043007     0.0000009     0.2012606
  H       -2.0599700    -3.2944780    -0.5602250
  H       -2.6805960    -2.9020040     1.0455530
  H       -3.5901000    -2.4148770    -0.3912530
  H       -2.6805180     2.9020500     1.0455440
  H       -2.0600100     3.2944550    -0.5602960
  H       -3.5901270     2.4148600    -0.3911760
units angstrom
no_reorient  #important for SAPT in psi4, default
symmetry c1  #important for SAPT in psi4, default
}

set PROPERTIES_ORIGIN ["COM"]
properties('MP2/aug-cc-pvtz', properties = ['dipole'])
--------------------------------------------------------------------------

    Molecular point group: c1
  Charge       = -1
  Multiplicity = 1
  Basis Set: AUG-CC-PVTZ
    Blend: AUG-CC-PVTZ
  Basis Set: (AUG-CC-PVTZ AUX)
    Blend: AUG-CC-PVTZ-JKFIT

    Orbital Energies [Eh]
    ---------------------

    Doubly Occupied:

       1A    -92.014035     2A    -20.350928     3A    -20.350906
       4A    -20.350050     5A    -11.134783     6A    -11.134732
       7A    -11.131786     8A    -11.131786     9A    -11.123798
      10A    -11.123571    11A    -11.111994    12A    -11.111921
      13A     -8.974757    14A     -6.660473    15A     -6.659683
      16A     -6.659601    17A     -1.269918    18A     -1.126467
      19A     -1.124627    20A     -1.044935    21A     -0.952141
      22A     -0.922016    23A     -0.840407    24A     -0.820403
      25A     -0.729376    26A     -0.675660    27A     -0.624526
      28A     -0.566094    29A     -0.541324    30A     -0.512492
      31A     -0.485601    32A     -0.475230    33A     -0.475149
      34A     -0.463351    35A     -0.461428    36A     -0.454443
      37A     -0.450398    38A     -0.426322    39A     -0.399471
      40A     -0.372359    41A     -0.369809    42A     -0.331491
      43A     -0.330760    44A     -0.296580    45A     -0.290629
      46A     -0.269595    47A     -0.248868    48A     -0.210179
      49A     -0.208826

  @DF-RHF Final Energy:  -930.53342400865336

   => Energetics <=

    Nuclear Repulsion Energy =            813.9935315321408780
    One-Electron Energy =               -2909.4625540449487744
    Two-Electron Energy =                1164.9355985041545409
    Total Energy =                       -930.5334240086533555
  Basis Set: (AUG-CC-PVTZ AUX)
    Blend: AUG-CC-PVTZ-RI
    Molecular point group: c1

    Geometry (in Angstrom), charge = -1, multiplicity = 1:

       Center              X                  Y                   Z               Mass
    ------------   -----------------  -----------------  -----------------  -----------------
         S            1.969933928398     0.000000140756     0.006663741202    31.972071174400
         O            2.282469928398     0.000002140756     1.459287741202    15.994914619570
         O            2.342225928398    -1.252625859244    -0.702460258798    15.994914619570
         O            2.342226928398     1.252622140756    -0.702465258798    15.994914619570
         C            0.163207928398     0.000000140756    -0.044017258798    12.000000000000
         C           -1.934837071602    -1.220438859244    -0.018594258798    12.000000000000
         C           -1.934837071602     1.220439140756    -0.018593258798    12.000000000000
         C           -0.536133071602     1.207784140756    -0.033568258798    12.000000000000
         C           -0.536134071602    -1.207784859244    -0.033569258798    12.000000000000
         C           -2.621202071602     0.000000140756     0.000486741202    12.000000000000
         C           -2.687903071602    -2.526871859244     0.019204741202    12.000000000000
         C           -2.687901071602     2.526873140756     0.019204741202    12.000000000000
         H            0.033466928398     2.134136140756    -0.077100258798     1.007825032230
         H            0.033464928398    -2.134136859244    -0.077101258798     1.007825032230
         H           -3.710977771602     0.000001040756     0.200372341202     1.007825032230
         H           -2.166647071602    -3.294477859244    -0.561113258798     1.007825032230
         H           -2.787273071602    -2.902003859244     1.044664741202     1.007825032230
         H           -3.696777071602    -2.414876859244    -0.392141258798     1.007825032230
         H           -2.787195071602     2.902050140756     1.044655741202     1.007825032230
         H           -2.166687071602     3.294455140756    -0.561184258798     1.007825032230
         H           -3.696804071602     2.414860140756    -0.392064258798     1.007825032230

  Basis Set: AUG-CC-PVTZ
    Blend: AUG-CC-PVTZ
  Basis Set: (AUG-CC-PVTZ AUX)
    Blend: AUG-CC-PVTZ-JKFIT
	 Reference Energy          =    -930.5334240086533555 [Eh]
	 Singles Energy            =      -0.0000000000000000 [Eh]
	 Same-Spin Energy          =      -0.6273938969825030 [Eh]
	 Opposite-Spin Energy      =      -1.8689587761840811 [Eh]
	 Correlation Energy        =      -2.4963526731665842 [Eh]
	 Total Energy              =    -933.0297766818199534 [Eh]

	 ================> DF-SCS-MP2 Energies <==================
	-----------------------------------------------------------
	 SCS Same-Spin Scale       =       0.3333333333333333 [-]
	 SCS Opposite-Spin Scale   =       1.2000000000000000 [-]
	 SCS Same-Spin Energy      =      -0.2091312989941677 [Eh]
	 SCS Opposite-Spin Energy  =      -2.2427505314208971 [Eh]
	 SCS Correlation Energy    =      -2.4518818304150649 [Eh]
	 SCS Total Energy          =    -932.9853058390684737 [Eh]
	-----------------------------------------------------------

  Dipole Moment: [D]
     X:   -10.2661      Y:     0.0000      Z:     0.0458     Total:    10.2662

*** Psi4 exiting successfully. Buy a developer a beer!
