                               Psi4 1.3.2 release

  ==> Input File <==

--------------------------------------------------------------------------
#psi4
#
memory 32 gb

molecule  {
-1 1
  S        2.0766110     0.0000000     0.0075520
  O        2.3891470     0.0000020     1.4601760
  O        2.4489030    -1.2526260    -0.7015720
  O        2.4489040     1.2526220    -0.7015770
  C        0.2698850     0.0000000    -0.0431290
  C       -1.8281600    -1.2204390    -0.0177060
  C       -1.8281600     1.2204390    -0.0177050
  C       -0.4294560     1.2077840    -0.0326800
  C       -0.4294570    -1.2077850    -0.0326810
  C       -2.5145250     0.0000000     0.0013750
  C       -2.5812260    -2.5268720     0.0200930
  C       -2.5812240     2.5268730     0.0200930
  H        0.1401440     2.1341360    -0.0762120
  H        0.1401420    -2.1341370    -0.0762130
  H       -3.6048343     0.0000009     0.1512635
  H       -2.0599700    -3.2944780    -0.5602250
  H       -2.6805960    -2.9020040     1.0455530
  H       -3.5901000    -2.4148770    -0.3912530
  H       -2.6805180     2.9020500     1.0455440
  H       -2.0600100     3.2944550    -0.5602960
  H       -3.5901270     2.4148600    -0.3911760
units angstrom
no_reorient  #important for SAPT in psi4, default
symmetry c1  #important for SAPT in psi4, default
}

set PROPERTIES_ORIGIN ["COM"]
properties('MP2/aug-cc-pvtz', properties = ['dipole'])
--------------------------------------------------------------------------

    Molecular point group: c1
  Charge       = -1
  Multiplicity = 1
  Basis Set: AUG-CC-PVTZ
    Blend: AUG-CC-PVTZ
  Basis Set: (AUG-CC-PVTZ AUX)
    Blend: AUG-CC-PVTZ-JKFIT

    Orbital Energies [Eh]
    ---------------------

    Doubly Occupied:

       1A    -92.013947     2A    -20.350849     3A    -20.350827
       4A    -20.349971     5A    -11.134636     6A    -11.134588
       7A    -11.131814     8A    -11.131814     9A    -11.123393
      10A    -11.123145    11A    -11.111934    12A    -11.111860
      13A     -8.974669    14A     -6.660384    15A     -6.659595
      16A     -6.659513    17A     -1.269837    18A     -1.126389
      19A     -1.124548    20A     -1.044906    21A     -0.952092
      22A     -0.922075    23A     -0.840537    24A     -0.820357
      25A     -0.729692    26A     -0.675596    27A     -0.624582
      28A     -0.566840    29A     -0.541287    30A     -0.512883
      31A     -0.485463    32A     -0.475233    33A     -0.475165
      34A     -0.463289    35A     -0.461363    36A     -0.454701
      37A     -0.450339    38A     -0.426313    39A     -0.399529
      40A     -0.372285    41A     -0.370477    42A     -0.331418
      43A     -0.330656    44A     -0.296545    45A     -0.290551
      46A     -0.269504    47A     -0.248795    48A     -0.210243
      49A     -0.208753

  @DF-RHF Final Energy:  -930.53448383311695

   => Energetics <=

    Nuclear Repulsion Energy =            814.0242290053934084
    One-Electron Energy =               -2909.5270610964012121
    Two-Electron Energy =                1164.9683482578907388
    Total Energy =                       -930.5344838331170649
  Basis Set: (AUG-CC-PVTZ AUX)
    Blend: AUG-CC-PVTZ-RI
    Molecular point group: c1

    Geometry (in Angstrom), charge = -1, multiplicity = 1:

       Center              X                  Y                   Z               Mass
    ------------   -----------------  -----------------  -----------------  -----------------
         S            1.969936834864     0.000000140756     0.006936070449    31.972071174400
         O            2.282472834864     0.000002140756     1.459560070449    15.994914619570
         O            2.342228834864    -1.252625859244    -0.702187929551    15.994914619570
         O            2.342229834864     1.252622140756    -0.702192929551    15.994914619570
         C            0.163210834864     0.000000140756    -0.043744929551    12.000000000000
         C           -1.934834165136    -1.220438859244    -0.018321929551    12.000000000000
         C           -1.934834165136     1.220439140756    -0.018320929551    12.000000000000
         C           -0.536130165136     1.207784140756    -0.033295929551    12.000000000000
         C           -0.536131165136    -1.207784859244    -0.033296929551    12.000000000000
         C           -2.621199165136     0.000000140756     0.000759070449    12.000000000000
         C           -2.687900165136    -2.526871859244     0.019477070449    12.000000000000
         C           -2.687898165136     2.526873140756     0.019477070449    12.000000000000
         H            0.033469834864     2.134136140756    -0.076827929551     1.007825032230
         H            0.033467834864    -2.134136859244    -0.076828929551     1.007825032230
         H           -3.711508465136     0.000001040756     0.150647570449     1.007825032230
         H           -2.166644165136    -3.294477859244    -0.560840929551     1.007825032230
         H           -2.787270165136    -2.902003859244     1.044937070449     1.007825032230
         H           -3.696774165136    -2.414876859244    -0.391868929551     1.007825032230
         H           -2.787192165136     2.902050140756     1.044928070449     1.007825032230
         H           -2.166684165136     3.294455140756    -0.560911929551     1.007825032230
         H           -3.696801165136     2.414860140756    -0.391791929551     1.007825032230

  Basis Set: AUG-CC-PVTZ
    Blend: AUG-CC-PVTZ
  Basis Set: (AUG-CC-PVTZ AUX)
    Blend: AUG-CC-PVTZ-JKFIT
	 Reference Energy          =    -930.5344838331169512 [Eh]
	 Singles Energy            =      -0.0000000000000000 [Eh]
	 Same-Spin Energy          =      -0.6273383898530651 [Eh]
	 Opposite-Spin Energy      =      -1.8688204607178602 [Eh]
	 Correlation Energy        =      -2.4961588505709251 [Eh]
	 Total Energy              =    -933.0306426836879155 [Eh]

	 ================> DF-SCS-MP2 Energies <==================
	-----------------------------------------------------------
	 SCS Same-Spin Scale       =       0.3333333333333333 [-]
	 SCS Opposite-Spin Scale   =       1.2000000000000000 [-]
	 SCS Same-Spin Energy      =      -0.2091127966176884 [Eh]
	 SCS Opposite-Spin Energy  =      -2.2425845528614321 [Eh]
	 SCS Correlation Energy    =      -2.4516973494791205 [Eh]
	 SCS Total Energy          =    -932.9861811825960558 [Eh]
	-----------------------------------------------------------

  Dipole Moment: [D]
     X:   -10.2826      Y:     0.0000      Z:     0.0181     Total:    10.2826

*** Psi4 exiting successfully. Buy a developer a beer!
