                               Psi4 1.3.2 release

  ==> Input File <==

--------------------------------------------------------------------------
#psi4
#
memory 32 gb

molecule  {
-1 1
  S        2.0766110     0.0000000     0.0075520
  O        2.3891470     0.0000020     1.4601760
  O        2.4489030    -1.2526260    -0.7015720
  O        2.4489040     1.2526220    -0.7015770
  C        0.2698850     0.0000000    -0.0431290
  C       -1.8281600    -1.2204390    -0.0177060
  C       -1.8281600     1.2204390    -0.0177050
  C       -0.4294560     1.2077840    -0.0326800
  C       -0.4294570    -1.2077850    -0.0326810
  C       -2.5145250     0.0000000     0.0013750
  C       -2.5812260    -2.5268720     0.0200930
  C       -2.5812240     2.5268730     0.0200930
  H        0.1401440     2.1341360    -0.0762120
  H        0.1401420    -2.1341370    -0.0762130
  H       -3.6037672     0.0000009     0.2512578
  H       -2.0599700    -3.2944780    -0.5602250
  H       -2.6805960    -2.9020040     1.0455530
  H       -3.5901000    -2.4148770    -0.3912530
  H       -2.6805180     2.9020500     1.0455440
  H       -2.0600100     3.2944550    -0.5602960
  H       -3.5901270     2.4148600    -0.3911760
units angstrom
no_reorient  #important for SAPT in psi4, default
symmetry c1  #important for SAPT in psi4, default
}

set PROPERTIES_ORIGIN ["COM"]
properties('MP2/aug-cc-pvtz', properties = ['dipole'])
--------------------------------------------------------------------------

    Molecular point group: c1
  Charge       = -1
  Multiplicity = 1
  Basis Set: AUG-CC-PVTZ
    Blend: AUG-CC-PVTZ
  Basis Set: (AUG-CC-PVTZ AUX)
    Blend: AUG-CC-PVTZ-JKFIT

    Orbital Energies [Eh]
    ---------------------

    Doubly Occupied:

       1A    -92.014153     2A    -20.351035     3A    -20.351012
       4A    -20.350159     5A    -11.134984     6A    -11.134929
       7A    -11.131759     8A    -11.131759     9A    -11.124646
      10A    -11.123810    11A    -11.112079    12A    -11.112007
      13A     -8.974875    14A     -6.660592    15A     -6.659800
      16A     -6.659719    17A     -1.270028    18A     -1.126571
      19A     -1.124733    20A     -1.044983    21A     -0.952210
      22A     -0.921950    23A     -0.840248    24A     -0.820468
      25A     -0.728991    26A     -0.675748    27A     -0.624469
      28A     -0.565171    29A     -0.541381    30A     -0.512001
      31A     -0.485745    32A     -0.475229    33A     -0.475131
      34A     -0.463431    35A     -0.461518    36A     -0.454082
      37A     -0.450480    38A     -0.426340    39A     -0.399339
      40A     -0.372461    41A     -0.369035    42A     -0.331590
      43A     -0.330887    44A     -0.296623    45A     -0.290733
      46A     -0.269718    47A     -0.248967    48A     -0.210116
      49A     -0.208927

  @DF-RHF Final Energy:  -930.53198524591210

   => Energetics <=

    Nuclear Repulsion Energy =            813.9541631224042249
    One-Electron Energy =               -2909.3790604417445138
    Two-Electron Energy =                1164.8929120734283060
    Total Energy =                       -930.5319852459119829
  Basis Set: (AUG-CC-PVTZ AUX)
    Blend: AUG-CC-PVTZ-RI
    Molecular point group: c1

    Geometry (in Angstrom), charge = -1, multiplicity = 1:

       Center              X                  Y                   Z               Mass
    ------------   -----------------  -----------------  -----------------  -----------------
         S            1.969931022476     0.000000140756     0.006391411411    31.972071174400
         O            2.282467022476     0.000002140756     1.459015411411    15.994914619570
         O            2.342223022476    -1.252625859244    -0.702732588589    15.994914619570
         O            2.342224022476     1.252622140756    -0.702737588589    15.994914619570
         C            0.163205022476     0.000000140756    -0.044289588589    12.000000000000
         C           -1.934839977524    -1.220438859244    -0.018866588589    12.000000000000
         C           -1.934839977524     1.220439140756    -0.018865588589    12.000000000000
         C           -0.536135977524     1.207784140756    -0.033840588589    12.000000000000
         C           -0.536136977524    -1.207784859244    -0.033841588589    12.000000000000
         C           -2.621204977524     0.000000140756     0.000214411411    12.000000000000
         C           -2.687905977524    -2.526871859244     0.018932411411    12.000000000000
         C           -2.687903977524     2.526873140756     0.018932411411    12.000000000000
         H            0.033464022476     2.134136140756    -0.077372588589     1.007825032230
         H            0.033462022476    -2.134136859244    -0.077373588589     1.007825032230
         H           -3.710447177524     0.000001040756     0.250097211411     1.007825032230
         H           -2.166649977524    -3.294477859244    -0.561385588589     1.007825032230
         H           -2.787275977524    -2.902003859244     1.044392411411     1.007825032230
         H           -3.696779977524    -2.414876859244    -0.392413588589     1.007825032230
         H           -2.787197977524     2.902050140756     1.044383411411     1.007825032230
         H           -2.166689977524     3.294455140756    -0.561456588589     1.007825032230
         H           -3.696806977524     2.414860140756    -0.392336588589     1.007825032230

  Basis Set: AUG-CC-PVTZ
    Blend: AUG-CC-PVTZ
  Basis Set: (AUG-CC-PVTZ AUX)
    Blend: AUG-CC-PVTZ-JKFIT
	 Reference Energy          =    -930.5319852459120966 [Eh]
	 Singles Energy            =      -0.0000000000000000 [Eh]
	 Same-Spin Energy          =      -0.6274661324427806 [Eh]
	 Opposite-Spin Energy      =      -1.8691396098453934 [Eh]
	 Correlation Energy        =      -2.4966057422881738 [Eh]
	 Total Energy              =    -933.0285909882002215 [Eh]

	 ================> DF-SCS-MP2 Energies <==================
	-----------------------------------------------------------
	 SCS Same-Spin Scale       =       0.3333333333333333 [-]
	 SCS Opposite-Spin Scale   =       1.2000000000000000 [-]
	 SCS Same-Spin Energy      =      -0.2091553774809269 [Eh]
	 SCS Opposite-Spin Energy  =      -2.2429675318144722 [Eh]
	 SCS Correlation Energy    =      -2.4521229092953991 [Eh]
	 SCS Total Energy          =    -932.9841081552075366 [Eh]
	-----------------------------------------------------------

  Dipole Moment: [D]
     X:   -10.2438      Y:     0.0000      Z:     0.0727     Total:    10.2440

*** Psi4 exiting successfully. Buy a developer a beer!
