                               Psi4 1.3.2 release

  ==> Input File <==

--------------------------------------------------------------------------
#psi4
#
memory 32 gb

molecule  {
-1 1
  S        2.0766110     0.0000000     0.0075520
  O        2.3891470     0.0000020     1.4601760
  O        2.4489030    -1.2526260    -0.7015720
  O        2.4489040     1.2526220    -0.7015770
  C        0.2698850     0.0000000    -0.0431290
  C       -1.8281600    -1.2204390    -0.0177060
  C       -1.8281600     1.2204390    -0.0177050
  C       -0.4294560     1.2077840    -0.0326800
  C       -0.4334700    -1.2077851     0.2172868
  C       -2.5145250     0.0000000     0.0013750
  C       -2.5812260    -2.5268720     0.0200930
  C       -2.5812240     2.5268730     0.0200930
  H        0.1401440     2.1341360    -0.0762120
  H        0.1401420    -2.1341370    -0.0762130
  H       -3.6064350     0.0000010     0.0012720
  H       -2.0599700    -3.2944780    -0.5602250
  H       -2.6805960    -2.9020040     1.0455530
  H       -3.5901000    -2.4148770    -0.3912530
  H       -2.6805180     2.9020500     1.0455440
  H       -2.0600100     3.2944550    -0.5602960
  H       -3.5901270     2.4148600    -0.3911760
units angstrom
no_reorient  #important for SAPT in psi4, default
symmetry c1  #important for SAPT in psi4, default
}

set PROPERTIES_ORIGIN ["COM"]
properties('MP2/aug-cc-pvtz', properties = ['dipole'])
--------------------------------------------------------------------------

    Molecular point group: c1
  Charge       = -1
  Multiplicity = 1
  Basis Set: AUG-CC-PVTZ
    Blend: AUG-CC-PVTZ
  Basis Set: (AUG-CC-PVTZ AUX)
    Blend: AUG-CC-PVTZ-JKFIT

    Orbital Energies [Eh]
    ---------------------

    Doubly Occupied:

       1A    -92.014140     2A    -20.351108     3A    -20.350956
       4A    -20.350132     5A    -11.138899     6A    -11.137821
       7A    -11.133280     8A    -11.131979     9A    -11.128813
      10A    -11.122020    11A    -11.116774    12A    -11.111392
      13A     -8.974884    14A     -6.660613    15A     -6.659796
      16A     -6.659721    17A     -1.269936    18A     -1.126463
      19A     -1.124601    20A     -1.043887    21A     -0.952013
      22A     -0.920433    23A     -0.841353    24A     -0.818424
      25A     -0.729106    26A     -0.673742    27A     -0.622809
      28A     -0.562089    29A     -0.538165    30A     -0.513350
      31A     -0.486136    32A     -0.476629    33A     -0.474238
      34A     -0.463381    35A     -0.461508    36A     -0.454638
      37A     -0.444273    38A     -0.424814    39A     -0.396842
      40A     -0.374712    41A     -0.360550    42A     -0.331520
      43A     -0.330530    44A     -0.296607    45A     -0.290434
      46A     -0.269982    47A     -0.248895    48A     -0.209524
      49A     -0.208770

  @DF-RHF Final Energy:  -930.51423420477909

   => Energetics <=

    Nuclear Repulsion Energy =            813.3126127950578166
    One-Electron Energy =               -2908.0883264736244200
    Two-Electron Energy =                1164.2614794737876309
    Total Energy =                       -930.5142342047790862
  Basis Set: (AUG-CC-PVTZ AUX)
    Blend: AUG-CC-PVTZ-RI
    Molecular point group: c1

    Geometry (in Angstrom), charge = -1, multiplicity = 1:

       Center              X                  Y                   Z               Mass
    ------------   -----------------  -----------------  -----------------  -----------------
         S            1.970205818098     0.000000146697    -0.008458681193    31.972071174400
         O            2.282741818098     0.000002146697     1.444165318807    15.994914619570
         O            2.342497818098    -1.252625853303    -0.717582681193    15.994914619570
         O            2.342498818098     1.252622146697    -0.717587681193    15.994914619570
         C            0.163479818098     0.000000146697    -0.059139681193    12.000000000000
         C           -1.934565181902    -1.220438853303    -0.033716681193    12.000000000000
         C           -1.934565181902     1.220439146697    -0.033715681193    12.000000000000
         C           -0.535861181902     1.207784146697    -0.048690681193    12.000000000000
         C           -0.539875181902    -1.207784953303     0.201276118807    12.000000000000
         C           -2.620930181902     0.000000146697    -0.014635681193    12.000000000000
         C           -2.687631181902    -2.526871853303     0.004082318807    12.000000000000
         C           -2.687629181902     2.526873146697     0.004082318807    12.000000000000
         H            0.033738818098     2.134136146697    -0.092222681193     1.007825032230
         H            0.033736818098    -2.134136853303    -0.092223681193     1.007825032230
         H           -3.712840181902     0.000001146697    -0.014738681193     1.007825032230
         H           -2.166375181902    -3.294477853303    -0.576235681193     1.007825032230
         H           -2.787001181902    -2.902003853303     1.029542318807     1.007825032230
         H           -3.696505181902    -2.414876853303    -0.407263681193     1.007825032230
         H           -2.786923181902     2.902050146697     1.029533318807     1.007825032230
         H           -2.166415181902     3.294455146697    -0.576306681193     1.007825032230
         H           -3.696532181902     2.414860146697    -0.407186681193     1.007825032230

  Basis Set: AUG-CC-PVTZ
    Blend: AUG-CC-PVTZ
  Basis Set: (AUG-CC-PVTZ AUX)
    Blend: AUG-CC-PVTZ-JKFIT
	 Reference Energy          =    -930.5142342047790862 [Eh]
	 Singles Energy            =      -0.0000000000000000 [Eh]
	 Same-Spin Energy          =      -0.6284392243973849 [Eh]
	 Opposite-Spin Energy      =      -1.8717362969836677 [Eh]
	 Correlation Energy        =      -2.5001755213810526 [Eh]
	 Total Energy              =    -933.0144097261601246 [Eh]

	 ================> DF-SCS-MP2 Energies <==================
	-----------------------------------------------------------
	 SCS Same-Spin Scale       =       0.3333333333333333 [-]
	 SCS Opposite-Spin Scale   =       1.2000000000000000 [-]
	 SCS Same-Spin Energy      =      -0.2094797414657950 [Eh]
	 SCS Opposite-Spin Energy  =      -2.2460835563804014 [Eh]
	 SCS Correlation Energy    =      -2.4555632978461963 [Eh]
	 SCS Total Energy          =    -932.9697975026252834 [Eh]
	-----------------------------------------------------------

  Dipole Moment: [D]
     X:   -10.3516      Y:     0.1331      Z:    -0.0784     Total:    10.3527

*** Psi4 exiting successfully. Buy a developer a beer!
