                               Psi4 1.3.2 release

  ==> Input File <==

--------------------------------------------------------------------------
#psi4
#
memory 32 gb

molecule  {
-1 1
  S        2.0766110     0.0000000     0.0075520
  O        2.3891470     0.0000020     1.4601760
  O        2.4489030    -1.2526260    -0.7015720
  O        2.4489040     1.2526220    -0.7015770
  C        0.2698850     0.0000000    -0.0431290
  C       -1.8281600    -1.2204390    -0.0177060
  C       -1.8281600     1.2204390    -0.0177050
  C       -0.4294560     1.2077840    -0.0326800
  C       -0.4326674    -1.2077851     0.1672932
  C       -2.5145250     0.0000000     0.0013750
  C       -2.5812260    -2.5268720     0.0200930
  C       -2.5812240     2.5268730     0.0200930
  H        0.1401440     2.1341360    -0.0762120
  H        0.1401420    -2.1341370    -0.0762130
  H       -3.6064350     0.0000010     0.0012720
  H       -2.0599700    -3.2944780    -0.5602250
  H       -2.6805960    -2.9020040     1.0455530
  H       -3.5901000    -2.4148770    -0.3912530
  H       -2.6805180     2.9020500     1.0455440
  H       -2.0600100     3.2944550    -0.5602960
  H       -3.5901270     2.4148600    -0.3911760
units angstrom
no_reorient  #important for SAPT in psi4, default
symmetry c1  #important for SAPT in psi4, default
}

set PROPERTIES_ORIGIN ["COM"]
properties('MP2/aug-cc-pvtz', properties = ['dipole'])
--------------------------------------------------------------------------

    Molecular point group: c1
  Charge       = -1
  Multiplicity = 1
  Basis Set: AUG-CC-PVTZ
    Blend: AUG-CC-PVTZ
  Basis Set: (AUG-CC-PVTZ AUX)
    Blend: AUG-CC-PVTZ-JKFIT

    Orbital Energies [Eh]
    ---------------------

    Doubly Occupied:

       1A    -92.014061     2A    -20.351007     3A    -20.350916
       4A    -20.350048     5A    -11.137232     6A    -11.136664
       7A    -11.132802     8A    -11.131938     9A    -11.126922
      10A    -11.122178    11A    -11.115097    12A    -11.111559
      13A     -8.974798    14A     -6.660524    15A     -6.659715
      16A     -6.659637    17A     -1.269880    18A     -1.126421
      19A     -1.124555    20A     -1.044315    21A     -0.952113
      22A     -0.920986    23A     -0.841127    24A     -0.819111
      25A     -0.729524    26A     -0.674264    27A     -0.623432
      28A     -0.563752    29A     -0.539285    30A     -0.513362
      31A     -0.485794    32A     -0.476228    33A     -0.474404
      34A     -0.463329    35A     -0.461442    36A     -0.454636
      37A     -0.446124    38A     -0.425361    39A     -0.397879
      40A     -0.374542    41A     -0.363591    42A     -0.331486
      43A     -0.330545    44A     -0.296577    45A     -0.290474
      46A     -0.269823    47A     -0.248849    48A     -0.209407
      49A     -0.209281

  @DF-RHF Final Energy:  -930.52177215101005

   => Energetics <=

    Nuclear Repulsion Energy =            813.5852043953947259
    One-Electron Energy =               -2908.6399602763267467
    Two-Electron Energy =                1164.5329837299220799
    Total Energy =                       -930.5217721510100546
  Basis Set: (AUG-CC-PVTZ AUX)
    Blend: AUG-CC-PVTZ-RI
    Molecular point group: c1

    Geometry (in Angstrom), charge = -1, multiplicity = 1:

       Center              X                  Y                   Z               Mass
    ------------   -----------------  -----------------  -----------------  -----------------
         S            1.970153765222     0.000000146697    -0.005216330504    31.972071174400
         O            2.282689765222     0.000002146697     1.447407669496    15.994914619570
         O            2.342445765222    -1.252625853303    -0.714340330504    15.994914619570
         O            2.342446765222     1.252622146697    -0.714345330504    15.994914619570
         C            0.163427765222     0.000000146697    -0.055897330504    12.000000000000
         C           -1.934617234778    -1.220438853303    -0.030474330504    12.000000000000
         C           -1.934617234778     1.220439146697    -0.030473330504    12.000000000000
         C           -0.535913234778     1.207784146697    -0.045448330504    12.000000000000
         C           -0.539124634778    -1.207784953303     0.154524869496    12.000000000000
         C           -2.620982234778     0.000000146697    -0.011393330504    12.000000000000
         C           -2.687683234778    -2.526871853303     0.007324669496    12.000000000000
         C           -2.687681234778     2.526873146697     0.007324669496    12.000000000000
         H            0.033686765222     2.134136146697    -0.088980330504     1.007825032230
         H            0.033684765222    -2.134136853303    -0.088981330504     1.007825032230
         H           -3.712892234778     0.000001146697    -0.011496330504     1.007825032230
         H           -2.166427234778    -3.294477853303    -0.572993330504     1.007825032230
         H           -2.787053234778    -2.902003853303     1.032784669496     1.007825032230
         H           -3.696557234778    -2.414876853303    -0.404021330504     1.007825032230
         H           -2.786975234778     2.902050146697     1.032775669496     1.007825032230
         H           -2.166467234778     3.294455146697    -0.573064330504     1.007825032230
         H           -3.696584234778     2.414860146697    -0.403944330504     1.007825032230

  Basis Set: AUG-CC-PVTZ
    Blend: AUG-CC-PVTZ
  Basis Set: (AUG-CC-PVTZ AUX)
    Blend: AUG-CC-PVTZ-JKFIT
	 Reference Energy          =    -930.5217721510100546 [Eh]
	 Singles Energy            =      -0.0000000000000000 [Eh]
	 Same-Spin Energy          =      -0.6280512461175919 [Eh]
	 Opposite-Spin Energy      =      -1.8706551148442150 [Eh]
	 Correlation Energy        =      -2.4987063609618070 [Eh]
	 Total Energy              =    -933.0204785119718736 [Eh]

	 ================> DF-SCS-MP2 Energies <==================
	-----------------------------------------------------------
	 SCS Same-Spin Scale       =       0.3333333333333333 [-]
	 SCS Opposite-Spin Scale   =       1.2000000000000000 [-]
	 SCS Same-Spin Energy      =      -0.2093504153725306 [Eh]
	 SCS Opposite-Spin Energy  =      -2.2447861378130578 [Eh]
	 SCS Correlation Energy    =      -2.4541365531855885 [Eh]
	 SCS Total Energy          =    -932.9759087041956036 [Eh]
	-----------------------------------------------------------

  Dipole Moment: [D]
     X:   -10.3345      Y:     0.0898      Z:    -0.0750     Total:    10.3352

*** Psi4 exiting successfully. Buy a developer a beer!
