                               Psi4 1.3.2 release

  ==> Input File <==

--------------------------------------------------------------------------
#psi4
#
memory 32 gb

molecule  {
-1 1
  S        2.0766110     0.0000000     0.0075520
  O        2.3891470     0.0000020     1.4601760
  O        2.4489030    -1.2526260    -0.7015720
  O        2.4489040     1.2526220    -0.7015770
  C        0.2698850     0.0000000    -0.0431290
  C       -1.8281600    -1.2204390    -0.0177060
  C       -1.8281600     1.2204390    -0.0177050
  C       -0.4294560     1.2077840    -0.0326800
  C       -0.4294570    -1.2077850    -0.0326810
  C       -2.5145250     0.0000000     0.0013750
  C       -2.5812260    -2.5268720     0.0200930
  C       -2.5812240     2.5268730     0.0200930
  H        0.1401440     2.1341360    -0.0762120
  H        0.1401420    -2.1341370    -0.0762130
  H       -3.6059014     0.0000010     0.0512692
  H       -2.0599700    -3.2944780    -0.5602250
  H       -2.6805960    -2.9020040     1.0455530
  H       -3.5901000    -2.4148770    -0.3912530
  H       -2.6805180     2.9020500     1.0455440
  H       -2.0600100     3.2944550    -0.5602960
  H       -3.5901270     2.4148600    -0.3911760
units angstrom
no_reorient  #important for SAPT in psi4, default
symmetry c1  #important for SAPT in psi4, default
}

set PROPERTIES_ORIGIN ["COM"]
properties('MP2/aug-cc-pvtz', properties = ['dipole'])
--------------------------------------------------------------------------

    Molecular point group: c1
  Charge       = -1
  Multiplicity = 1
  Basis Set: AUG-CC-PVTZ
    Blend: AUG-CC-PVTZ
  Basis Set: (AUG-CC-PVTZ AUX)
    Blend: AUG-CC-PVTZ-JKFIT

    Orbital Energies [Eh]
    ---------------------

    Doubly Occupied:

       1A    -92.013865     2A    -20.350773     3A    -20.350751
       4A    -20.349903     5A    -11.134500     6A    -11.134455
       7A    -11.131869     8A    -11.131869     9A    -11.123217
      10A    -11.122456    11A    -11.111882    12A    -11.111808
      13A     -8.974586    14A     -6.660301    15A     -6.659513
      16A     -6.659430    17A     -1.269759    18A     -1.126315
      19A     -1.124475    20A     -1.044897    21A     -0.952053
      22A     -0.922161    23A     -0.840698    24A     -0.820320
      25A     -0.730068    26A     -0.675541    27A     -0.624670
      28A     -0.567705    29A     -0.541271    30A     -0.513376
      31A     -0.485209    32A     -0.475249    33A     -0.475189
      34A     -0.463212    35A     -0.461303    36A     -0.454910
      37A     -0.450284    38A     -0.426322    39A     -0.399443
      40A     -0.372219    41A     -0.371494    42A     -0.331350
      43A     -0.330510    44A     -0.296501    45A     -0.290474
      46A     -0.269417    47A     -0.248730    48A     -0.210363
      49A     -0.208686

  @DF-RHF Final Energy:  -930.53560041989806

   => Energetics <=

    Nuclear Repulsion Energy =            814.0581890446956095
    One-Electron Energy =               -2909.5968708351010719
    Two-Electron Energy =                1165.0030813705075161
    Total Energy =                       -930.5356004198979463
  Basis Set: (AUG-CC-PVTZ AUX)
    Blend: AUG-CC-PVTZ-RI
    Molecular point group: c1

    Geometry (in Angstrom), charge = -1, multiplicity = 1:

       Center              X                  Y                   Z               Mass
    ------------   -----------------  -----------------  -----------------  -----------------
         S            1.969942647252     0.000000140211     0.007480729486    31.972071174400
         O            2.282478647252     0.000002140211     1.460104729486    15.994914619570
         O            2.342234647252    -1.252625859789    -0.701643270514    15.994914619570
         O            2.342235647252     1.252622140211    -0.701648270514    15.994914619570
         C            0.163216647252     0.000000140211    -0.043200270514    12.000000000000
         C           -1.934828352748    -1.220438859789    -0.017777270514    12.000000000000
         C           -1.934828352748     1.220439140211    -0.017776270514    12.000000000000
         C           -0.536124352748     1.207784140211    -0.032751270514    12.000000000000
         C           -0.536125352748    -1.207784859789    -0.032752270514    12.000000000000
         C           -2.621193352748     0.000000140211     0.001303729486    12.000000000000
         C           -2.687894352748    -2.526871859789     0.020021729486    12.000000000000
         C           -2.687892352748     2.526873140211     0.020021729486    12.000000000000
         H            0.033475647252     2.134136140211    -0.076283270514     1.007825032230
         H            0.033473647252    -2.134136859789    -0.076284270514     1.007825032230
         H           -3.712569752748     0.000001140211     0.051197929486     1.007825032230
         H           -2.166638352748    -3.294477859789    -0.560296270514     1.007825032230
         H           -2.787264352748    -2.902003859789     1.045481729486     1.007825032230
         H           -3.696768352748    -2.414876859789    -0.391324270514     1.007825032230
         H           -2.787186352748     2.902050140211     1.045472729486     1.007825032230
         H           -2.166678352748     3.294455140211    -0.560367270514     1.007825032230
         H           -3.696795352748     2.414860140211    -0.391247270514     1.007825032230

  Basis Set: AUG-CC-PVTZ
    Blend: AUG-CC-PVTZ
  Basis Set: (AUG-CC-PVTZ AUX)
    Blend: AUG-CC-PVTZ-JKFIT
	 Reference Energy          =    -930.5356004198980600 [Eh]
	 Singles Energy            =      -0.0000000000000000 [Eh]
	 Same-Spin Energy          =      -0.6272806604155694 [Eh]
	 Opposite-Spin Energy      =      -1.8686708282607545 [Eh]
	 Correlation Energy        =      -2.4959514886763241 [Eh]
	 Total Energy              =    -933.0315519085743290 [Eh]

	 ================> DF-SCS-MP2 Energies <==================
	-----------------------------------------------------------
	 SCS Same-Spin Scale       =       0.3333333333333333 [-]
	 SCS Opposite-Spin Scale   =       1.2000000000000000 [-]
	 SCS Same-Spin Energy      =      -0.2090935534718565 [Eh]
	 SCS Opposite-Spin Energy  =      -2.2424049939129054 [Eh]
	 SCS Correlation Energy    =      -2.4514985473847619 [Eh]
	 SCS Total Energy          =    -932.9870989672828046 [Eh]
	-----------------------------------------------------------

  Dipole Moment: [D]
     X:   -10.2982      Y:     0.0000      Z:    -0.0391     Total:    10.2982

*** Psi4 exiting successfully. Buy a developer a beer!
