                               Psi4 1.3.2 release

  ==> Input File <==

--------------------------------------------------------------------------
#psi4
#
memory 32 gb

molecule  {
-1 1
  S        2.0766110     0.0000000     0.0075520
  O        2.3891470     0.0000020     1.4601760
  O        2.4489030    -1.2526260    -0.7015720
  O        2.4489040     1.2526220    -0.7015770
  C        0.2698850     0.0000000    -0.0431290
  C       -1.8281600    -1.2204390    -0.0177060
  C       -1.8281600     1.2204390    -0.0177050
  C       -0.4294560     1.2077840    -0.0326800
  C       -0.4294570    -1.2077850    -0.0326810
  C       -2.5145250     0.0000000     0.0013750
  C       -2.5812260    -2.5268720     0.0200930
  C       -2.5812240     2.5268730     0.0200930
  H        0.1401440     2.1341360    -0.0762120
  H        0.1401420    -2.1341370    -0.0762130
  H       -3.6064350     0.0000010     0.0012720
  H       -2.0599700    -3.2944780    -0.5602250
  H       -2.6805960    -2.9020040     1.0455530
  H       -3.5901000    -2.4148770    -0.3912530
  H       -2.6805180     2.9020500     1.0455440
  H       -2.0600100     3.2944550    -0.5602960
  H       -3.5901270     2.4148600    -0.3911760
units angstrom
no_reorient  #important for SAPT in psi4, default
symmetry c1  #important for SAPT in psi4, default
}

set PROPERTIES_ORIGIN ["COM"]
properties('MP2/aug-cc-pvtz', properties = ['dipole'])
--------------------------------------------------------------------------

    Molecular point group: c1
  Charge       = -1
  Multiplicity = 1
  Basis Set: AUG-CC-PVTZ
    Blend: AUG-CC-PVTZ
  Basis Set: (AUG-CC-PVTZ AUX)
    Blend: AUG-CC-PVTZ-JKFIT

    Orbital Energies [Eh]
    ---------------------

    Doubly Occupied:

       1A    -92.013871     2A    -20.350777     3A    -20.350755
       4A    -20.349915     5A    -11.134511     6A    -11.134466
       7A    -11.131896     8A    -11.131896     9A    -11.123220
      10A    -11.122424    11A    -11.111891    12A    -11.111816
      13A     -8.974591    14A     -6.660306    15A     -6.659519
      16A     -6.659435    17A     -1.269764    18A     -1.126319
      19A     -1.124481    20A     -1.044916    21A     -0.952062
      22A     -0.922183    23A     -0.840722    24A     -0.820329
      25A     -0.730115    26A     -0.675549    27A     -0.624695
      28A     -0.567795    29A     -0.541290    30A     -0.513482
      31A     -0.485097    32A     -0.475260    33A     -0.475194
      34A     -0.463197    35A     -0.461310    36A     -0.454859
      37A     -0.450287    38A     -0.426339    39A     -0.399306
      40A     -0.372226    41A     -0.371838    42A     -0.331356
      43A     -0.330470    44A     -0.296491    45A     -0.290475
      46A     -0.269422    47A     -0.248738    48A     -0.210416
      49A     -0.208693

  @DF-RHF Final Energy:  -930.53570105223798

   => Energetics <=

    Nuclear Repulsion Energy =            814.0610111724071203
    One-Electron Energy =               -2909.6014960781099035
    Two-Electron Energy =                1165.0047838534646871
    Total Energy =                       -930.5357010522379824
  Basis Set: (AUG-CC-PVTZ AUX)
    Blend: AUG-CC-PVTZ-RI
    Molecular point group: c1

    Geometry (in Angstrom), charge = -1, multiplicity = 1:

       Center              X                  Y                   Z               Mass
    ------------   -----------------  -----------------  -----------------  -----------------
         S            1.969945553718     0.000000140211     0.007753059277    31.972071174400
         O            2.282481553718     0.000002140211     1.460377059277    15.994914619570
         O            2.342237553718    -1.252625859789    -0.701370940723    15.994914619570
         O            2.342238553718     1.252622140211    -0.701375940723    15.994914619570
         C            0.163219553718     0.000000140211    -0.042927940723    12.000000000000
         C           -1.934825446282    -1.220438859789    -0.017504940723    12.000000000000
         C           -1.934825446282     1.220439140211    -0.017503940723    12.000000000000
         C           -0.536121446282     1.207784140211    -0.032478940723    12.000000000000
         C           -0.536122446282    -1.207784859789    -0.032479940723    12.000000000000
         C           -2.621190446282     0.000000140211     0.001576059277    12.000000000000
         C           -2.687891446282    -2.526871859789     0.020294059277    12.000000000000
         C           -2.687889446282     2.526873140211     0.020294059277    12.000000000000
         H            0.033478553718     2.134136140211    -0.076010940723     1.007825032230
         H            0.033476553718    -2.134136859789    -0.076011940723     1.007825032230
         H           -3.713100446282     0.000001140211     0.001473059277     1.007825032230
         H           -2.166635446282    -3.294477859789    -0.560023940723     1.007825032230
         H           -2.787261446282    -2.902003859789     1.045754059277     1.007825032230
         H           -3.696765446282    -2.414876859789    -0.391051940723     1.007825032230
         H           -2.787183446282     2.902050140211     1.045745059277     1.007825032230
         H           -2.166675446282     3.294455140211    -0.560094940723     1.007825032230
         H           -3.696792446282     2.414860140211    -0.390974940723     1.007825032230

  Basis Set: AUG-CC-PVTZ
    Blend: AUG-CC-PVTZ
  Basis Set: (AUG-CC-PVTZ AUX)
    Blend: AUG-CC-PVTZ-JKFIT
	 Reference Energy          =    -930.5357010522379824 [Eh]
	 Singles Energy            =      -0.0000000000000000 [Eh]
	 Same-Spin Energy          =      -0.6272793970651294 [Eh]
	 Opposite-Spin Energy      =      -1.8686593515867567 [Eh]
	 Correlation Energy        =      -2.4959387486518860 [Eh]
	 Total Energy              =    -933.0316398008898204 [Eh]

	 ================> DF-SCS-MP2 Energies <==================
	-----------------------------------------------------------
	 SCS Same-Spin Scale       =       0.3333333333333333 [-]
	 SCS Opposite-Spin Scale   =       1.2000000000000000 [-]
	 SCS Same-Spin Energy      =      -0.2090931323550431 [Eh]
	 SCS Opposite-Spin Energy  =      -2.2423912219041080 [Eh]
	 SCS Correlation Energy    =      -2.4514843542591511 [Eh]
	 SCS Total Energy          =    -932.9871854064971330 [Eh]
	-----------------------------------------------------------

  Dipole Moment: [D]
     X:   -10.2970      Y:     0.0000      Z:    -0.0680     Total:    10.2972

*** Psi4 exiting successfully. Buy a developer a beer!
