                               Psi4 1.3.2 release

  ==> Input File <==

--------------------------------------------------------------------------
#psi4
#
memory 32 gb

molecule  {
-1 1
  S        2.0766110     0.0000000     0.0075520
  O        2.3891470     0.0000020     1.4601760
  O        2.4489030    -1.2526260    -0.7015720
  O        2.4489040     1.2526220    -0.7015770
  C        0.2698850     0.0000000    -0.0431290
  C       -1.8281600    -1.2204390    -0.0177060
  C       -1.8281600     1.2204390    -0.0177050
  C       -0.4294560     1.2077840    -0.0326800
  C       -0.4310622    -1.2077850     0.0673061
  C       -2.5145250     0.0000000     0.0013750
  C       -2.5812260    -2.5268720     0.0200930
  C       -2.5812240     2.5268730     0.0200930
  H        0.1401440     2.1341360    -0.0762120
  H        0.1401420    -2.1341370    -0.0762130
  H       -3.6064350     0.0000010     0.0012720
  H       -2.0599700    -3.2944780    -0.5602250
  H       -2.6805960    -2.9020040     1.0455530
  H       -3.5901000    -2.4148770    -0.3912530
  H       -2.6805180     2.9020500     1.0455440
  H       -2.0600100     3.2944550    -0.5602960
  H       -3.5901270     2.4148600    -0.3911760
units angstrom
no_reorient  #important for SAPT in psi4, default
symmetry c1  #important for SAPT in psi4, default
}

set PROPERTIES_ORIGIN ["COM"]
properties('MP2/aug-cc-pvtz', properties = ['dipole'])
--------------------------------------------------------------------------

    Molecular point group: c1
  Charge       = -1
  Multiplicity = 1
  Basis Set: AUG-CC-PVTZ
    Blend: AUG-CC-PVTZ
  Basis Set: (AUG-CC-PVTZ AUX)
    Blend: AUG-CC-PVTZ-JKFIT

    Orbital Energies [Eh]
    ---------------------

    Doubly Occupied:

       1A    -92.013939     2A    -20.350858     3A    -20.350833
       4A    -20.349933     5A    -11.135106     6A    -11.135040
       7A    -11.132154     8A    -11.131890     9A    -11.124255
      10A    -11.122400    11A    -11.112730    12A    -11.111801
      13A     -8.974666    14A     -6.660385    15A     -6.659589
      16A     -6.659508    17A     -1.269797    18A     -1.126357
      19A     -1.124491    20A     -1.044862    21A     -0.952185
      22A     -0.921800    23A     -0.840833    24A     -0.820011
      25A     -0.730054    26A     -0.675106    27A     -0.624352
      28A     -0.566437    29A     -0.540802    30A     -0.513408
      31A     -0.485299    32A     -0.475610    33A     -0.474806
      34A     -0.463241    35A     -0.461351    36A     -0.454729
      37A     -0.448982    38A     -0.426094    39A     -0.399085
      40A     -0.373661    41A     -0.368470    42A     -0.331416
      43A     -0.330526    44A     -0.296524    45A     -0.290507
      46A     -0.269563    47A     -0.248776    48A     -0.210148
      49A     -0.209036

  @DF-RHF Final Energy:  -930.53193057889564

   => Energetics <=

    Nuclear Repulsion Energy =            813.9491368919476599
    One-Electron Energy =               -2909.3753219041745979
    Two-Electron Energy =                1164.8942544333315254
    Total Energy =                       -930.5319305788955262
  Basis Set: (AUG-CC-PVTZ AUX)
    Blend: AUG-CC-PVTZ-RI
    Molecular point group: c1

    Geometry (in Angstrom), charge = -1, multiplicity = 1:

       Center              X                  Y                   Z               Mass
    ------------   -----------------  -----------------  -----------------  -----------------
         S            1.970049659470     0.000000140211     0.001268364387    31.972071174400
         O            2.282585659470     0.000002140211     1.453892364387    15.994914619570
         O            2.342341659470    -1.252625859789    -0.707855635613    15.994914619570
         O            2.342342659470     1.252622140211    -0.707860635613    15.994914619570
         C            0.163323659470     0.000000140211    -0.049412635613    12.000000000000
         C           -1.934721340530    -1.220438859789    -0.023989635613    12.000000000000
         C           -1.934721340530     1.220439140211    -0.023988635613    12.000000000000
         C           -0.536017340530     1.207784140211    -0.038963635613    12.000000000000
         C           -0.537623540530    -1.207784859789     0.061022464387    12.000000000000
         C           -2.621086340530     0.000000140211    -0.004908635613    12.000000000000
         C           -2.687787340530    -2.526871859789     0.013809364387    12.000000000000
         C           -2.687785340530     2.526873140211     0.013809364387    12.000000000000
         H            0.033582659470     2.134136140211    -0.082495635613     1.007825032230
         H            0.033580659470    -2.134136859789    -0.082496635613     1.007825032230
         H           -3.712996340530     0.000001140211    -0.005011635613     1.007825032230
         H           -2.166531340530    -3.294477859789    -0.566508635613     1.007825032230
         H           -2.787157340530    -2.902003859789     1.039269364387     1.007825032230
         H           -3.696661340530    -2.414876859789    -0.397536635613     1.007825032230
         H           -2.787079340530     2.902050140211     1.039260364387     1.007825032230
         H           -2.166571340530     3.294455140211    -0.566579635613     1.007825032230
         H           -3.696688340530     2.414860140211    -0.397459635613     1.007825032230

  Basis Set: AUG-CC-PVTZ
    Blend: AUG-CC-PVTZ
  Basis Set: (AUG-CC-PVTZ AUX)
    Blend: AUG-CC-PVTZ-JKFIT
	 Reference Energy          =    -930.5319305788956399 [Eh]
	 Singles Energy            =      -0.0000000000000000 [Eh]
	 Same-Spin Energy          =      -0.6275029699112366 [Eh]
	 Opposite-Spin Energy      =      -1.8691804241005601 [Eh]
	 Correlation Energy        =      -2.4966833940117965 [Eh]
	 Total Energy              =    -933.0286139729074648 [Eh]

	 ================> DF-SCS-MP2 Energies <==================
	-----------------------------------------------------------
	 SCS Same-Spin Scale       =       0.3333333333333333 [-]
	 SCS Opposite-Spin Scale   =       1.2000000000000000 [-]
	 SCS Same-Spin Energy      =      -0.2091676566370788 [Eh]
	 SCS Opposite-Spin Energy  =      -2.2430165089206722 [Eh]
	 SCS Correlation Energy    =      -2.4521841655577510 [Eh]
	 SCS Total Energy          =    -932.9841147444533362 [Eh]
	-----------------------------------------------------------

  Dipole Moment: [D]
     X:   -10.3094      Y:     0.0278      Z:    -0.0706     Total:    10.3096

*** Psi4 exiting successfully. Buy a developer a beer!
