                               Psi4 1.3.2 release

  ==> Input File <==

--------------------------------------------------------------------------
#psi4
#
memory 32 gb

molecule  {
-1 1
  S        2.0766110     0.0000000     0.0075520
  O        2.3891470     0.0000020     1.4601760
  O        2.4489030    -1.2526260    -0.7015720
  O        2.4489040     1.2526220    -0.7015770
  C        0.2698850     0.0000000    -0.0431290
  C       -1.8281600    -1.2204390    -0.0177060
  C       -1.8281600     1.2204390    -0.0177050
  C       -0.4294560     1.2077840    -0.0326800
  C       -0.4318648    -1.2077851     0.1172997
  C       -2.5145250     0.0000000     0.0013750
  C       -2.5812260    -2.5268720     0.0200930
  C       -2.5812240     2.5268730     0.0200930
  H        0.1401440     2.1341360    -0.0762120
  H        0.1401420    -2.1341370    -0.0762130
  H       -3.6064350     0.0000010     0.0012720
  H       -2.0599700    -3.2944780    -0.5602250
  H       -2.6805960    -2.9020040     1.0455530
  H       -3.5901000    -2.4148770    -0.3912530
  H       -2.6805180     2.9020500     1.0455440
  H       -2.0600100     3.2944550    -0.5602960
  H       -3.5901270     2.4148600    -0.3911760
units angstrom
no_reorient  #important for SAPT in psi4, default
symmetry c1  #important for SAPT in psi4, default
}

set PROPERTIES_ORIGIN ["COM"]
properties('MP2/aug-cc-pvtz', properties = ['dipole'])
--------------------------------------------------------------------------

    Molecular point group: c1
  Charge       = -1
  Multiplicity = 1
  Basis Set: AUG-CC-PVTZ
    Blend: AUG-CC-PVTZ
  Basis Set: (AUG-CC-PVTZ AUX)
    Blend: AUG-CC-PVTZ-JKFIT

    Orbital Energies [Eh]
    ---------------------

    Doubly Occupied:

       1A    -92.013994     2A    -20.350923     3A    -20.350876
       4A    -20.349980     5A    -11.135943     6A    -11.135757
       7A    -11.132428     8A    -11.131908     9A    -11.125394
      10A    -11.122309    11A    -11.113737    12A    -11.111699
      13A     -8.974725    14A     -6.660447    15A     -6.659646
      16A     -6.659566    17A     -1.269833    18A     -1.126386
      19A     -1.124518    20A     -1.044645    21A     -0.952172
      22A     -0.921444    23A     -0.840955    24A     -0.819637
      25A     -0.729844    26A     -0.674726    27A     -0.623955
      28A     -0.565228    29A     -0.540168    30A     -0.513382
      31A     -0.485513    32A     -0.475887    33A     -0.474598
      34A     -0.463281    35A     -0.461390    36A     -0.454669
      37A     -0.447726    38A     -0.425788    39A     -0.398616
      40A     -0.374191    41A     -0.366215    42A     -0.331450
      43A     -0.330541    44A     -0.296549    45A     -0.290498
      46A     -0.269681    47A     -0.248809    48A     -0.209818
      49A     -0.209178

  @DF-RHF Final Energy:  -930.52766229895940

   => Energetics <=

    Nuclear Repulsion Energy =            813.7980211289549288
    One-Electron Energy =               -2909.0701199991208341
    Two-Electron Energy =                1164.7444365712065064
    Total Energy =                       -930.5276622989592852
  Basis Set: (AUG-CC-PVTZ AUX)
    Blend: AUG-CC-PVTZ-RI
    Molecular point group: c1

    Geometry (in Angstrom), charge = -1, multiplicity = 1:

       Center              X                  Y                   Z               Mass
    ------------   -----------------  -----------------  -----------------  -----------------
         S            1.970101712346     0.000000146697    -0.001973986302    31.972071174400
         O            2.282637712346     0.000002146697     1.450650013698    15.994914619570
         O            2.342393712346    -1.252625853303    -0.711097986302    15.994914619570
         O            2.342394712346     1.252622146697    -0.711102986302    15.994914619570
         C            0.163375712346     0.000000146697    -0.052654986302    12.000000000000
         C           -1.934669287654    -1.220438853303    -0.027231986302    12.000000000000
         C           -1.934669287654     1.220439146697    -0.027230986302    12.000000000000
         C           -0.535965287654     1.207784146697    -0.042205986302    12.000000000000
         C           -0.538374087654    -1.207784953303     0.107773713698    12.000000000000
         C           -2.621034287654     0.000000146697    -0.008150986302    12.000000000000
         C           -2.687735287654    -2.526871853303     0.010567013698    12.000000000000
         C           -2.687733287654     2.526873146697     0.010567013698    12.000000000000
         H            0.033634712346     2.134136146697    -0.085737986302     1.007825032230
         H            0.033632712346    -2.134136853303    -0.085738986302     1.007825032230
         H           -3.712944287654     0.000001146697    -0.008253986302     1.007825032230
         H           -2.166479287654    -3.294477853303    -0.569750986302     1.007825032230
         H           -2.787105287654    -2.902003853303     1.036027013698     1.007825032230
         H           -3.696609287654    -2.414876853303    -0.400778986302     1.007825032230
         H           -2.787027287654     2.902050146697     1.036018013698     1.007825032230
         H           -2.166519287654     3.294455146697    -0.569821986302     1.007825032230
         H           -3.696636287654     2.414860146697    -0.400701986302     1.007825032230

  Basis Set: AUG-CC-PVTZ
    Blend: AUG-CC-PVTZ
  Basis Set: (AUG-CC-PVTZ AUX)
    Blend: AUG-CC-PVTZ-JKFIT
	 Reference Energy          =    -930.5276622989593989 [Eh]
	 Singles Energy            =      -0.0000000000000000 [Eh]
	 Same-Spin Energy          =      -0.6277375683781233 [Eh]
	 Opposite-Spin Energy      =      -1.8697990797448623 [Eh]
	 Correlation Energy        =      -2.4975366481229857 [Eh]
	 Total Energy              =    -933.0251989470823446 [Eh]

	 ================> DF-SCS-MP2 Energies <==================
	-----------------------------------------------------------
	 SCS Same-Spin Scale       =       0.3333333333333333 [-]
	 SCS Opposite-Spin Scale   =       1.2000000000000000 [-]
	 SCS Same-Spin Energy      =      -0.2092458561260411 [Eh]
	 SCS Opposite-Spin Energy  =      -2.2437588956938348 [Eh]
	 SCS Correlation Energy    =      -2.4530047518198761 [Eh]
	 SCS Total Energy          =    -932.9806670507792887 [Eh]
	-----------------------------------------------------------

  Dipole Moment: [D]
     X:   -10.3204      Y:     0.0546      Z:    -0.0724     Total:    10.3208

*** Psi4 exiting successfully. Buy a developer a beer!
