                               Psi4 1.3.2 release

  ==> Input File <==

--------------------------------------------------------------------------
#psi4
#
memory 32 gb

molecule  {
-1 1
  S        2.0766110     0.0000000     0.0075520
  O        2.3891470     0.0000020     1.4601760
  O        2.4489030    -1.2526260    -0.7015720
  O        2.4489040     1.2526220    -0.7015770
  C        0.2698850     0.0000000    -0.0431290
  C       -1.8281600    -1.2204390    -0.0177060
  C       -1.8281600     1.2204390    -0.0177050
  C       -0.4294560     1.2077840    -0.0326800
  C       -0.4302596    -1.2077850     0.0173126
  C       -2.5145250     0.0000000     0.0013750
  C       -2.5812260    -2.5268720     0.0200930
  C       -2.5812240     2.5268730     0.0200930
  H        0.1401440     2.1341360    -0.0762120
  H        0.1401420    -2.1341370    -0.0762130
  H       -3.6064350     0.0000010     0.0012720
  H       -2.0599700    -3.2944780    -0.5602250
  H       -2.6805960    -2.9020040     1.0455530
  H       -3.5901000    -2.4148770    -0.3912530
  H       -2.6805180     2.9020500     1.0455440
  H       -2.0600100     3.2944550    -0.5602960
  H       -3.5901270     2.4148600    -0.3911760
units angstrom
no_reorient  #important for SAPT in psi4, default
symmetry c1  #important for SAPT in psi4, default
}

set PROPERTIES_ORIGIN ["COM"]
properties('MP2/aug-cc-pvtz', properties = ['dipole'])
--------------------------------------------------------------------------

    Molecular point group: c1
  Charge       = -1
  Multiplicity = 1
  Basis Set: AUG-CC-PVTZ
    Blend: AUG-CC-PVTZ
  Basis Set: (AUG-CC-PVTZ AUX)
    Blend: AUG-CC-PVTZ-JKFIT

    Orbital Energies [Eh]
    ---------------------

    Doubly Occupied:

       1A    -92.013899     2A    -20.350812     3A    -20.350790
       4A    -20.349910     5A    -11.134681     6A    -11.134559
       7A    -11.131977     8A    -11.131885     9A    -11.123527
      10A    -11.122441    11A    -11.112101    12A    -11.111851
      13A     -8.974621    14A     -6.660338    15A     -6.659547
      16A     -6.659464    17A     -1.269774    18A     -1.126335
      19A     -1.124478    20A     -1.044955    21A     -0.952149
      22A     -0.922047    23A     -0.840756    24A     -0.820241
      25A     -0.730147    26A     -0.675385    27A     -0.624603
      28A     -0.567310    29A     -0.541177    30A     -0.513442
      31A     -0.485159    32A     -0.475398    33A     -0.475012
      34A     -0.463212    35A     -0.461324    36A     -0.454801
      37A     -0.449841    38A     -0.426278    39A     -0.399310
      40A     -0.372948    41A     -0.370395    42A     -0.331384
      43A     -0.330501    44A     -0.296505    45A     -0.290499
      46A     -0.269476    47A     -0.248753    48A     -0.210347
      49A     -0.208881

  @DF-RHF Final Energy:  -930.53460321105217

   => Energetics <=

    Nuclear Repulsion Energy =            814.0371036956838680
    One-Electron Energy =               -2909.5529659944136256
    Two-Electron Energy =                1164.9812590876774721
    Total Energy =                       -930.5346032110521719
  Basis Set: (AUG-CC-PVTZ AUX)
    Blend: AUG-CC-PVTZ-RI
    Molecular point group: c1

    Geometry (in Angstrom), charge = -1, multiplicity = 1:

       Center              X                  Y                   Z               Mass
    ------------   -----------------  -----------------  -----------------  -----------------
         S            1.969997606594     0.000000140211     0.004510708589    31.972071174400
         O            2.282533606594     0.000002140211     1.457134708589    15.994914619570
         O            2.342289606594    -1.252625859789    -0.704613291411    15.994914619570
         O            2.342290606594     1.252622140211    -0.704618291411    15.994914619570
         C            0.163271606594     0.000000140211    -0.046170291411    12.000000000000
         C           -1.934773393406    -1.220438859789    -0.020747291411    12.000000000000
         C           -1.934773393406     1.220439140211    -0.020746291411    12.000000000000
         C           -0.536069393406     1.207784140211    -0.035721291411    12.000000000000
         C           -0.536872993406    -1.207784859789     0.014271308589    12.000000000000
         C           -2.621138393406     0.000000140211    -0.001666291411    12.000000000000
         C           -2.687839393406    -2.526871859789     0.017051708589    12.000000000000
         C           -2.687837393406     2.526873140211     0.017051708589    12.000000000000
         H            0.033530606594     2.134136140211    -0.079253291411     1.007825032230
         H            0.033528606594    -2.134136859789    -0.079254291411     1.007825032230
         H           -3.713048393406     0.000001140211    -0.001769291411     1.007825032230
         H           -2.166583393406    -3.294477859789    -0.563266291411     1.007825032230
         H           -2.787209393406    -2.902003859789     1.042511708589     1.007825032230
         H           -3.696713393406    -2.414876859789    -0.394294291411     1.007825032230
         H           -2.787131393406     2.902050140211     1.042502708589     1.007825032230
         H           -2.166623393406     3.294455140211    -0.563337291411     1.007825032230
         H           -3.696740393406     2.414860140211    -0.394217291411     1.007825032230

  Basis Set: AUG-CC-PVTZ
    Blend: AUG-CC-PVTZ
  Basis Set: (AUG-CC-PVTZ AUX)
    Blend: AUG-CC-PVTZ-JKFIT
	 Reference Energy          =    -930.5346032110521719 [Eh]
	 Singles Energy            =      -0.0000000000000000 [Eh]
	 Same-Spin Energy          =      -0.6273504986410174 [Eh]
	 Opposite-Spin Energy      =      -1.8688059053164239 [Eh]
	 Correlation Energy        =      -2.4961564039574413 [Eh]
	 Total Energy              =    -933.0307596150096288 [Eh]

	 ================> DF-SCS-MP2 Energies <==================
	-----------------------------------------------------------
	 SCS Same-Spin Scale       =       0.3333333333333333 [-]
	 SCS Opposite-Spin Scale   =       1.2000000000000000 [-]
	 SCS Same-Spin Energy      =      -0.2091168328803391 [Eh]
	 SCS Opposite-Spin Energy  =      -2.2425670863797085 [Eh]
	 SCS Correlation Energy    =      -2.4516839192600477 [Eh]
	 SCS Total Energy          =    -932.9862871303122347 [Eh]
	-----------------------------------------------------------

  Dipole Moment: [D]
     X:   -10.3015      Y:     0.0095      Z:    -0.0693     Total:    10.3018

*** Psi4 exiting successfully. Buy a developer a beer!
