                               Psi4 1.3.2 release

  ==> Input File <==

--------------------------------------------------------------------------
#psi4
#
memory 32 gb

molecule  {
-1 1
  S        2.0766110     0.0000000     0.0075520
  O        2.3891470     0.0000020     1.4601760
  O        2.4489030    -1.2526260    -0.7015720
  O        2.4489040     1.2526220    -0.7015770
  C        0.2698850     0.0000000    -0.0431290
  C       -1.8281600    -1.2204390    -0.0177060
  C       -1.8281600     1.2204390    -0.0177050
  C       -0.4294560     1.2077840    -0.0326800
  C       -0.4294570    -1.2077850    -0.0326810
  C       -2.5145250     0.0000000     0.0013750
  C       -2.5812260    -2.5268720     0.0200930
  C       -2.5812240     2.5268730     0.0200930
  H        0.1401440     2.1341360    -0.0762120
  H        0.1401420    -2.1341370    -0.0762130
  H       -3.6053679     0.0000010     0.1012663
  H       -2.0599700    -3.2944780    -0.5602250
  H       -2.6805960    -2.9020040     1.0455530
  H       -3.5901000    -2.4148770    -0.3912530
  H       -2.6805180     2.9020500     1.0455440
  H       -2.0600100     3.2944550    -0.5602960
  H       -3.5901270     2.4148600    -0.3911760
units angstrom
no_reorient  #important for SAPT in psi4, default
symmetry c1  #important for SAPT in psi4, default
}

set PROPERTIES_ORIGIN ["COM"]
properties('MP2/aug-cc-pvtz', properties = ['dipole'])
--------------------------------------------------------------------------

    Molecular point group: c1
  Charge       = -1
  Multiplicity = 1
  Basis Set: AUG-CC-PVTZ
    Blend: AUG-CC-PVTZ
  Basis Set: (AUG-CC-PVTZ AUX)
    Blend: AUG-CC-PVTZ-JKFIT

    Orbital Energies [Eh]
    ---------------------

    Doubly Occupied:

       1A    -92.013890     2A    -20.350797     3A    -20.350775
       4A    -20.349922     5A    -11.134542     6A    -11.134496
       7A    -11.131842     8A    -11.131841     9A    -11.123274
      10A    -11.122697    11A    -11.111896    12A    -11.111822
      13A     -8.974612    14A     -6.660327    15A     -6.659539
      16A     -6.659456    17A     -1.269784    18A     -1.126339
      19A     -1.124497    20A     -1.044894    21A     -0.952062
      22A     -0.922124    23A     -0.840636    24A     -0.820330
      25A     -0.729925    26A     -0.675557    27A     -0.624632
      28A     -0.567383    29A     -0.541270    30A     -0.513178
      31A     -0.485332    32A     -0.475240    33A     -0.475179
      34A     -0.463243    35A     -0.461321    36A     -0.454857
      37A     -0.450301    38A     -0.426313    39A     -0.399517
      40A     -0.372238    41A     -0.371040    42A     -0.331371
      43A     -0.330572    44A     -0.296519    45A     -0.290499
      46A     -0.269445    47A     -0.248750    48A     -0.210304
      49A     -0.208706

  @DF-RHF Final Energy:  -930.53520021775591

   => Energetics <=

    Nuclear Repulsion Energy =            814.0458740893487857
    One-Electron Energy =               -2909.5719775810844112
    Two-Electron Energy =                1164.9909032739799386
    Total Energy =                       -930.5352002177558006
  Basis Set: (AUG-CC-PVTZ AUX)
    Blend: AUG-CC-PVTZ-RI
    Molecular point group: c1

    Geometry (in Angstrom), charge = -1, multiplicity = 1:

       Center              X                  Y                   Z               Mass
    ------------   -----------------  -----------------  -----------------  -----------------
         S            1.969939741330     0.000000140211     0.007208400240    31.972071174400
         O            2.282475741330     0.000002140211     1.459832400240    15.994914619570
         O            2.342231741330    -1.252625859789    -0.701915599760    15.994914619570
         O            2.342232741330     1.252622140211    -0.701920599760    15.994914619570
         C            0.163213741330     0.000000140211    -0.043472599760    12.000000000000
         C           -1.934831258670    -1.220438859789    -0.018049599760    12.000000000000
         C           -1.934831258670     1.220439140211    -0.018048599760    12.000000000000
         C           -0.536127258670     1.207784140211    -0.033023599760    12.000000000000
         C           -0.536128258670    -1.207784859789    -0.033024599760    12.000000000000
         C           -2.621196258670     0.000000140211     0.001031400240    12.000000000000
         C           -2.687897258670    -2.526871859789     0.019749400240    12.000000000000
         C           -2.687895258670     2.526873140211     0.019749400240    12.000000000000
         H            0.033472741330     2.134136140211    -0.076555599760     1.007825032230
         H            0.033470741330    -2.134136859789    -0.076556599760     1.007825032230
         H           -3.712039158670     0.000001140211     0.100922700240     1.007825032230
         H           -2.166641258670    -3.294477859789    -0.560568599760     1.007825032230
         H           -2.787267258670    -2.902003859789     1.045209400240     1.007825032230
         H           -3.696771258670    -2.414876859789    -0.391596599760     1.007825032230
         H           -2.787189258670     2.902050140211     1.045200400240     1.007825032230
         H           -2.166681258670     3.294455140211    -0.560639599760     1.007825032230
         H           -3.696798258670     2.414860140211    -0.391519599760     1.007825032230

  Basis Set: AUG-CC-PVTZ
    Blend: AUG-CC-PVTZ
  Basis Set: (AUG-CC-PVTZ AUX)
    Blend: AUG-CC-PVTZ-JKFIT
	 Reference Energy          =    -930.5352002177559143 [Eh]
	 Singles Energy            =      -0.0000000000000000 [Eh]
	 Same-Spin Energy          =      -0.6273004484674671 [Eh]
	 Opposite-Spin Energy      =      -1.8687245271676196 [Eh]
	 Correlation Energy        =      -2.4960249756350867 [Eh]
	 Total Energy              =    -933.0312251933910375 [Eh]

	 ================> DF-SCS-MP2 Energies <==================
	-----------------------------------------------------------
	 SCS Same-Spin Scale       =       0.3333333333333333 [-]
	 SCS Opposite-Spin Scale   =       1.2000000000000000 [-]
	 SCS Same-Spin Energy      =      -0.2091001494891557 [Eh]
	 SCS Opposite-Spin Energy  =      -2.2424694326011436 [Eh]
	 SCS Correlation Energy    =      -2.4515695820902992 [Eh]
	 SCS Total Energy          =    -932.9867697998462290 [Eh]
	-----------------------------------------------------------

  Dipole Moment: [D]
     X:   -10.2934      Y:     0.0000      Z:    -0.0103     Total:    10.2934

*** Psi4 exiting successfully. Buy a developer a beer!
