                               Psi4 1.3.2 release

  ==> Input File <==

--------------------------------------------------------------------------
#psi4
#
memory 32 gb

molecule  {
0 1
  O        1.1855920    -1.3251230    -0.0110750
  O       -3.7874790    -0.1788050    -0.0307850
  C        2.2579520     0.8287430     0.0207180
  C        3.5859950     0.0918750    -0.0061980
  C        1.0665970    -0.1008810     0.0170560
  C       -0.2810060     0.5415760     0.0240110
  C       -1.4085440    -0.1910960     0.0012370
  C       -2.7098883     0.4939940    -0.0056364
  H        2.1768340     1.4746290     0.9052650
  H        2.1584520     1.5067170    -0.8392700
  H        3.6798240    -0.5618240     0.8622080
  H        3.6612870    -0.5322660    -0.8978130
  H        4.4176170     0.8001410    -0.0031560
  H       -0.3336460     1.6309400     0.0414110
  H       -1.3230751    -1.2752087    -0.0157914
  H       -2.7297600     1.5577740     0.0156350
units angstrom
no_reorient  #important for SAPT in psi4, default
symmetry c1  #important for SAPT in psi4, default
}

set PROPERTIES_ORIGIN ["COM"]
properties('MP2/aug-cc-pvtz', properties = ['dipole'])
--------------------------------------------------------------------------

    Molecular point group: c1
  Charge       = 0
  Multiplicity = 1
  Basis Set: AUG-CC-PVTZ
    Blend: AUG-CC-PVTZ
  Basis Set: (AUG-CC-PVTZ AUX)
    Blend: AUG-CC-PVTZ-JKFIT

    Orbital Energies [Eh]
    ---------------------

    Doubly Occupied:

       1A    -20.572863     2A    -20.564962     3A    -11.354416
       4A    -11.354142     5A    -11.282188     6A    -11.279559
       7A    -11.257502     8A    -11.228666     9A     -1.395504
      10A     -1.367560    11A     -1.116887    12A     -1.071112
      13A     -0.955999    14A     -0.882251    15A     -0.810908
      16A     -0.755566    17A     -0.699728    18A     -0.683705
      19A     -0.646628    20A     -0.636759    21A     -0.619080
      22A     -0.574602    23A     -0.549632    24A     -0.544219
      25A     -0.529278    26A     -0.527081    27A     -0.502220
      28A     -0.456587    29A     -0.436855    30A     -0.402569

  @DF-RHF Final Energy:  -381.69388588070331

   => Energetics <=

    Nuclear Repulsion Energy =            330.7340689198889550
    One-Electron Energy =               -1174.7378511110862291
    Two-Electron Energy =                 462.3098963104939685
    Total Energy =                       -381.6938858807033057
  Basis Set: (AUG-CC-PVTZ AUX)
    Blend: AUG-CC-PVTZ-RI
    Molecular point group: c1

    Geometry (in Angstrom), charge = 0, multiplicity = 1:

       Center              X                  Y                   Z               Mass
    ------------   -----------------  -----------------  -----------------  -----------------
         O            1.182776775833    -1.330051376451    -0.011197519428    15.994914619570
         O           -3.790294224167    -0.183733376451    -0.030907519428    15.994914619570
         C            2.255136775833     0.823814623549     0.020595480572    12.000000000000
         C            3.583179775833     0.086946623549    -0.006320519428    12.000000000000
         C            1.063781775833    -0.105809376451     0.016933480572    12.000000000000
         C           -0.283821224167     0.536647623549     0.023888480572    12.000000000000
         C           -1.411359224167    -0.196024376451     0.001114480572    12.000000000000
         C           -2.712703524167     0.489065623549    -0.005758919428    12.000000000000
         H            2.174018775833     1.469700623549     0.905142480572     1.007825032230
         H            2.155636775833     1.501788623549    -0.839392519428     1.007825032230
         H            3.677008775833    -0.566752376451     0.862085480572     1.007825032230
         H            3.658471775833    -0.537194376451    -0.897935519428     1.007825032230
         H            4.414801775833     0.795212623549    -0.003278519428     1.007825032230
         H           -0.336461224167     1.626011623549     0.041288480572     1.007825032230
         H           -1.325890324167    -1.280137076451    -0.015913919428     1.007825032230
         H           -2.732575224167     1.552845623549     0.015512480572     1.007825032230

  Basis Set: AUG-CC-PVTZ
    Blend: AUG-CC-PVTZ
  Basis Set: (AUG-CC-PVTZ AUX)
    Blend: AUG-CC-PVTZ-JKFIT
	 Reference Energy          =    -381.6938858807033057 [Eh]
	 Singles Energy            =      -0.0000000000000000 [Eh]
	 Same-Spin Energy          =      -0.3786414531708986 [Eh]
	 Opposite-Spin Energy      =      -1.2268166678455614 [Eh]
	 Correlation Energy        =      -1.6054581210164600 [Eh]
	 Total Energy              =    -383.2993440017197599 [Eh]

	 ================> DF-SCS-MP2 Energies <==================
	-----------------------------------------------------------
	 SCS Same-Spin Scale       =       0.3333333333333333 [-]
	 SCS Opposite-Spin Scale   =       1.2000000000000000 [-]
	 SCS Same-Spin Energy      =      -0.1262138177236329 [Eh]
	 SCS Opposite-Spin Energy  =      -1.4721800014146738 [Eh]
	 SCS Correlation Energy    =      -1.5983938191383067 [Eh]
	 SCS Total Energy          =    -383.2922796998416288 [Eh]
	-----------------------------------------------------------

  Dipole Moment: [D]
     X:     2.8451      Y:     3.6576      Z:     0.0943     Total:     4.6348

*** Psi4 exiting successfully. Buy a developer a beer!
