                               Psi4 1.4a3.dev225

  ==> Input File <==

--------------------------------------------------------------------------
#psi4
#
memory 32 gb

molecule  {
0 1
  O        1.0820120     1.3681640     0.0000000
  O       -3.8882340     0.1997640    -0.0000030
  C        2.1679760    -0.7815440    -0.0000070
  C        3.4943680    -0.0370920     0.0000040
  C        0.9697220     0.1420900     0.0000000
  C       -0.3759970    -0.5069640     0.0000040
  C       -1.5077040     0.2230700     0.0000000
  C       -2.8299410    -0.4231870     0.0000020
  H        2.0818540    -1.4423830    -0.8738950
  H        2.0818510    -1.4424050     0.8738640
  H        3.5776630     0.6025590    -0.8807220
  H        3.5776700     0.6025230     0.8807550
  H        4.3292850    -0.7422630    -0.0000140
  H       -0.4236580    -1.5964830     0.0000100
  H       -1.4638710     1.3098110    -0.0000060
  H       -2.8211845    -1.5830186     0.0000114
units angstrom
no_reorient  #important for SAPT in psi4, default
symmetry c1  #important for SAPT in psi4, default
}

set PROPERTIES_ORIGIN ["COM"]
properties('MP2/aug-cc-pvtz', properties = ['dipole'])
--------------------------------------------------------------------------

    Molecular point group: c1
  Charge       = 0
  Multiplicity = 1
  Basis Set: AUG-CC-PVTZ
    Blend: AUG-CC-PVTZ
  Basis Set: (AUG-CC-PVTZ AUX)
    Blend: AUG-CC-PVTZ-JKFIT

    Orbital Energies [Eh]
    ---------------------

    Doubly Occupied:

       1A    -20.575265     2A    -20.564418     3A    -11.357291
       4A    -11.354586     5A    -11.283113     6A    -11.279299
       7A    -11.257643     8A    -11.228855     9A     -1.395607
      10A     -1.393923    11A     -1.114360    12A     -1.069769
      13A     -0.953884    14A     -0.877601    15A     -0.794648
      16A     -0.756380    17A     -0.694938    18A     -0.683590
      19A     -0.646090    20A     -0.637137    21A     -0.628070
      22A     -0.574038    23A     -0.554901    24A     -0.543786
      25A     -0.536725    26A     -0.528656    27A     -0.502422
      28A     -0.449691    29A     -0.435751    30A     -0.404785

  @DF-RHF Final Energy:  -381.70010694533283

   => Energetics <=

    Nuclear Repulsion Energy =            330.6366296856910481
    One-Electron Energy =               -1174.5190308736935094
    Two-Electron Energy =                 462.1822942426695704
    Total Energy =                       -381.7001069453328341
  Basis Set: (AUG-CC-PVTZ AUX)
    Blend: AUG-CC-PVTZ-RI
    Molecular point group: c1

    Geometry (in Angstrom), charge = 0, multiplicity = 1:

       Center              X                  Y                   Z               Mass
    ------------   -----------------  -----------------  -----------------  -----------------
         O            1.178743334120     1.331126797562     0.000000076376    15.994914619570
         O           -3.791502665880     0.162726797562    -0.000002923624    15.994914619570
         C            2.264707334120    -0.818581202438    -0.000006923624    12.000000000000
         C            3.591099334120    -0.074129202438     0.000004076376    12.000000000000
         C            1.066453334120     0.105052797562     0.000000076376    12.000000000000
         C           -0.279265665880    -0.544001202438     0.000004076376    12.000000000000
         C           -1.410972665880     0.186032797562     0.000000076376    12.000000000000
         C           -2.733209665880    -0.460224202438     0.000002076376    12.000000000000
         H            2.178585334120    -1.479420202438    -0.873894923624     1.007825032230
         H            2.178582334120    -1.479442202438     0.873864076376     1.007825032230
         H            3.674394334120     0.565521797562    -0.880721923624     1.007825032230
         H            3.674401334120     0.565485797562     0.880755076376     1.007825032230
         H            4.426016334120    -0.779300202438    -0.000013923624     1.007825032230
         H           -0.326926665880    -1.633520202438     0.000010076376     1.007825032230
         H           -1.367139665880     1.272773797562    -0.000005923624     1.007825032230
         H           -2.724453165880    -1.620055802438     0.000011476376     1.007825032230

  Basis Set: AUG-CC-PVTZ
    Blend: AUG-CC-PVTZ
  Basis Set: (AUG-CC-PVTZ AUX)
    Blend: AUG-CC-PVTZ-JKFIT
	 Reference Energy          =    -381.7001069453328341 [Eh]
	 Singles Energy            =      -0.0000000000000000 [Eh]
	 Same-Spin Energy          =      -0.3776692697283872 [Eh]
	 Opposite-Spin Energy      =      -1.2245217200527123 [Eh]
	 Correlation Energy        =      -1.6021909897810995 [Eh]
	 Total Energy              =    -383.3022979351139270 [Eh]

	 ================> DF-SCS-MP2 Energies <==================
	-----------------------------------------------------------
	 SCS Same-Spin Scale       =       0.3333333333333333 [-]
	 SCS Opposite-Spin Scale   =       1.2000000000000000 [-]
	 SCS Same-Spin Energy      =      -0.1258897565761291 [Eh]
	 SCS Opposite-Spin Energy  =      -1.4694260640632548 [Eh]
	 SCS Correlation Energy    =      -1.5953158206393838 [Eh]
	 SCS Total Energy          =    -383.2954227659722051 [Eh]
	-----------------------------------------------------------

  Dipole Moment: [D]
     X:     2.7769      Y:    -3.4466      Z:     0.0000     Total:     4.4261

*** Psi4 exiting successfully. Buy a developer a beer!
