                               Psi4 1.3.2 release

  ==> Input File <==

--------------------------------------------------------------------------
#psi4
#
memory 32 gb

molecule  {
0 1
  O        1.1855920    -1.3251230    -0.0110750
  O       -3.7982648    -0.1603045    -0.0306427
  C        2.2579520     0.8287430     0.0207180
  C        3.5859950     0.0918750    -0.0061980
  C        1.0665970    -0.1008810     0.0170560
  C       -0.2810060     0.5415760     0.0240110
  C       -1.3975936    -0.1678868     0.0017470
  C       -2.7329950     0.4481680    -0.0067340
  H        2.1768340     1.4746290     0.9052650
  H        2.1584520     1.5067170    -0.8392700
  H        3.6798240    -0.5618240     0.8622080
  H        3.6612870    -0.5322660    -0.8978130
  H        4.4176170     0.8001410    -0.0031560
  H       -0.3336460     1.6309400     0.0414110
  H       -1.3609630    -1.2775220    -0.0163660
  H       -2.7297600     1.5577740     0.0156350
units angstrom
no_reorient  #important for SAPT in psi4, default
symmetry c1  #important for SAPT in psi4, default
}

set PROPERTIES_ORIGIN ["COM"]
properties('MP2/aug-cc-pvtz', properties = ['dipole'])
--------------------------------------------------------------------------

    Molecular point group: c1
  Charge       = 0
  Multiplicity = 1
  Basis Set: AUG-CC-PVTZ
    Blend: AUG-CC-PVTZ
  Basis Set: (AUG-CC-PVTZ AUX)
    Blend: AUG-CC-PVTZ-JKFIT

    Orbital Energies [Eh]
    ---------------------

    Doubly Occupied:

       1A    -20.574943     2A    -20.564864     3A    -11.354679
       4A    -11.351550     5A    -11.280007     6A    -11.276672
       7A    -11.257498     8A    -11.228594     9A     -1.395861
      10A     -1.394583    11A     -1.119718    12A     -1.071245
      13A     -0.955078    14A     -0.880917    15A     -0.798089
      16A     -0.757696    17A     -0.697062    18A     -0.687349
      19A     -0.646580    20A     -0.638216    21A     -0.630310
      22A     -0.567562    23A     -0.555608    24A     -0.544573
      25A     -0.536802    26A     -0.529220    27A     -0.502543
      28A     -0.451004    29A     -0.436298    30A     -0.409971

  @DF-RHF Final Energy:  -381.70248526932369

   => Energetics <=

    Nuclear Repulsion Energy =            331.2638958682109092
    One-Electron Energy =               -1175.7425754147211592
    Two-Electron Energy =                 462.7761942771865051
    Total Energy =                       -381.7024852693236880
  Basis Set: (AUG-CC-PVTZ AUX)
    Blend: AUG-CC-PVTZ-RI
    Molecular point group: c1

    Geometry (in Angstrom), charge = 0, multiplicity = 1:

       Center              X                  Y                   Z               Mass
    ------------   -----------------  -----------------  -----------------  -----------------
         O            1.185959017626    -1.330249327681    -0.011149736261    15.994914619570
         O           -3.797897782374    -0.165430827681    -0.030717436261    15.994914619570
         C            2.258319017626     0.823616672319     0.020643263739    12.000000000000
         C            3.586362017626     0.086748672319    -0.006272736261    12.000000000000
         C            1.066964017626    -0.106007327681     0.016981263739    12.000000000000
         C           -0.280638982374     0.536449672319     0.023936263739    12.000000000000
         C           -1.397226582374    -0.173013127681     0.001672263739    12.000000000000
         C           -2.732627982374     0.443041672319    -0.006808736261    12.000000000000
         H            2.177201017626     1.469502672319     0.905190263739     1.007825032230
         H            2.158819017626     1.501590672319    -0.839344736261     1.007825032230
         H            3.680191017626    -0.566950327681     0.862133263739     1.007825032230
         H            3.661654017626    -0.537392327681    -0.897887736261     1.007825032230
         H            4.417984017626     0.795014672319    -0.003230736261     1.007825032230
         H           -0.333278982374     1.625813672319     0.041336263739     1.007825032230
         H           -1.360595982374    -1.282648327681    -0.016440736261     1.007825032230
         H           -2.729392982374     1.552647672319     0.015560263739     1.007825032230

  Basis Set: AUG-CC-PVTZ
    Blend: AUG-CC-PVTZ
  Basis Set: (AUG-CC-PVTZ AUX)
    Blend: AUG-CC-PVTZ-JKFIT
	 Reference Energy          =    -381.7024852693236880 [Eh]
	 Singles Energy            =      -0.0000000000000000 [Eh]
	 Same-Spin Energy          =      -0.3773059475479745 [Eh]
	 Opposite-Spin Energy      =      -1.2235376011707451 [Eh]
	 Correlation Energy        =      -1.6008435487187196 [Eh]
	 Total Energy              =    -383.3033288180424165 [Eh]

	 ================> DF-SCS-MP2 Energies <==================
	-----------------------------------------------------------
	 SCS Same-Spin Scale       =       0.3333333333333333 [-]
	 SCS Opposite-Spin Scale   =       1.2000000000000000 [-]
	 SCS Same-Spin Energy      =      -0.1257686491826581 [Eh]
	 SCS Opposite-Spin Energy  =      -1.4682451214048939 [Eh]
	 SCS Correlation Energy    =      -1.5940137705875521 [Eh]
	 SCS Total Energy          =    -383.2964990399112253 [Eh]
	-----------------------------------------------------------

  Dipole Moment: [D]
     X:     2.7913      Y:     3.4756      Z:     0.0898     Total:     4.4586

*** Psi4 exiting successfully. Buy a developer a beer!
