                               Psi4 1.3.2 release

  ==> Input File <==

--------------------------------------------------------------------------
#psi4
#
memory 32 gb

molecule  {
0 1
  O        1.1855920    -1.3251230    -0.0110750
  O       -3.7874790    -0.1788050    -0.0307850
  C        2.2579520     0.8287430     0.0207180
  C        3.5986584     0.1151649    -0.0059247
  C        1.0505565    -0.0799524     0.0175914
  C       -0.2810060     0.5415760     0.0240110
  C       -1.4085440    -0.1910960     0.0012370
  C       -2.7329950     0.4481680    -0.0067340
  H        2.1768340     1.4746290     0.9052650
  H        2.1584520     1.5067170    -0.8392700
  H        3.6798240    -0.5618240     0.8622080
  H        3.6612870    -0.5322660    -0.8978130
  H        4.4176170     0.8001410    -0.0031560
  H       -0.3336460     1.6309400     0.0414110
  H       -1.3609630    -1.2775220    -0.0163660
  H       -2.7297600     1.5577740     0.0156350
units angstrom
no_reorient  #important for SAPT in psi4, default
symmetry c1  #important for SAPT in psi4, default
}

set PROPERTIES_ORIGIN ["COM"]
properties('MP2/aug-cc-pvtz', properties = ['dipole'])
--------------------------------------------------------------------------

    Molecular point group: c1
  Charge       = 0
  Multiplicity = 1
  Basis Set: AUG-CC-PVTZ
    Blend: AUG-CC-PVTZ
  Basis Set: (AUG-CC-PVTZ AUX)
    Blend: AUG-CC-PVTZ-JKFIT

    Orbital Energies [Eh]
    ---------------------

    Doubly Occupied:

       1A    -20.576173     2A    -20.561727     3A    -11.354859
       4A    -11.353080     5A    -11.283070     6A    -11.280944
       7A    -11.257356     8A    -11.228138     9A     -1.397144
      10A     -1.379308    11A     -1.118517    12A     -1.069791
      13A     -0.959723    14A     -0.881027    15A     -0.803637
      16A     -0.756979    17A     -0.696219    18A     -0.686755
      19A     -0.643284    20A     -0.636493    21A     -0.627554
      22A     -0.573663    23A     -0.554400    24A     -0.551384
      25A     -0.530920    26A     -0.525145    27A     -0.495824
      28A     -0.452432    29A     -0.438730    30A     -0.404832

  @DF-RHF Final Energy:  -381.69833305800074

   => Energetics <=

    Nuclear Repulsion Energy =            330.8871592731722444
    One-Electron Energy =               -1175.0127660383359398
    Two-Electron Energy =                 462.4272737071628967
    Total Energy =                       -381.6983330580007419
  Basis Set: (AUG-CC-PVTZ AUX)
    Blend: AUG-CC-PVTZ-RI
    Molecular point group: c1

    Geometry (in Angstrom), charge = 0, multiplicity = 1:

       Center              X                  Y                   Z               Mass
    ------------   -----------------  -----------------  -----------------  -----------------
         O            1.185953770528    -1.329858418550    -0.011161412256    15.994914619570
         O           -3.787117229472    -0.183540418550    -0.030871412256    15.994914619570
         C            2.258313770528     0.824007581450     0.020631587744    12.000000000000
         C            3.599020170528     0.110429481450    -0.006011112256    12.000000000000
         C            1.050918270528    -0.084687818550     0.017504987744    12.000000000000
         C           -0.280644229472     0.536840581450     0.023924587744    12.000000000000
         C           -1.408182229472    -0.195831418550     0.001150587744    12.000000000000
         C           -2.732633229472     0.443432581450    -0.006820412256    12.000000000000
         H            2.177195770528     1.469893581450     0.905178587744     1.007825032230
         H            2.158813770528     1.501981581450    -0.839356412256     1.007825032230
         H            3.680185770528    -0.566559418550     0.862121587744     1.007825032230
         H            3.661648770528    -0.537001418550    -0.897899412256     1.007825032230
         H            4.417978770528     0.795405581450    -0.003242412256     1.007825032230
         H           -0.333284229472     1.626204581450     0.041324587744     1.007825032230
         H           -1.360601229472    -1.282257418550    -0.016452412256     1.007825032230
         H           -2.729398229472     1.553038581450     0.015548587744     1.007825032230

  Basis Set: AUG-CC-PVTZ
    Blend: AUG-CC-PVTZ
  Basis Set: (AUG-CC-PVTZ AUX)
    Blend: AUG-CC-PVTZ-JKFIT
	 Reference Energy          =    -381.6983330580007419 [Eh]
	 Singles Energy            =      -0.0000000000000000 [Eh]
	 Same-Spin Energy          =      -0.3782187782835918 [Eh]
	 Opposite-Spin Energy      =      -1.2255042362027664 [Eh]
	 Correlation Energy        =      -1.6037230144863583 [Eh]
	 Total Energy              =    -383.3020560724871189 [Eh]

	 ================> DF-SCS-MP2 Energies <==================
	-----------------------------------------------------------
	 SCS Same-Spin Scale       =       0.3333333333333333 [-]
	 SCS Opposite-Spin Scale   =       1.2000000000000000 [-]
	 SCS Same-Spin Energy      =      -0.1260729260945306 [Eh]
	 SCS Opposite-Spin Energy  =      -1.4706050834433195 [Eh]
	 SCS Correlation Energy    =      -1.5966780095378501 [Eh]
	 SCS Total Energy          =    -383.2950110675386100 [Eh]
	-----------------------------------------------------------

  Dipole Moment: [D]
     X:     2.6368      Y:     3.5805      Z:     0.0905     Total:     4.4476

*** Psi4 exiting successfully. Buy a developer a beer!
