                               Psi4 1.3.2 release

  ==> Input File <==

--------------------------------------------------------------------------
#psi4
#
memory 32 gb

molecule  {
0 1
  O        1.1855920    -1.3251230    -0.0110750
  O       -3.7874790    -0.1788050    -0.0307850
  C        2.2579520     0.8287430     0.0207180
  C        3.5729271     0.0688096    -0.0064631
  C        1.0830004    -0.1215264     0.0165217
  C       -0.2810060     0.5415760     0.0240110
  C       -1.4085440    -0.1910960     0.0012370
  C       -2.7329950     0.4481680    -0.0067340
  H        2.1768340     1.4746290     0.9052650
  H        2.1584520     1.5067170    -0.8392700
  H        3.6798240    -0.5618240     0.8622080
  H        3.6612870    -0.5322660    -0.8978130
  H        4.4176170     0.8001410    -0.0031560
  H       -0.3336460     1.6309400     0.0414110
  H       -1.3609630    -1.2775220    -0.0163660
  H       -2.7297600     1.5577740     0.0156350
units angstrom
no_reorient  #important for SAPT in psi4, default
symmetry c1  #important for SAPT in psi4, default
}

set PROPERTIES_ORIGIN ["COM"]
properties('MP2/aug-cc-pvtz', properties = ['dipole'])
--------------------------------------------------------------------------

    Molecular point group: c1
  Charge       = 0
  Multiplicity = 1
  Basis Set: AUG-CC-PVTZ
    Blend: AUG-CC-PVTZ
  Basis Set: (AUG-CC-PVTZ AUX)
    Blend: AUG-CC-PVTZ-JKFIT

    Orbital Energies [Eh]
    ---------------------

    Doubly Occupied:

       1A    -20.571886     2A    -20.566471     3A    -11.353071
       4A    -11.349612     5A    -11.281177     6A    -11.274797
       7A    -11.256954     8A    -11.228702     9A     -1.410323
      10A     -1.393323    11A     -1.111366    12A     -1.071125
      13A     -0.950173    14A     -0.877559    15A     -0.798951
      16A     -0.755995    17A     -0.697624    18A     -0.684714
      19A     -0.649387    20A     -0.640824    21A     -0.630041
      22A     -0.573465    23A     -0.557299    24A     -0.540399
      25A     -0.538522    26A     -0.530320    27A     -0.508421
      28A     -0.450629    29A     -0.432001    30A     -0.404146

  @DF-RHF Final Energy:  -381.70386974128013

   => Energetics <=

    Nuclear Repulsion Energy =            331.4058165256365101
    One-Electron Energy =               -1176.0408205155752057
    Two-Electron Energy =                 462.9311342486585659
    Total Energy =                       -381.7038697412801298
  Basis Set: (AUG-CC-PVTZ AUX)
    Blend: AUG-CC-PVTZ-RI
    Molecular point group: c1

    Geometry (in Angstrom), charge = 0, multiplicity = 1:

       Center              X                  Y                   Z               Mass
    ------------   -----------------  -----------------  -----------------  -----------------
         O            1.185234899903    -1.320441830219    -0.010989196446    15.994914619570
         O           -3.787836100097    -0.174123830219    -0.030699196446    15.994914619570
         C            2.257594899903     0.833424169781     0.020803803554    12.000000000000
         C            3.572569999903     0.073490769781    -0.006377296446    12.000000000000
         C            1.082643299903    -0.116845230219     0.016607503554    12.000000000000
         C           -0.281363100097     0.546257169781     0.024096803554    12.000000000000
         C           -1.408901100097    -0.186414830219     0.001322803554    12.000000000000
         C           -2.733352100097     0.452849169781    -0.006648196446    12.000000000000
         H            2.176476899903     1.479310169781     0.905350803554     1.007825032230
         H            2.158094899903     1.511398169781    -0.839184196446     1.007825032230
         H            3.679466899903    -0.557142830219     0.862293803554     1.007825032230
         H            3.660929899903    -0.527584830219    -0.897727196446     1.007825032230
         H            4.417259899903     0.804822169781    -0.003070196446     1.007825032230
         H           -0.334003100097     1.635621169781     0.041496803554     1.007825032230
         H           -1.361320100097    -1.272840830219    -0.016280196446     1.007825032230
         H           -2.730117100097     1.562455169781     0.015720803554     1.007825032230

  Basis Set: AUG-CC-PVTZ
    Blend: AUG-CC-PVTZ
  Basis Set: (AUG-CC-PVTZ AUX)
    Blend: AUG-CC-PVTZ-JKFIT
	 Reference Energy          =    -381.7038697412801298 [Eh]
	 Singles Energy            =      -0.0000000000000000 [Eh]
	 Same-Spin Energy          =      -0.3767338471036198 [Eh]
	 Opposite-Spin Energy      =      -1.2223906693169011 [Eh]
	 Correlation Energy        =      -1.5991245164205208 [Eh]
	 Total Energy              =    -383.3029942577006750 [Eh]

	 ================> DF-SCS-MP2 Energies <==================
	-----------------------------------------------------------
	 SCS Same-Spin Scale       =       0.3333333333333333 [-]
	 SCS Opposite-Spin Scale   =       1.2000000000000000 [-]
	 SCS Same-Spin Energy      =      -0.1255779490345399 [Eh]
	 SCS Opposite-Spin Energy  =      -1.4668688031802812 [Eh]
	 SCS Correlation Energy    =      -1.5924467522148211 [Eh]
	 SCS Total Energy          =    -383.2963164934949418 [Eh]
	-----------------------------------------------------------

  Dipole Moment: [D]
     X:     2.8713      Y:     3.4388      Z:     0.0895     Total:     4.4808

*** Psi4 exiting successfully. Buy a developer a beer!
