                               Psi4 1.3.2 release

  ==> Input File <==

--------------------------------------------------------------------------
#psi4
#
memory 32 gb

molecule  {
0 1
  O        1.1855920    -1.3251230    -0.0110750
  O       -3.7874790    -0.1788050    -0.0307850
  C        2.2579520     0.8287430     0.0207180
  C        3.5859950     0.0918750    -0.0061980
  C        1.0609394    -0.1126129     0.0167604
  C       -0.2810060     0.5415760     0.0240110
  C       -1.4021046    -0.2009061     0.0010520
  C       -2.7329950     0.4481680    -0.0067340
  H        2.1768340     1.4746290     0.9052650
  H        2.1584520     1.5067170    -0.8392700
  H        3.6798240    -0.5618240     0.8622080
  H        3.6612870    -0.5322660    -0.8978130
  H        4.4176170     0.8001410    -0.0031560
  H       -0.3336460     1.6309400     0.0414110
  H       -1.3609630    -1.2775220    -0.0163660
  H       -2.7297600     1.5577740     0.0156350
units angstrom
no_reorient  #important for SAPT in psi4, default
symmetry c1  #important for SAPT in psi4, default
}

set PROPERTIES_ORIGIN ["COM"]
properties('MP2/aug-cc-pvtz', properties = ['dipole'])
--------------------------------------------------------------------------

    Molecular point group: c1
  Charge       = 0
  Multiplicity = 1
  Basis Set: AUG-CC-PVTZ
    Blend: AUG-CC-PVTZ
  Basis Set: (AUG-CC-PVTZ AUX)
    Blend: AUG-CC-PVTZ-JKFIT

    Orbital Energies [Eh]
    ---------------------

    Doubly Occupied:

       1A    -20.574086     2A    -20.564275     3A    -11.352447
       4A    -11.352040     5A    -11.281324     6A    -11.277825
       7A    -11.255948     8A    -11.227429     9A     -1.401592
      10A     -1.395125    11A     -1.114252    12A     -1.067638
      13A     -0.952542    14A     -0.876772    15A     -0.802366
      16A     -0.756076    17A     -0.697081    18A     -0.685381
      19A     -0.644816    20A     -0.637680    21A     -0.630782
      22A     -0.577890    23A     -0.555220    24A     -0.543368
      25A     -0.537637    26A     -0.528485    27A     -0.502889
      28A     -0.451219    29A     -0.433076    30A     -0.405274

  @DF-RHF Final Energy:  -381.70413020634868

   => Energetics <=

    Nuclear Repulsion Energy =            331.1803046608749241
    One-Electron Energy =               -1175.6038008266277757
    Two-Electron Energy =                 462.7193659594041151
    Total Energy =                       -381.7041302063486796
  Basis Set: (AUG-CC-PVTZ AUX)
    Blend: AUG-CC-PVTZ-RI
    Molecular point group: c1

    Geometry (in Angstrom), charge = 0, multiplicity = 1:

       Center              X                  Y                   Z               Mass
    ------------   -----------------  -----------------  -----------------  -----------------
         O            1.185508382594    -1.322815947418    -0.011023337606    15.994914619570
         O           -3.787562617406    -0.176497947418    -0.030733337606    15.994914619570
         C            2.257868382594     0.831050052582     0.020769662394    12.000000000000
         C            3.585911382594     0.094182052582    -0.006146337606    12.000000000000
         C            1.060855782594    -0.110305847418     0.016812062394    12.000000000000
         C           -0.281089617406     0.543883052582     0.024062662394    12.000000000000
         C           -1.402188217406    -0.198599047418     0.001103662394    12.000000000000
         C           -2.733078617406     0.450475052582    -0.006682337606    12.000000000000
         H            2.176750382594     1.476936052582     0.905316662394     1.007825032230
         H            2.158368382594     1.509024052582    -0.839218337606     1.007825032230
         H            3.679740382594    -0.559516947418     0.862259662394     1.007825032230
         H            3.661203382594    -0.529958947418    -0.897761337606     1.007825032230
         H            4.417533382594     0.802448052582    -0.003104337606     1.007825032230
         H           -0.333729617406     1.633247052582     0.041462662394     1.007825032230
         H           -1.361046617406    -1.275214947418    -0.016314337606     1.007825032230
         H           -2.729843617406     1.560081052582     0.015686662394     1.007825032230

  Basis Set: AUG-CC-PVTZ
    Blend: AUG-CC-PVTZ
  Basis Set: (AUG-CC-PVTZ AUX)
    Blend: AUG-CC-PVTZ-JKFIT
	 Reference Energy          =    -381.7041302063486796 [Eh]
	 Singles Energy            =      -0.0000000000000000 [Eh]
	 Same-Spin Energy          =      -0.3769516475136375 [Eh]
	 Opposite-Spin Energy      =      -1.2229492277671583 [Eh]
	 Correlation Energy        =      -1.5999008752807957 [Eh]
	 Total Energy              =    -383.3040310816294891 [Eh]

	 ================> DF-SCS-MP2 Energies <==================
	-----------------------------------------------------------
	 SCS Same-Spin Scale       =       0.3333333333333333 [-]
	 SCS Opposite-Spin Scale   =       1.2000000000000000 [-]
	 SCS Same-Spin Energy      =      -0.1256505491712125 [Eh]
	 SCS Opposite-Spin Energy  =      -1.4675390733205900 [Eh]
	 SCS Correlation Energy    =      -1.5931896224918025 [Eh]
	 SCS Total Energy          =    -383.2973198288405001 [Eh]
	-----------------------------------------------------------

  Dipole Moment: [D]
     X:     2.6768      Y:     3.4710      Z:     0.0895     Total:     4.3842

*** Psi4 exiting successfully. Buy a developer a beer!
