                               Psi4 1.3.2 release

  ==> Input File <==

--------------------------------------------------------------------------
#psi4
#
memory 32 gb

molecule  {
0 1
  O        1.1855920    -1.3251230    -0.0110750
  O       -3.7874790    -0.1788050    -0.0307850
  C        2.2579520     0.8287430     0.0207180
  C        3.5859950     0.0918750    -0.0061980
  C        1.0551789    -0.1242986     0.0166504
  C       -0.2810060     0.5415760     0.0240110
  C       -1.4085440    -0.1910960     0.0012370
  C       -2.7329950     0.4481680    -0.0067340
  H        2.1768340     1.4746290     0.9052650
  H        2.1584520     1.5067170    -0.8392700
  H        3.6798240    -0.5618240     0.8622080
  H        3.6612870    -0.5322660    -0.8978130
  H        4.4176170     0.8001410    -0.0031560
  H       -0.3526524     1.6298563     0.0413458
  H       -1.3609630    -1.2775220    -0.0163660
  H       -2.7297600     1.5577740     0.0156350
units angstrom
no_reorient  #important for SAPT in psi4, default
symmetry c1  #important for SAPT in psi4, default
}

set PROPERTIES_ORIGIN ["COM"]
properties('MP2/aug-cc-pvtz', properties = ['dipole'])
--------------------------------------------------------------------------

    Molecular point group: c1
  Charge       = 0
  Multiplicity = 1
  Basis Set: AUG-CC-PVTZ
    Blend: AUG-CC-PVTZ
  Basis Set: (AUG-CC-PVTZ AUX)
    Blend: AUG-CC-PVTZ-JKFIT

    Orbital Energies [Eh]
    ---------------------

    Doubly Occupied:

       1A    -20.574024     2A    -20.565863     3A    -11.352545
       4A    -11.351288     5A    -11.281373     6A    -11.277310
       7A    -11.255438     8A    -11.227029     9A     -1.409699
      10A     -1.395217    11A     -1.115027    12A     -1.065745
      13A     -0.952715    14A     -0.876540    15A     -0.800654
      16A     -0.757437    17A     -0.698174    18A     -0.685636
      19A     -0.644120    20A     -0.639429    21A     -0.631699
      22A     -0.575363    23A     -0.557055    24A     -0.543387
      25A     -0.539447    26A     -0.528546    27A     -0.503845
      28A     -0.451592    29A     -0.432086    30A     -0.405803

  @DF-RHF Final Energy:  -381.70446671673619

   => Energetics <=

    Nuclear Repulsion Energy =            331.3017077678231317
    One-Electron Energy =               -1175.8241731608322880
    Two-Electron Energy =                 462.8179986762729641
    Total Energy =                       -381.7044667167361922
  Basis Set: (AUG-CC-PVTZ AUX)
    Blend: AUG-CC-PVTZ-RI
    Molecular point group: c1

    Geometry (in Angstrom), charge = 0, multiplicity = 1:

       Center              X                  Y                   Z               Mass
    ------------   -----------------  -----------------  -----------------  -----------------
         O            1.186985851012    -1.322605337259    -0.011030783137    15.994914619570
         O           -3.786085148988    -0.176287337259    -0.030740783137    15.994914619570
         C            2.259345851012     0.831260662741     0.020762216863    12.000000000000
         C            3.587388851012     0.094392662741    -0.006153783137    12.000000000000
         C            1.056572751012    -0.121780937259     0.016694616863    12.000000000000
         C           -0.279612148988     0.544093662741     0.024055216863    12.000000000000
         C           -1.407150148988    -0.188578337259     0.001281216863    12.000000000000
         C           -2.731601148988     0.450685662741    -0.006689783137    12.000000000000
         H            2.178227851012     1.477146662741     0.905309216863     1.007825032230
         H            2.159845851012     1.509234662741    -0.839225783137     1.007825032230
         H            3.681217851012    -0.559306337259     0.862252216863     1.007825032230
         H            3.662680851012    -0.529748337259    -0.897768783137     1.007825032230
         H            4.419010851012     0.802658662741    -0.003111783137     1.007825032230
         H           -0.351258548988     1.632373962741     0.041390016863     1.007825032230
         H           -1.359569148988    -1.275004337259    -0.016321783137     1.007825032230
         H           -2.728366148988     1.560291662741     0.015679216863     1.007825032230

  Basis Set: AUG-CC-PVTZ
    Blend: AUG-CC-PVTZ
  Basis Set: (AUG-CC-PVTZ AUX)
    Blend: AUG-CC-PVTZ-JKFIT
	 Reference Energy          =    -381.7044667167361922 [Eh]
	 Singles Energy            =      -0.0000000000000000 [Eh]
	 Same-Spin Energy          =      -0.3767670980994645 [Eh]
	 Opposite-Spin Energy      =      -1.2224594183629216 [Eh]
	 Correlation Energy        =      -1.5992265164623860 [Eh]
	 Total Energy              =    -383.3036932331986009 [Eh]

	 ================> DF-SCS-MP2 Energies <==================
	-----------------------------------------------------------
	 SCS Same-Spin Scale       =       0.3333333333333333 [-]
	 SCS Opposite-Spin Scale   =       1.2000000000000000 [-]
	 SCS Same-Spin Energy      =      -0.1255890326998215 [Eh]
	 SCS Opposite-Spin Energy  =      -1.4669513020355058 [Eh]
	 SCS Correlation Energy    =      -1.5925403347353273 [Eh]
	 SCS Total Energy          =    -383.2970070514714962 [Eh]
	-----------------------------------------------------------

  Dipole Moment: [D]
     X:     2.6614      Y:     3.4194      Z:     0.0891     Total:     4.3340

*** Psi4 exiting successfully. Buy a developer a beer!
