                               Psi4 1.3.2 release

  ==> Input File <==

--------------------------------------------------------------------------
#psi4
#
memory 32 gb

molecule  {
0 1
  O        1.1855920    -1.3251230    -0.0110750
  O       -3.7874790    -0.1788050    -0.0307850
  C        2.2579520     0.8287430     0.0207180
  C        3.5859950     0.0918750    -0.0061980
  C        1.0665970    -0.1008810     0.0170560
  C       -0.2746531     0.5317085     0.0239068
  C       -1.4085440    -0.1910960     0.0012370
  C       -2.7329950     0.4481680    -0.0067340
  H        2.1768340     1.4746290     0.9052650
  H        2.1584520     1.5067170    -0.8392700
  H        3.6798240    -0.5618240     0.8622080
  H        3.6612870    -0.5322660    -0.8978130
  H        4.4176170     0.8001410    -0.0031560
  H       -0.3336460     1.6309400     0.0414110
  H       -1.3514833    -1.2770669    -0.0162693
  H       -2.7297600     1.5577740     0.0156350
units angstrom
no_reorient  #important for SAPT in psi4, default
symmetry c1  #important for SAPT in psi4, default
}

set PROPERTIES_ORIGIN ["COM"]
properties('MP2/aug-cc-pvtz', properties = ['dipole'])
--------------------------------------------------------------------------

    Molecular point group: c1
  Charge       = 0
  Multiplicity = 1
  Basis Set: AUG-CC-PVTZ
    Blend: AUG-CC-PVTZ
  Basis Set: (AUG-CC-PVTZ AUX)
    Blend: AUG-CC-PVTZ-JKFIT

    Orbital Energies [Eh]
    ---------------------

    Doubly Occupied:

       1A    -20.574609     2A    -20.563807     3A    -11.353185
       4A    -11.352059     5A    -11.282213     6A    -11.278090
       7A    -11.257014     8A    -11.228250     9A     -1.396034
      10A     -1.394433    11A     -1.115171    12A     -1.070375
      13A     -0.956015    14A     -0.879567    15A     -0.801402
      16A     -0.756097    17A     -0.696833    18A     -0.685778
      19A     -0.646192    20A     -0.637829    21A     -0.630363
      22A     -0.570772    23A     -0.555137    24A     -0.543795
      25A     -0.536768    26A     -0.528878    27A     -0.502119
      28A     -0.452041    29A     -0.436734    30A     -0.404517

  @DF-RHF Final Energy:  -381.70260999655295

   => Energetics <=

    Nuclear Repulsion Energy =            331.2606297070944947
    One-Electron Energy =               -1175.7543204877545122
    Two-Electron Energy =                 462.7910807841070664
    Total Energy =                       -381.7026099965529511
  Basis Set: (AUG-CC-PVTZ AUX)
    Blend: AUG-CC-PVTZ-RI
    Molecular point group: c1

    Geometry (in Angstrom), charge = 0, multiplicity = 1:

       Center              X                  Y                   Z               Mass
    ------------   -----------------  -----------------  -----------------  -----------------
         O            1.184826495737    -1.324070294707    -0.011064517050    15.994914619570
         O           -3.788244504263    -0.177752294707    -0.030774517050    15.994914619570
         C            2.257186495737     0.829795705293     0.020728482950    12.000000000000
         C            3.585229495737     0.092927705293    -0.006187517050    12.000000000000
         C            1.065831495737    -0.099828294707     0.017066482950    12.000000000000
         C           -0.275418604263     0.532761205293     0.023917282950    12.000000000000
         C           -1.409309504263    -0.190043294707     0.001247482950    12.000000000000
         C           -2.733760504263     0.449220705293    -0.006723517050    12.000000000000
         H            2.176068495737     1.475681705293     0.905275482950     1.007825032230
         H            2.157686495737     1.507769705293    -0.839259517050     1.007825032230
         H            3.679058495737    -0.560771294707     0.862218482950     1.007825032230
         H            3.660521495737    -0.531213294707    -0.897802517050     1.007825032230
         H            4.416851495737     0.801193705293    -0.003145517050     1.007825032230
         H           -0.334411504263     1.631992705293     0.041421482950     1.007825032230
         H           -1.352248804263    -1.276014194707    -0.016258817050     1.007825032230
         H           -2.730525504263     1.558826705293     0.015645482950     1.007825032230

  Basis Set: AUG-CC-PVTZ
    Blend: AUG-CC-PVTZ
  Basis Set: (AUG-CC-PVTZ AUX)
    Blend: AUG-CC-PVTZ-JKFIT
	 Reference Energy          =    -381.7026099965529511 [Eh]
	 Singles Energy            =      -0.0000000000000000 [Eh]
	 Same-Spin Energy          =      -0.3775194211795021 [Eh]
	 Opposite-Spin Energy      =      -1.2239793342258030 [Eh]
	 Correlation Energy        =      -1.6014987554053051 [Eh]
	 Total Energy              =    -383.3041087519582675 [Eh]

	 ================> DF-SCS-MP2 Energies <==================
	-----------------------------------------------------------
	 SCS Same-Spin Scale       =       0.3333333333333333 [-]
	 SCS Opposite-Spin Scale   =       1.2000000000000000 [-]
	 SCS Same-Spin Energy      =      -0.1258398070598340 [Eh]
	 SCS Opposite-Spin Energy  =      -1.4687752010709636 [Eh]
	 SCS Correlation Energy    =      -1.5946150081307977 [Eh]
	 SCS Total Energy          =    -383.2972250046837530 [Eh]
	-----------------------------------------------------------

  Dipole Moment: [D]
     X:     2.7331      Y:     3.5113      Z:     0.0899     Total:     4.4505

*** Psi4 exiting successfully. Buy a developer a beer!
