                               Psi4 1.3.2 release

  ==> Input File <==

--------------------------------------------------------------------------
#psi4
#
memory 32 gb

molecule  {
0 1
  O        1.1855920    -1.3251230    -0.0110750
  O       -3.7874790    -0.1788050    -0.0307850
  C        2.2579520     0.8287430     0.0207180
  C        3.5859950     0.0918750    -0.0061980
  C        1.0665970    -0.1008810     0.0170560
  C       -0.2810060     0.5415760     0.0240110
  C       -1.4085440    -0.1910960     0.0012370
  C       -2.7544881     0.4015631    -0.0078218
  H        2.1768340     1.4746290     0.9052650
  H        2.1584520     1.5067170    -0.8392700
  H        3.6798240    -0.5618240     0.8622080
  H        3.6612870    -0.5322660    -0.8978130
  H        4.4176170     0.8001410    -0.0031560
  H       -0.3336460     1.6309400     0.0414110
  H       -1.3989089    -1.2785116    -0.0169191
  H       -2.7297600     1.5577740     0.0156350
units angstrom
no_reorient  #important for SAPT in psi4, default
symmetry c1  #important for SAPT in psi4, default
}

set PROPERTIES_ORIGIN ["COM"]
properties('MP2/aug-cc-pvtz', properties = ['dipole'])
--------------------------------------------------------------------------

    Molecular point group: c1
  Charge       = 0
  Multiplicity = 1
  Basis Set: AUG-CC-PVTZ
    Blend: AUG-CC-PVTZ
  Basis Set: (AUG-CC-PVTZ AUX)
    Blend: AUG-CC-PVTZ-JKFIT

    Orbital Energies [Eh]
    ---------------------

    Doubly Occupied:

       1A    -20.575827     2A    -20.563431     3A    -11.353648
       4A    -11.349128     5A    -11.282718     6A    -11.276902
       7A    -11.256685     8A    -11.227970     9A     -1.424675
      10A     -1.393867    11A     -1.113358    12A     -1.069775
      13A     -0.954342    14A     -0.877629    15A     -0.791894
      16A     -0.757472    17A     -0.696217    18A     -0.688279
      19A     -0.645788    20A     -0.645738    21A     -0.631912
      22A     -0.573622    23A     -0.567814    24A     -0.543688
      25A     -0.540505    26A     -0.528510    27A     -0.501854
      28A     -0.445060    29A     -0.433192    30A     -0.406566

  @DF-RHF Final Energy:  -381.70308563398652

   => Energetics <=

    Nuclear Repulsion Energy =            331.5874892443824251
    One-Electron Energy =               -1176.3450156637920827
    Two-Electron Energy =                 463.0544407854231963
    Total Energy =                       -381.7030856339865181
  Basis Set: (AUG-CC-PVTZ AUX)
    Blend: AUG-CC-PVTZ-RI
    Molecular point group: c1

    Geometry (in Angstrom), charge = 0, multiplicity = 1:

       Center              X                  Y                   Z               Mass
    ------------   -----------------  -----------------  -----------------  -----------------
         O            1.188235156384    -1.320122992477    -0.010953336197    15.994914619570
         O           -3.784835843616    -0.173804992477    -0.030663336197    15.994914619570
         C            2.260595156384     0.833743007523     0.020839663803    12.000000000000
         C            3.588638156384     0.096875007523    -0.006076336197    12.000000000000
         C            1.069240156384    -0.095880992477     0.017177663803    12.000000000000
         C           -0.278362843616     0.546576007523     0.024132663803    12.000000000000
         C           -1.405900843616    -0.186095992477     0.001358663803    12.000000000000
         C           -2.751844943616     0.406563107523    -0.007700136197    12.000000000000
         H            2.179477156384     1.479629007523     0.905386663803     1.007825032230
         H            2.161095156384     1.511717007523    -0.839148336197     1.007825032230
         H            3.682467156384    -0.556823992477     0.862329663803     1.007825032230
         H            3.663930156384    -0.527265992477    -0.897691336197     1.007825032230
         H            4.420260156384     0.805141007523    -0.003034336197     1.007825032230
         H           -0.331002843616     1.635940007523     0.041532663803     1.007825032230
         H           -1.396265743616    -1.273511592477    -0.016797436197     1.007825032230
         H           -2.727116843616     1.562774007523     0.015756663803     1.007825032230

  Basis Set: AUG-CC-PVTZ
    Blend: AUG-CC-PVTZ
  Basis Set: (AUG-CC-PVTZ AUX)
    Blend: AUG-CC-PVTZ-JKFIT
	 Reference Energy          =    -381.7030856339865181 [Eh]
	 Singles Energy            =      -0.0000000000000000 [Eh]
	 Same-Spin Energy          =      -0.3764458418988758 [Eh]
	 Opposite-Spin Energy      =      -1.2214560005425432 [Eh]
	 Correlation Energy        =      -1.5979018424414191 [Eh]
	 Total Energy              =    -383.3009874764279630 [Eh]

	 ================> DF-SCS-MP2 Energies <==================
	-----------------------------------------------------------
	 SCS Same-Spin Scale       =       0.3333333333333333 [-]
	 SCS Opposite-Spin Scale   =       1.2000000000000000 [-]
	 SCS Same-Spin Energy      =      -0.1254819472996253 [Eh]
	 SCS Opposite-Spin Energy  =      -1.4657472006510519 [Eh]
	 SCS Correlation Energy    =      -1.5912291479506773 [Eh]
	 SCS Total Energy          =    -383.2943147819372030 [Eh]
	-----------------------------------------------------------

  Dipole Moment: [D]
     X:     2.6431      Y:     3.3208      Z:     0.0848     Total:     4.2451

*** Psi4 exiting successfully. Buy a developer a beer!
