                               Psi4 1.3.2 release

  ==> Input File <==

--------------------------------------------------------------------------
#psi4
#
memory 32 gb

molecule  {
0 1
  O        1.1855920    -1.3251230    -0.0110750
  O       -3.7874790    -0.1788050    -0.0307850
  C        2.2579520     0.8287430     0.0207180
  C        3.5859950     0.0918750    -0.0061980
  C        1.0665970    -0.1008810     0.0170560
  C       -0.3209055     0.5995881     0.0242561
  C       -1.4085440    -0.1910960     0.0012370
  C       -2.6977337     0.5166029    -0.0054518
  H        2.1768340     1.4746290     0.9052650
  H        2.1584520     1.5067170    -0.8392700
  H        3.6798240    -0.5618240     0.8622080
  H        3.6612870    -0.5322660    -0.8978130
  H        4.4176170     0.8001410    -0.0031560
  H       -0.3336460     1.6309400     0.0414110
  H       -1.3609630    -1.2775220    -0.0163660
  H       -2.7297600     1.5577740     0.0156350
units angstrom
no_reorient  #important for SAPT in psi4, default
symmetry c1  #important for SAPT in psi4, default
}

set PROPERTIES_ORIGIN ["COM"]
properties('MP2/aug-cc-pvtz', properties = ['dipole'])
--------------------------------------------------------------------------

    Molecular point group: c1
  Charge       = 0
  Multiplicity = 1
  Basis Set: AUG-CC-PVTZ
    Blend: AUG-CC-PVTZ
  Basis Set: (AUG-CC-PVTZ AUX)
    Blend: AUG-CC-PVTZ-JKFIT

    Orbital Energies [Eh]
    ---------------------

    Doubly Occupied:

       1A    -20.568705     2A    -20.567112     3A    -11.358800
       4A    -11.351646     5A    -11.282778     6A    -11.280321
       7A    -11.257855     8A    -11.228953     9A     -1.395080
      10A     -1.351628    11A     -1.117194    12A     -1.071375
      13A     -0.950297    14A     -0.882006    15A     -0.817810
      16A     -0.756743    17A     -0.702495    18A     -0.680653
      19A     -0.646479    20A     -0.637296    21A     -0.607359
      22A     -0.592094    23A     -0.546639    24A     -0.543814
      25A     -0.528999    26A     -0.520707    27A     -0.502005
      28A     -0.455429    29A     -0.430951    30A     -0.402310

  @DF-RHF Final Energy:  -381.68166110935204

   => Energetics <=

    Nuclear Repulsion Energy =            329.8432815156410243
    One-Electron Energy =               -1172.9788199343636279
    Two-Electron Energy =                 461.4538773093705686
    Total Energy =                       -381.6816611093520351
  Basis Set: (AUG-CC-PVTZ AUX)
    Blend: AUG-CC-PVTZ-RI
    Molecular point group: c1

    Geometry (in Angstrom), charge = 0, multiplicity = 1:

       Center              X                  Y                   Z               Mass
    ------------   -----------------  -----------------  -----------------  -----------------
         O            1.186088825163    -1.338664492674    -0.011238369088    15.994914619570
         O           -3.786982174837    -0.192346492674    -0.030948369088    15.994914619570
         C            2.258448825163     0.815201507326     0.020554630912    12.000000000000
         C            3.586491825163     0.078333507326    -0.006361369088    12.000000000000
         C            1.067093825163    -0.114422492674     0.016892630912    12.000000000000
         C           -0.320408674837     0.586046607326     0.024092730912    12.000000000000
         C           -1.408047174837    -0.204637492674     0.001073630912    12.000000000000
         C           -2.697236874837     0.503061407326    -0.005615169088    12.000000000000
         H            2.177330825163     1.461087507326     0.905101630912     1.007825032230
         H            2.158948825163     1.493175507326    -0.839433369088     1.007825032230
         H            3.680320825163    -0.575365492674     0.862044630912     1.007825032230
         H            3.661783825163    -0.545807492674    -0.897976369088     1.007825032230
         H            4.418113825163     0.786599507326    -0.003319369088     1.007825032230
         H           -0.333149174837     1.617398507326     0.041247630912     1.007825032230
         H           -1.360466174837    -1.291063492674    -0.016529369088     1.007825032230
         H           -2.729263174837     1.544232507326     0.015471630912     1.007825032230

  Basis Set: AUG-CC-PVTZ
    Blend: AUG-CC-PVTZ
  Basis Set: (AUG-CC-PVTZ AUX)
    Blend: AUG-CC-PVTZ-JKFIT
	 Reference Energy          =    -381.6816611093520351 [Eh]
	 Singles Energy            =      -0.0000000000000000 [Eh]
	 Same-Spin Energy          =      -0.3789439243432247 [Eh]
	 Opposite-Spin Energy      =      -1.2280922976128619 [Eh]
	 Correlation Energy        =      -1.6070362219560865 [Eh]
	 Total Energy              =    -383.2886973313081285 [Eh]

	 ================> DF-SCS-MP2 Energies <==================
	-----------------------------------------------------------
	 SCS Same-Spin Scale       =       0.3333333333333333 [-]
	 SCS Opposite-Spin Scale   =       1.2000000000000000 [-]
	 SCS Same-Spin Energy      =      -0.1263146414477415 [Eh]
	 SCS Opposite-Spin Energy  =      -1.4737107571354342 [Eh]
	 SCS Correlation Energy    =      -1.6000253985831758 [Eh]
	 SCS Total Energy          =    -383.2816865079352056 [Eh]
	-----------------------------------------------------------

  Dipole Moment: [D]
     X:     2.9880      Y:     3.7128      Z:     0.0966     Total:     4.7668

*** Psi4 exiting successfully. Buy a developer a beer!
