                               Psi4 1.3.2 release

  ==> Input File <==

--------------------------------------------------------------------------
#psi4
#
memory 32 gb

molecule  {
0 1
  O        1.1855920    -1.3251230    -0.0110750
  O       -3.7874790    -0.1788050    -0.0307850
  C        2.2579520     0.8287430     0.0207180
  C        3.5859950     0.0918750    -0.0061980
  C        1.0847538    -0.1224778    -0.0275092
  C       -0.2810060     0.5415760     0.0240110
  C       -1.4085440    -0.1910960     0.0012370
  C       -2.7329950     0.4481680    -0.0067340
  H        2.2095267     1.4917663     0.8949190
  H        2.1584520     1.5067170    -0.8392700
  H        3.6798240    -0.5618240     0.8622080
  H        3.6612870    -0.5322660    -0.8978130
  H        4.4176170     0.8001410    -0.0031560
  H       -0.3336460     1.6309400     0.0414110
  H       -1.3609630    -1.2775220    -0.0163660
  H       -2.7297600     1.5577740     0.0156350
units angstrom
no_reorient  #important for SAPT in psi4, default
symmetry c1  #important for SAPT in psi4, default
}

set PROPERTIES_ORIGIN ["COM"]
properties('MP2/aug-cc-pvtz', properties = ['dipole'])
--------------------------------------------------------------------------

    Molecular point group: c1
  Charge       = 0
  Multiplicity = 1
  Basis Set: AUG-CC-PVTZ
    Blend: AUG-CC-PVTZ
  Basis Set: (AUG-CC-PVTZ AUX)
    Blend: AUG-CC-PVTZ-JKFIT

    Orbital Energies [Eh]
    ---------------------

    Doubly Occupied:

       1A    -20.571752     2A    -20.567433     3A    -11.354263
       4A    -11.349529     5A    -11.281430     6A    -11.274636
       7A    -11.256649     8A    -11.228288     9A     -1.411783
      10A     -1.393211    11A     -1.111066    12A     -1.070911
      13A     -0.949740    14A     -0.877149    15A     -0.798863
      16A     -0.756707    17A     -0.698746    18A     -0.684713
      19A     -0.647226    20A     -0.641899    21A     -0.630009
      22A     -0.573703    23A     -0.555887    24A     -0.544530
      25A     -0.539140    26A     -0.529971    27A     -0.504421
      28A     -0.450833    29A     -0.432846    30A     -0.404006

  @DF-RHF Final Energy:  -381.70358534672692

   => Energetics <=

    Nuclear Repulsion Energy =            331.2039127973024506
    One-Electron Energy =               -1175.6323158280520147
    Two-Electron Energy =                 462.7248176840226392
    Total Energy =                       -381.7035853467269249
  Basis Set: (AUG-CC-PVTZ AUX)
    Blend: AUG-CC-PVTZ-RI
    Molecular point group: c1

    Geometry (in Angstrom), charge = 0, multiplicity = 1:

       Center              X                  Y                   Z               Mass
    ------------   -----------------  -----------------  -----------------  -----------------
         O            1.183353600922    -1.322964215510    -0.006209143392    15.994914619570
         O           -3.789717399078    -0.176646215510    -0.025919143392    15.994914619570
         C            2.255713600922     0.830901784490     0.025583856608    12.000000000000
         C            3.583756600922     0.094033784490    -0.001332143392    12.000000000000
         C            1.082515400922    -0.120319015510    -0.022643343392    12.000000000000
         C           -0.283244399078     0.543734784490     0.028876856608    12.000000000000
         C           -1.410782399078    -0.188937215510     0.006102856608    12.000000000000
         C           -2.735233399078     0.450326784490    -0.001868143392    12.000000000000
         H            2.207288300922     1.493925084490     0.899784856608     1.007825032230
         H            2.156213600922     1.508875784490    -0.834404143392     1.007825032230
         H            3.677585600922    -0.559665215510     0.867073856608     1.007825032230
         H            3.659048600922    -0.530107215510    -0.892947143392     1.007825032230
         H            4.415378600922     0.802299784490     0.001709856608     1.007825032230
         H           -0.335884399078     1.633098784490     0.046276856608     1.007825032230
         H           -1.363201399078    -1.275363215510    -0.011500143392     1.007825032230
         H           -2.731998399078     1.559932784490     0.020500856608     1.007825032230

  Basis Set: AUG-CC-PVTZ
    Blend: AUG-CC-PVTZ
  Basis Set: (AUG-CC-PVTZ AUX)
    Blend: AUG-CC-PVTZ-JKFIT
	 Reference Energy          =    -381.7035853467269249 [Eh]
	 Singles Energy            =      -0.0000000000000000 [Eh]
	 Same-Spin Energy          =      -0.3767030934663966 [Eh]
	 Opposite-Spin Energy      =      -1.2223769080659568 [Eh]
	 Correlation Energy        =      -1.5990800015323534 [Eh]
	 Total Energy              =    -383.3026653482592678 [Eh]

	 ================> DF-SCS-MP2 Energies <==================
	-----------------------------------------------------------
	 SCS Same-Spin Scale       =       0.3333333333333333 [-]
	 SCS Opposite-Spin Scale   =       1.2000000000000000 [-]
	 SCS Same-Spin Energy      =      -0.1255676978221322 [Eh]
	 SCS Opposite-Spin Energy  =      -1.4668522896791480 [Eh]
	 SCS Correlation Energy    =      -1.5924199875012803 [Eh]
	 SCS Total Energy          =    -383.2960053342281981 [Eh]
	-----------------------------------------------------------

  Dipole Moment: [D]
     X:     2.8893      Y:     3.4466      Z:     0.0623     Total:     4.4979

*** Psi4 exiting successfully. Buy a developer a beer!
