                               Psi4 1.4a3.dev225

  ==> Input File <==

--------------------------------------------------------------------------
#psi4
#
memory 32 gb

molecule  {
0 1
  O        1.0820120     1.3681640     0.0000000
  O       -3.8882340     0.1997640    -0.0000030
  C        2.1679760    -0.7815440    -0.0000070
  C        3.4943680    -0.0370920     0.0000040
  C        0.9697220     0.1420900     0.0000000
  C       -0.3759970    -0.5069640     0.0000040
  C       -1.5077040     0.2230700     0.0000000
  C       -2.8299410    -0.4231870     0.0000020
  H        2.0818540    -1.4423830    -0.8738950
  H        2.0818510    -1.4424050     0.8738640
  H        3.5776630     0.6025590    -0.8807220
  H        3.5776700     0.6025230     0.8807550
  H        4.3292850    -0.7422630    -0.0000140
  H       -0.4258432    -1.6464352     0.0000103
  H       -1.4638710     1.3098110    -0.0000060
  H       -2.8215620    -1.5330200     0.0000110
units angstrom
no_reorient  #important for SAPT in psi4, default
symmetry c1  #important for SAPT in psi4, default
}

set PROPERTIES_ORIGIN ["COM"]
properties('MP2/aug-cc-pvtz', properties = ['dipole'])
--------------------------------------------------------------------------

    Molecular point group: c1
  Charge       = 0
  Multiplicity = 1
  Basis Set: AUG-CC-PVTZ
    Blend: AUG-CC-PVTZ
  Basis Set: (AUG-CC-PVTZ AUX)
    Blend: AUG-CC-PVTZ-JKFIT

    Orbital Energies [Eh]
    ---------------------

    Doubly Occupied:

       1A    -20.574077     2A    -20.564604     3A    -11.354999
       4A    -11.351688     5A    -11.288120     6A    -11.278948
       7A    -11.257440     8A    -11.228707     9A     -1.395149
      10A     -1.393847    11A     -1.112796    12A     -1.069668
      13A     -0.953800    14A     -0.878605    15A     -0.799736
      16A     -0.753316    17A     -0.694010    18A     -0.683354
      19A     -0.645935    20A     -0.636920    21A     -0.629497
      22A     -0.569279    23A     -0.554460    24A     -0.543377
      25A     -0.536400    26A     -0.528545    27A     -0.502336
      28A     -0.451632    29A     -0.435978    30A     -0.404626

  @DF-RHF Final Energy:  -381.70014081138129

   => Energetics <=

    Nuclear Repulsion Energy =            330.6207789656357932
    One-Electron Energy =               -1174.4981413341499774
    Two-Electron Energy =                 462.1772215571329525
    Total Energy =                       -381.7001408113812886
  Basis Set: (AUG-CC-PVTZ AUX)
    Blend: AUG-CC-PVTZ-RI
    Molecular point group: c1

    Geometry (in Angstrom), charge = 0, multiplicity = 1:

       Center              X                  Y                   Z               Mass
    ------------   -----------------  -----------------  -----------------  -----------------
         O            1.178766383627     1.331126380230     0.000000077276    15.994914619570
         O           -3.791479616373     0.162726380230    -0.000002922724    15.994914619570
         C            2.264730383627    -0.818581619770    -0.000006922724    12.000000000000
         C            3.591122383627    -0.074129619770     0.000004077276    12.000000000000
         C            1.066476383627     0.105052380230     0.000000077276    12.000000000000
         C           -0.279242616373    -0.544001619770     0.000004077276    12.000000000000
         C           -1.410949616373     0.186032380230     0.000000077276    12.000000000000
         C           -2.733186616373    -0.460224619770     0.000002077276    12.000000000000
         H            2.178608383627    -1.479420619770    -0.873894922724     1.007825032230
         H            2.178605383627    -1.479442619770     0.873864077276     1.007825032230
         H            3.674417383627     0.565521380230    -0.880721922724     1.007825032230
         H            3.674424383627     0.565485380230     0.880755077276     1.007825032230
         H            4.426039383627    -0.779300619770    -0.000013922724     1.007825032230
         H           -0.329088816373    -1.683472819770     0.000010377276     1.007825032230
         H           -1.367116616373     1.272773380230    -0.000005922724     1.007825032230
         H           -2.724807616373    -1.570057619770     0.000011077276     1.007825032230

  Basis Set: AUG-CC-PVTZ
    Blend: AUG-CC-PVTZ
  Basis Set: (AUG-CC-PVTZ AUX)
    Blend: AUG-CC-PVTZ-JKFIT
	 Reference Energy          =    -381.7001408113812886 [Eh]
	 Singles Energy            =      -0.0000000000000000 [Eh]
	 Same-Spin Energy          =      -0.3775710856791817 [Eh]
	 Opposite-Spin Energy      =      -1.2244166418682649 [Eh]
	 Correlation Energy        =      -1.6019877275474466 [Eh]
	 Total Energy              =    -383.3021285389287414 [Eh]

	 ================> DF-SCS-MP2 Energies <==================
	-----------------------------------------------------------
	 SCS Same-Spin Scale       =       0.3333333333333333 [-]
	 SCS Opposite-Spin Scale   =       1.2000000000000000 [-]
	 SCS Same-Spin Energy      =      -0.1258570285597272 [Eh]
	 SCS Opposite-Spin Energy  =      -1.4692999702419178 [Eh]
	 SCS Correlation Energy    =      -1.5951569988016450 [Eh]
	 SCS Total Energy          =    -383.2952978101829444 [Eh]
	-----------------------------------------------------------

  Dipole Moment: [D]
     X:     2.7760      Y:    -3.4885      Z:     0.0000     Total:     4.4582

*** Psi4 exiting successfully. Buy a developer a beer!
