                               Psi4 1.3.2 release

  ==> Input File <==

--------------------------------------------------------------------------
#psi4
#
memory 32 gb

molecule  {
0 1
  O        1.1855920    -1.3251230    -0.0110750
  O       -3.7874790    -0.1788050    -0.0307850
  C        2.2579520     0.8287430     0.0207180
  C        3.5859950     0.0918750    -0.0061980
  C        1.0665970    -0.1008810     0.0170560
  C       -0.2810060     0.5415760     0.0240110
  C       -1.4085440    -0.1910960     0.0012370
  C       -2.9048704     0.3459747    -0.0106542
  H        2.1768340     1.4746290     0.9052650
  H        2.1584520     1.5067170    -0.8392700
  H        3.6798240    -0.5618240     0.8622080
  H        3.6612870    -0.5322660    -0.8978130
  H        4.4176170     0.8001410    -0.0031560
  H       -0.3336460     1.6309400     0.0414110
  H       -1.3609630    -1.2775220    -0.0163660
  H       -2.7297600     1.5577740     0.0156350
units angstrom
no_reorient  #important for SAPT in psi4, default
symmetry c1  #important for SAPT in psi4, default
}

set PROPERTIES_ORIGIN ["COM"]
properties('MP2/aug-cc-pvtz', properties = ['dipole'])
--------------------------------------------------------------------------

    Molecular point group: c1
  Charge       = 0
  Multiplicity = 1
  Basis Set: AUG-CC-PVTZ
    Blend: AUG-CC-PVTZ
  Basis Set: (AUG-CC-PVTZ AUX)
    Blend: AUG-CC-PVTZ-JKFIT

    Orbital Energies [Eh]
    ---------------------

    Doubly Occupied:

       1A    -20.591229     2A    -20.553863     3A    -11.346424
       4A    -11.345963     5A    -11.269812     6A    -11.267364
       7A    -11.250511     8A    -11.223246     9A     -1.560146
      10A     -1.385259    11A     -1.093832    12A     -1.059621
      13A     -0.934503    14A     -0.860071    15A     -0.786423
      16A     -0.753903    17A     -0.717704    18A     -0.708641
      19A     -0.664913    20A     -0.656104    21A     -0.639442
      22A     -0.631449    23A     -0.568270    24A     -0.538091
      25A     -0.536596    26A     -0.523104    27A     -0.496165
      28A     -0.432842    29A     -0.399965    30A     -0.399610

  @DF-RHF Final Energy:  -381.63352115492961

   => Energetics <=

    Nuclear Repulsion Energy =            332.6619483907601875
    One-Electron Energy =               -1178.2008138304036038
    Two-Electron Energy =                 463.9053442847137489
    Total Energy =                       -381.6335211549296105
  Basis Set: (AUG-CC-PVTZ AUX)
    Blend: AUG-CC-PVTZ-RI
    Molecular point group: c1

    Geometry (in Angstrom), charge = 0, multiplicity = 1:

       Center              X                  Y                   Z               Mass
    ------------   -----------------  -----------------  -----------------  -----------------
         O            1.203998712606    -1.314178779938    -0.010654981470    15.994914619570
         O           -3.769072287394    -0.167860779938    -0.030364981470    15.994914619570
         C            2.276358712606     0.839687220062     0.021138018530    12.000000000000
         C            3.604401712606     0.102819220062    -0.005777981470    12.000000000000
         C            1.085003712606    -0.089936779938     0.017476018530    12.000000000000
         C           -0.262599287394     0.552520220062     0.024431018530    12.000000000000
         C           -1.390137287394    -0.180151779938     0.001657018530    12.000000000000
         C           -2.886463687394     0.356918920062    -0.010234181470    12.000000000000
         H            2.195240712606     1.485573220062     0.905685018530     1.007825032230
         H            2.176858712606     1.517661220062    -0.838849981470     1.007825032230
         H            3.698230712606    -0.550879779938     0.862628018530     1.007825032230
         H            3.679693712606    -0.521321779938    -0.897392981470     1.007825032230
         H            4.436023712606     0.811085220062    -0.002735981470     1.007825032230
         H           -0.315239287394     1.641884220062     0.041831018530     1.007825032230
         H           -1.342556287394    -1.266577779938    -0.015945981470     1.007825032230
         H           -2.711353287394     1.568718220062     0.016055018530     1.007825032230

  Basis Set: AUG-CC-PVTZ
    Blend: AUG-CC-PVTZ
  Basis Set: (AUG-CC-PVTZ AUX)
    Blend: AUG-CC-PVTZ-JKFIT
	 Reference Energy          =    -381.6335211549296105 [Eh]
	 Singles Energy            =      -0.0000000000000000 [Eh]
	 Same-Spin Energy          =      -0.3727118493345831 [Eh]
	 Opposite-Spin Energy      =      -1.2129071751354381 [Eh]
	 Correlation Energy        =      -1.5856190244700212 [Eh]
	 Total Energy              =    -383.2191401793996306 [Eh]

	 ================> DF-SCS-MP2 Energies <==================
	-----------------------------------------------------------
	 SCS Same-Spin Scale       =       0.3333333333333333 [-]
	 SCS Opposite-Spin Scale   =       1.2000000000000000 [-]
	 SCS Same-Spin Energy      =      -0.1242372831115277 [Eh]
	 SCS Opposite-Spin Energy  =      -1.4554886101625257 [Eh]
	 SCS Correlation Energy    =      -1.5797258932740534 [Eh]
	 SCS Total Energy          =    -383.2132470482036410 [Eh]
	-----------------------------------------------------------

  Dipole Moment: [D]
     X:     1.3744      Y:     2.8226      Z:     0.0604     Total:     3.1400

*** Psi4 exiting successfully. Buy a developer a beer!
