                               Psi4 1.4a3.dev225

  ==> Input File <==

--------------------------------------------------------------------------
#psi4
#
memory 32 gb

molecule  {
0 1
  O        1.0820120     1.3681640     0.0000000
  O       -3.8882340     0.1997640    -0.0000030
  C        2.1679760    -0.7815440    -0.0000070
  C        3.4769273    -0.0468808     0.0000039
  C        0.9697220     0.1420900     0.0000000
  C       -0.3759970    -0.5069640     0.0000040
  C       -1.5077040     0.2230700     0.0000000
  C       -2.8299410    -0.4231870     0.0000020
  H        2.0818540    -1.4423830    -0.8738950
  H        2.0818510    -1.4424050     0.8738640
  H        3.5776630     0.6025590    -0.8807220
  H        3.5776700     0.6025230     0.8807550
  H        4.3292850    -0.7422630    -0.0000140
  H       -0.4236580    -1.5964830     0.0000100
  H       -1.4638710     1.3098110    -0.0000060
  H       -2.8215620    -1.5330200     0.0000110
units angstrom
no_reorient  #important for SAPT in psi4, default
symmetry c1  #important for SAPT in psi4, default
}

set PROPERTIES_ORIGIN ["COM"]
properties('MP2/aug-cc-pvtz', properties = ['dipole'])
--------------------------------------------------------------------------

    Molecular point group: c1
  Charge       = 0
  Multiplicity = 1
  Basis Set: AUG-CC-PVTZ
    Blend: AUG-CC-PVTZ
  Basis Set: (AUG-CC-PVTZ AUX)
    Blend: AUG-CC-PVTZ-JKFIT

    Orbital Energies [Eh]
    ---------------------

    Doubly Occupied:

       1A    -20.574136     2A    -20.564338     3A    -11.354449
       4A    -11.351737     5A    -11.282789     6A    -11.278566
       7A    -11.256926     8A    -11.229338     9A     -1.395093
      10A     -1.393722    11A     -1.114555    12A     -1.072831
      13A     -0.954466    14A     -0.877841    15A     -0.801339
      16A     -0.756381    17A     -0.696726    18A     -0.685784
      19A     -0.646838    20A     -0.636962    21A     -0.630115
      22A     -0.573910    23A     -0.553907    24A     -0.546988
      25A     -0.534841    26A     -0.527727    27A     -0.500043
      28A     -0.451687    29A     -0.435888    30A     -0.404411

  @DF-RHF Final Energy:  -381.70201377016451

   => Energetics <=

    Nuclear Repulsion Energy =            331.1269267946594823
    One-Electron Energy =               -1175.4892133662863216
    Two-Electron Energy =                 462.6602728014622699
    Total Energy =                       -381.7020137701645126
  Basis Set: (AUG-CC-PVTZ AUX)
    Blend: AUG-CC-PVTZ-RI
    Molecular point group: c1

    Geometry (in Angstrom), charge = 0, multiplicity = 1:

       Center              X                  Y                   Z               Mass
    ------------   -----------------  -----------------  -----------------  -----------------
         O            1.180614501527     1.331725408049     0.000000090683    15.994914619570
         O           -3.789631498473     0.163325408049    -0.000002909317    15.994914619570
         C            2.266578501527    -0.817982591951    -0.000006909317    12.000000000000
         C            3.575529801527    -0.083319391951     0.000003990683    12.000000000000
         C            1.068324501527     0.105651408049     0.000000090683    12.000000000000
         C           -0.277394498473    -0.543402591951     0.000004090683    12.000000000000
         C           -1.409101498473     0.186631408049     0.000000090683    12.000000000000
         C           -2.731338498473    -0.459625591951     0.000002090683    12.000000000000
         H            2.180456501527    -1.478821591951    -0.873894909317     1.007825032230
         H            2.180453501527    -1.478843591951     0.873864090683     1.007825032230
         H            3.676265501527     0.566120408049    -0.880721909317     1.007825032230
         H            3.676272501527     0.566084408049     0.880755090683     1.007825032230
         H            4.427887501527    -0.778701591951    -0.000013909317     1.007825032230
         H           -0.325055498473    -1.632921591951     0.000010090683     1.007825032230
         H           -1.365268498473     1.273372408049    -0.000005909317     1.007825032230
         H           -2.722959498473    -1.569458591951     0.000011090683     1.007825032230

  Basis Set: AUG-CC-PVTZ
    Blend: AUG-CC-PVTZ
  Basis Set: (AUG-CC-PVTZ AUX)
    Blend: AUG-CC-PVTZ-JKFIT
	 Reference Energy          =    -381.7020137701645126 [Eh]
	 Singles Energy            =      -0.0000000000000000 [Eh]
	 Same-Spin Energy          =      -0.3775777418634726 [Eh]
	 Opposite-Spin Energy      =      -1.2241621529223978 [Eh]
	 Correlation Energy        =      -1.6017398947858705 [Eh]
	 Total Energy              =    -383.3037536649503636 [Eh]

	 ================> DF-SCS-MP2 Energies <==================
	-----------------------------------------------------------
	 SCS Same-Spin Scale       =       0.3333333333333333 [-]
	 SCS Opposite-Spin Scale   =       1.2000000000000000 [-]
	 SCS Same-Spin Energy      =      -0.1258592472878242 [Eh]
	 SCS Opposite-Spin Energy  =      -1.4689945835068774 [Eh]
	 SCS Correlation Energy    =      -1.5948538307947016 [Eh]
	 SCS Total Energy          =    -383.2968676009592173 [Eh]
	-----------------------------------------------------------

  Dipole Moment: [D]
     X:     2.7681      Y:    -3.5026      Z:     0.0000     Total:     4.4644

*** Psi4 exiting successfully. Buy a developer a beer!
