                               Psi4 1.3.2 release

  ==> Input File <==

--------------------------------------------------------------------------
#psi4
#
memory 32 gb

molecule  {
0 1
  O        1.1855920    -1.3251230    -0.0110750
  O       -3.8087261    -0.1416186    -0.0304931
  C        2.2579520     0.8287430     0.0207180
  C        3.5859950     0.0918750    -0.0061980
  C        1.0665970    -0.1008810     0.0170560
  C       -0.2810060     0.5415760     0.0240110
  C       -1.3870499    -0.1444900     0.0022545
  C       -2.7329950     0.4481680    -0.0067340
  H        2.1768340     1.4746290     0.9052650
  H        2.1584520     1.5067170    -0.8392700
  H        3.6798240    -0.5618240     0.8622080
  H        3.6612870    -0.5322660    -0.8978130
  H        4.4176170     0.8001410    -0.0031560
  H       -0.3336460     1.6309400     0.0414110
  H       -1.3609630    -1.2775220    -0.0163660
  H       -2.7297600     1.5577740     0.0156350
units angstrom
no_reorient  #important for SAPT in psi4, default
symmetry c1  #important for SAPT in psi4, default
}

set PROPERTIES_ORIGIN ["COM"]
properties('MP2/aug-cc-pvtz', properties = ['dipole'])
--------------------------------------------------------------------------

    Molecular point group: c1
  Charge       = 0
  Multiplicity = 1
  Basis Set: AUG-CC-PVTZ
    Blend: AUG-CC-PVTZ
  Basis Set: (AUG-CC-PVTZ AUX)
    Blend: AUG-CC-PVTZ-JKFIT

    Orbital Energies [Eh]
    ---------------------

    Doubly Occupied:

       1A    -20.575915     2A    -20.565661     3A    -11.355422
       4A    -11.351898     5A    -11.277887     6A    -11.275369
       7A    -11.257956     8A    -11.228911     9A     -1.396293
      10A     -1.394922    11A     -1.124727    12A     -1.072060
      13A     -0.955344    14A     -0.882701    15A     -0.795483
      16A     -0.758853    17A     -0.697612    18A     -0.688751
      19A     -0.647035    20A     -0.640028    21A     -0.630027
      22A     -0.560924    23A     -0.556605    24A     -0.545166
      25A     -0.537105    26A     -0.529575    27A     -0.502995
      28A     -0.450301    29A     -0.436504    30A     -0.415253

  @DF-RHF Final Energy:  -381.69960987324617

   => Energetics <=

    Nuclear Repulsion Energy =            331.3979851838943205
    One-Electron Energy =               -1175.9806247342689858
    Two-Electron Energy =                 462.8830296771284907
    Total Energy =                       -381.6996098732461746
  Basis Set: (AUG-CC-PVTZ AUX)
    Blend: AUG-CC-PVTZ-RI
    Molecular point group: c1

    Geometry (in Angstrom), charge = 0, multiplicity = 1:

       Center              X                  Y                   Z               Mass
    ------------   -----------------  -----------------  -----------------  -----------------
         O            1.186323161451    -1.335422271969    -0.011225440458    15.994914619570
         O           -3.807994938549    -0.151917871969    -0.030643540458    15.994914619570
         C            2.258683161451     0.818443728031     0.020567559542    12.000000000000
         C            3.586726161451     0.081575728031    -0.006348440458    12.000000000000
         C            1.067328161451    -0.111180271969     0.016905559542    12.000000000000
         C           -0.280274838549     0.531276728031     0.023860559542    12.000000000000
         C           -1.386318738549    -0.154789271969     0.002104059542    12.000000000000
         C           -2.732263838549     0.437868728031    -0.006884440458    12.000000000000
         H            2.177565161451     1.464329728031     0.905114559542     1.007825032230
         H            2.159183161451     1.496417728031    -0.839420440458     1.007825032230
         H            3.680555161451    -0.572123271969     0.862057559542     1.007825032230
         H            3.662018161451    -0.542565271969    -0.897963440458     1.007825032230
         H            4.418348161451     0.789841728031    -0.003306440458     1.007825032230
         H           -0.332914838549     1.620640728031     0.041260559542     1.007825032230
         H           -1.360231838549    -1.287821271969    -0.016516440458     1.007825032230
         H           -2.729028838549     1.547474728031     0.015484559542     1.007825032230

  Basis Set: AUG-CC-PVTZ
    Blend: AUG-CC-PVTZ
  Basis Set: (AUG-CC-PVTZ AUX)
    Blend: AUG-CC-PVTZ-JKFIT
	 Reference Energy          =    -381.6996098732461746 [Eh]
	 Singles Energy            =      -0.0000000000000000 [Eh]
	 Same-Spin Energy          =      -0.3772561126785975 [Eh]
	 Opposite-Spin Energy      =      -1.2233822943205073 [Eh]
	 Correlation Energy        =      -1.6006384069991049 [Eh]
	 Total Energy              =    -383.3002482802452846 [Eh]

	 ================> DF-SCS-MP2 Energies <==================
	-----------------------------------------------------------
	 SCS Same-Spin Scale       =       0.3333333333333333 [-]
	 SCS Opposite-Spin Scale   =       1.2000000000000000 [-]
	 SCS Same-Spin Energy      =      -0.1257520375595325 [Eh]
	 SCS Opposite-Spin Energy  =      -1.4680587531846088 [Eh]
	 SCS Correlation Energy    =      -1.5938107907441412 [Eh]
	 SCS Total Energy          =    -383.2934206639903323 [Eh]
	-----------------------------------------------------------

  Dipole Moment: [D]
     X:     2.8308      Y:     3.4391      Z:     0.0894     Total:     4.4552

*** Psi4 exiting successfully. Buy a developer a beer!
