                               Psi4 1.4a3.dev225

  ==> Input File <==

--------------------------------------------------------------------------
#psi4
#
memory 32 gb

molecule  {
0 1
  O        1.0820120     1.3681640     0.0000000
  O       -3.8882340     0.1997640    -0.0000030
  C        2.1679760    -0.7815440    -0.0000070
  C        3.4943680    -0.0370920     0.0000040
  C        0.9697220     0.1420900     0.0000000
  C       -0.3759970    -0.5069640     0.0000040
  C       -1.5077040     0.2230700     0.0000000
  C       -2.7850195    -0.4012312     0.0000019
  H        2.0818540    -1.4423830    -0.8738950
  H        2.0818510    -1.4424050     0.8738640
  H        3.5776630     0.6025590    -0.8807220
  H        3.5776700     0.6025230     0.8807550
  H        4.3292850    -0.7422630    -0.0000140
  H       -0.4236580    -1.5964830     0.0000100
  H       -1.4638710     1.3098110    -0.0000060
  H       -2.8215620    -1.5330200     0.0000110
units angstrom
no_reorient  #important for SAPT in psi4, default
symmetry c1  #important for SAPT in psi4, default
}

set PROPERTIES_ORIGIN ["COM"]
properties('MP2/aug-cc-pvtz', properties = ['dipole'])
--------------------------------------------------------------------------

    Molecular point group: c1
  Charge       = 0
  Multiplicity = 1
  Basis Set: AUG-CC-PVTZ
    Blend: AUG-CC-PVTZ
  Basis Set: (AUG-CC-PVTZ AUX)
    Blend: AUG-CC-PVTZ-JKFIT

    Orbital Energies [Eh]
    ---------------------

    Doubly Occupied:

       1A    -20.570815     2A    -20.567849     3A    -11.357326
       4A    -11.351180     5A    -11.288836     6A    -11.277686
       7A    -11.259735     8A    -11.230441     9A     -1.397285
      10A     -1.374492    11A     -1.122871    12A     -1.073112
      13A     -0.962533    14A     -0.883243    15A     -0.797727
      16A     -0.760198    17A     -0.697375    18A     -0.686411
      19A     -0.648123    20A     -0.638208    21A     -0.620126
      22A     -0.575195    23A     -0.553163    24A     -0.545453
      25A     -0.531864    26A     -0.530457    27A     -0.503968
      28A     -0.450616    29A     -0.439775    30A     -0.404698

  @DF-RHF Final Energy:  -381.69506607917833

   => Energetics <=

    Nuclear Repulsion Energy =            331.1753486064606591
    One-Electron Energy =               -1175.5393053715959013
    Two-Electron Energy =                 462.6688906859569670
    Total Energy =                       -381.6950660791783321
  Basis Set: (AUG-CC-PVTZ AUX)
    Blend: AUG-CC-PVTZ-RI
    Molecular point group: c1

    Geometry (in Angstrom), charge = 0, multiplicity = 1:

       Center              X                  Y                   Z               Mass
    ------------   -----------------  -----------------  -----------------  -----------------
         O            1.173935963602     1.328325792336     0.000000090683    15.994914619570
         O           -3.796310036398     0.159925792336    -0.000002909317    15.994914619570
         C            2.259899963602    -0.821382207664    -0.000006909317    12.000000000000
         C            3.586291963602    -0.076930207664     0.000004090683    12.000000000000
         C            1.061645963602     0.102251792336     0.000000090683    12.000000000000
         C           -0.284073036398    -0.546802207664     0.000004090683    12.000000000000
         C           -1.415780036398     0.183231792336     0.000000090683    12.000000000000
         C           -2.693095536398    -0.441069407664     0.000001990683    12.000000000000
         H            2.173777963602    -1.482221207664    -0.873894909317     1.007825032230
         H            2.173774963602    -1.482243207664     0.873864090683     1.007825032230
         H            3.669586963602     0.562720792336    -0.880721909317     1.007825032230
         H            3.669593963602     0.562684792336     0.880755090683     1.007825032230
         H            4.421208963602    -0.782101207664    -0.000013909317     1.007825032230
         H           -0.331734036398    -1.636321207664     0.000010090683     1.007825032230
         H           -1.371947036398     1.269972792336    -0.000005909317     1.007825032230
         H           -2.729638036398    -1.572858207664     0.000011090683     1.007825032230

  Basis Set: AUG-CC-PVTZ
    Blend: AUG-CC-PVTZ
  Basis Set: (AUG-CC-PVTZ AUX)
    Blend: AUG-CC-PVTZ-JKFIT
	 Reference Energy          =    -381.6950660791783321 [Eh]
	 Singles Energy            =      -0.0000000000000000 [Eh]
	 Same-Spin Energy          =      -0.3789069273873241 [Eh]
	 Opposite-Spin Energy      =      -1.2267797390319686 [Eh]
	 Correlation Energy        =      -1.6056866664192926 [Eh]
	 Total Energy              =    -383.3007527455976060 [Eh]

	 ================> DF-SCS-MP2 Energies <==================
	-----------------------------------------------------------
	 SCS Same-Spin Scale       =       0.3333333333333333 [-]
	 SCS Opposite-Spin Scale   =       1.2000000000000000 [-]
	 SCS Same-Spin Energy      =      -0.1263023091291080 [Eh]
	 SCS Opposite-Spin Energy  =      -1.4721356868383622 [Eh]
	 SCS Correlation Energy    =      -1.5984379959674702 [Eh]
	 SCS Total Energy          =    -383.2935040751457905 [Eh]
	-----------------------------------------------------------

  Dipole Moment: [D]
     X:     3.0776      Y:    -3.4497      Z:     0.0000     Total:     4.6230

*** Psi4 exiting successfully. Buy a developer a beer!
