                               Psi4 1.3.2 release

  ==> Input File <==

--------------------------------------------------------------------------
#psi4
#
memory 32 gb

molecule  {
0 1
  O        1.2495165    -1.3172283    -0.0105006
  O       -3.7874790    -0.1788050    -0.0307850
  C        2.2579520     0.8287430     0.0207180
  C        3.5859950     0.0918750    -0.0061980
  C        1.0665970    -0.1008810     0.0170560
  C       -0.2455369     0.6112005     0.0258674
  C       -1.4085440    -0.1910960     0.0012370
  C       -2.7329950     0.4481680    -0.0067340
  H        2.1768340     1.4746290     0.9052650
  H        2.1584520     1.5067170    -0.8392700
  H        3.6798240    -0.5618240     0.8622080
  H        3.6612870    -0.5322660    -0.8978130
  H        4.4176170     0.8001410    -0.0031560
  H       -0.3336460     1.6309400     0.0414110
  H       -1.3609630    -1.2775220    -0.0163660
  H       -2.7297600     1.5577740     0.0156350
units angstrom
no_reorient  #important for SAPT in psi4, default
symmetry c1  #important for SAPT in psi4, default
}

set PROPERTIES_ORIGIN ["COM"]
properties('MP2/aug-cc-pvtz', properties = ['dipole'])
--------------------------------------------------------------------------

    Molecular point group: c1
  Charge       = 0
  Multiplicity = 1
  Basis Set: AUG-CC-PVTZ
    Blend: AUG-CC-PVTZ
  Basis Set: (AUG-CC-PVTZ AUX)
    Blend: AUG-CC-PVTZ-JKFIT

    Orbital Energies [Eh]
    ---------------------

    Doubly Occupied:

       1A    -20.576619     2A    -20.563750     3A    -11.354223
       4A    -11.353388     5A    -11.293558     6A    -11.289198
       7A    -11.251084     8A    -11.224321     9A     -1.397744
      10A     -1.393213    11A     -1.109425    12A     -1.064597
      13A     -0.958845    14A     -0.876758    15A     -0.805765
      16A     -0.761012    17A     -0.699898    18A     -0.683238
      19A     -0.643311    20A     -0.635614    21A     -0.630927
      22A     -0.590506    23A     -0.553529    24A     -0.538012
      25A     -0.535588    26A     -0.525119    27A     -0.499374
      28A     -0.453090    29A     -0.433602    30A     -0.395858

  @DF-RHF Final Energy:  -381.68941475991915

   => Energetics <=

    Nuclear Repulsion Energy =            330.3743935163557239
    One-Electron Energy =               -1173.9452796083069188
    Two-Electron Energy =                 461.8814713320321061
    Total Energy =                       -381.6894147599191456
  Basis Set: (AUG-CC-PVTZ AUX)
    Blend: AUG-CC-PVTZ-RI
    Molecular point group: c1

    Geometry (in Angstrom), charge = 0, multiplicity = 1:

       Center              X                  Y                   Z               Mass
    ------------   -----------------  -----------------  -----------------  -----------------
         O            1.236593227746    -1.325811444604    -0.010781205984    15.994914619570
         O           -3.800402272254    -0.187388144604    -0.031065605984    15.994914619570
         C            2.245028727746     0.820159855396     0.020437394016    12.000000000000
         C            3.573071727746     0.083291855396    -0.006478605984    12.000000000000
         C            1.053673727746    -0.109464144604     0.016775394016    12.000000000000
         C           -0.258460172254     0.602617355396     0.025586794016    12.000000000000
         C           -1.421467272254    -0.199679144604     0.000956394016    12.000000000000
         C           -2.745918272254     0.439584855396    -0.007014605984    12.000000000000
         H            2.163910727746     1.466045855396     0.904984394016     1.007825032230
         H            2.145528727746     1.498133855396    -0.839550605984     1.007825032230
         H            3.666900727746    -0.570407144604     0.861927394016     1.007825032230
         H            3.648363727746    -0.540849144604    -0.898093605984     1.007825032230
         H            4.404693727746     0.791557855396    -0.003436605984     1.007825032230
         H           -0.346569272254     1.622356855396     0.041130394016     1.007825032230
         H           -1.373886272254    -1.286105144604    -0.016646605984     1.007825032230
         H           -2.742683272254     1.549190855396     0.015354394016     1.007825032230

  Basis Set: AUG-CC-PVTZ
    Blend: AUG-CC-PVTZ
  Basis Set: (AUG-CC-PVTZ AUX)
    Blend: AUG-CC-PVTZ-JKFIT
	 Reference Energy          =    -381.6894147599191456 [Eh]
	 Singles Energy            =      -0.0000000000000000 [Eh]
	 Same-Spin Energy          =      -0.3784505540111133 [Eh]
	 Opposite-Spin Energy      =      -1.2261767293584365 [Eh]
	 Correlation Energy        =      -1.6046272833695499 [Eh]
	 Total Energy              =    -383.2940420432886981 [Eh]

	 ================> DF-SCS-MP2 Energies <==================
	-----------------------------------------------------------
	 SCS Same-Spin Scale       =       0.3333333333333333 [-]
	 SCS Opposite-Spin Scale   =       1.2000000000000000 [-]
	 SCS Same-Spin Energy      =      -0.1261501846703711 [Eh]
	 SCS Opposite-Spin Energy  =      -1.4714120752301236 [Eh]
	 SCS Correlation Energy    =      -1.5975622599004948 [Eh]
	 SCS Total Energy          =    -383.2869770198196306 [Eh]
	-----------------------------------------------------------

  Dipole Moment: [D]
     X:     2.4488      Y:     3.5074      Z:     0.0892     Total:     4.2786

*** Psi4 exiting successfully. Buy a developer a beer!
