                               Psi4 1.3.2 release

  ==> Input File <==

--------------------------------------------------------------------------
#psi4
#
memory 32 gb

molecule  {
0 1
  O        1.1855920    -1.3251230    -0.0110750
  O       -3.7874790    -0.1788050    -0.0307850
  C        2.2579520     0.8287430     0.0207180
  C        3.5859950     0.0918750    -0.0061980
  C        1.0762688    -0.2003859     0.0147695
  C       -0.2810060     0.5415760     0.0240110
  C       -1.4085440    -0.1910960     0.0012370
  C       -2.7329950     0.4481680    -0.0067340
  H        2.1768340     1.4746290     0.9052650
  H        2.1584520     1.5067170    -0.8392700
  H        3.6798240    -0.5618240     0.8622080
  H        3.6612870    -0.5322660    -0.8978130
  H        4.4176170     0.8001410    -0.0031560
  H       -0.3336460     1.6309400     0.0414110
  H       -1.3609630    -1.2775220    -0.0163660
  H       -2.7297600     1.5577740     0.0156350
units angstrom
no_reorient  #important for SAPT in psi4, default
symmetry c1  #important for SAPT in psi4, default
}

set PROPERTIES_ORIGIN ["COM"]
properties('MP2/aug-cc-pvtz', properties = ['dipole'])
--------------------------------------------------------------------------

    Molecular point group: c1
  Charge       = 0
  Multiplicity = 1
  Basis Set: AUG-CC-PVTZ
    Blend: AUG-CC-PVTZ
  Basis Set: (AUG-CC-PVTZ AUX)
    Blend: AUG-CC-PVTZ-JKFIT

    Orbital Energies [Eh]
    ---------------------

    Doubly Occupied:

       1A    -20.573505     2A    -20.569187     3A    -11.348628
       4A    -11.347227     5A    -11.278064     6A    -11.270383
       7A    -11.252469     8A    -11.226202     9A     -1.469369
      10A     -1.390997    11A     -1.106778    12A     -1.061066
      13A     -0.939991    14A     -0.870212    15A     -0.795139
      16A     -0.757693    17A     -0.705988    18A     -0.685641
      19A     -0.654947    20A     -0.647642    21A     -0.629919
      22A     -0.576864    23A     -0.575523    24A     -0.547085
      25A     -0.542927    26A     -0.529535    27A     -0.508047
      28A     -0.448366    29A     -0.416086    30A     -0.404550

  @DF-RHF Final Energy:  -381.69603614834301

   => Energetics <=

    Nuclear Repulsion Energy =            331.8751908427063881
    One-Electron Energy =               -1176.8823921236951264
    Two-Electron Energy =                 463.3111651326457263
    Total Energy =                       -381.6960361483430120
  Basis Set: (AUG-CC-PVTZ AUX)
    Blend: AUG-CC-PVTZ-RI
    Molecular point group: c1

    Geometry (in Angstrom), charge = 0, multiplicity = 1:

       Center              X                  Y                   Z               Mass
    ------------   -----------------  -----------------  -----------------  -----------------
         O            1.184556328270    -1.314466688020    -0.010829938854    15.994914619570
         O           -3.788514671730    -0.168148688020    -0.030539938854    15.994914619570
         C            2.256916328270     0.839399311980     0.020963061146    12.000000000000
         C            3.584959328270     0.102531311980    -0.005952938854    12.000000000000
         C            1.075233128270    -0.189729588020     0.015014561146    12.000000000000
         C           -0.282041671730     0.552232311980     0.024256061146    12.000000000000
         C           -1.409579671730    -0.180439688020     0.001482061146    12.000000000000
         C           -2.734030671730     0.458824311980    -0.006488938854    12.000000000000
         H            2.175798328270     1.485285311980     0.905510061146     1.007825032230
         H            2.157416328270     1.517373311980    -0.839024938854     1.007825032230
         H            3.678788328270    -0.551167688020     0.862453061146     1.007825032230
         H            3.660251328270    -0.521609688020    -0.897567938854     1.007825032230
         H            4.416581328270     0.810797311980    -0.002910938854     1.007825032230
         H           -0.334681671730     1.641596311980     0.041656061146     1.007825032230
         H           -1.361998671730    -1.266865688020    -0.016120938854     1.007825032230
         H           -2.730795671730     1.568430311980     0.015880061146     1.007825032230

  Basis Set: AUG-CC-PVTZ
    Blend: AUG-CC-PVTZ
  Basis Set: (AUG-CC-PVTZ AUX)
    Blend: AUG-CC-PVTZ-JKFIT
	 Reference Energy          =    -381.6960361483430120 [Eh]
	 Singles Energy            =      -0.0000000000000000 [Eh]
	 Same-Spin Energy          =      -0.3746472776222752 [Eh]
	 Opposite-Spin Energy      =      -1.2179583012456647 [Eh]
	 Correlation Energy        =      -1.5926055788679401 [Eh]
	 Total Energy              =    -383.2886417272109725 [Eh]

	 ================> DF-SCS-MP2 Energies <==================
	-----------------------------------------------------------
	 SCS Same-Spin Scale       =       0.3333333333333333 [-]
	 SCS Opposite-Spin Scale   =       1.2000000000000000 [-]
	 SCS Same-Spin Energy      =      -0.1248824258740917 [Eh]
	 SCS Opposite-Spin Energy  =      -1.4615499614947975 [Eh]
	 SCS Correlation Energy    =      -1.5864323873688893 [Eh]
	 SCS Total Energy          =    -383.2824685357119279 [Eh]
	-----------------------------------------------------------

  Dipole Moment: [D]
     X:     2.8663      Y:     3.0990      Z:     0.0856     Total:     4.2222

*** Psi4 exiting successfully. Buy a developer a beer!
