                               Psi4 1.3.2 release

  ==> Input File <==

--------------------------------------------------------------------------
#psi4
#
memory 32 gb

molecule  {
0 1
  O        1.1855920    -1.3251230    -0.0110750
  O       -3.7874790    -0.1788050    -0.0307850
  C        2.2579520     0.8287430     0.0207180
  C        3.5859950     0.0918750    -0.0061980
  C        1.0665970    -0.1008810     0.0170560
  C       -0.2810060     0.5415760     0.0240110
  C       -1.4085440    -0.1910960     0.0012370
  C       -2.8189327     0.3970713    -0.0086941
  H        2.1768340     1.4746290     0.9052650
  H        2.1584520     1.5067170    -0.8392700
  H        3.6798240    -0.5618240     0.8622080
  H        3.6612870    -0.5322660    -0.8978130
  H        4.4176170     0.8001410    -0.0031560
  H       -0.3336460     1.6309400     0.0414110
  H       -1.3609630    -1.2775220    -0.0163660
  H       -2.7297600     1.5577740     0.0156350
units angstrom
no_reorient  #important for SAPT in psi4, default
symmetry c1  #important for SAPT in psi4, default
}

set PROPERTIES_ORIGIN ["COM"]
properties('MP2/aug-cc-pvtz', properties = ['dipole'])
--------------------------------------------------------------------------

    Molecular point group: c1
  Charge       = 0
  Multiplicity = 1
  Basis Set: AUG-CC-PVTZ
    Blend: AUG-CC-PVTZ
  Basis Set: (AUG-CC-PVTZ AUX)
    Blend: AUG-CC-PVTZ-JKFIT

    Orbital Energies [Eh]
    ---------------------

    Doubly Occupied:

       1A    -20.580828     2A    -20.559062     3A    -11.350132
       4A    -11.348640     5A    -11.275662     6A    -11.274003
       7A    -11.253917     8A    -11.225862     9A     -1.471099
      10A     -1.390023    11A     -1.103821    12A     -1.065308
      13A     -0.944465    14A     -0.870316    15A     -0.790895
      16A     -0.753063    17A     -0.698706    18A     -0.693947
      19A     -0.657417    20A     -0.643060    21A     -0.632284
      22A     -0.593623    23A     -0.570551    24A     -0.541312
      25A     -0.539607    26A     -0.526116    27A     -0.499427
      28A     -0.440481    29A     -0.424743    30A     -0.404084

  @DF-RHF Final Energy:  -381.69582790986050

   => Energetics <=

    Nuclear Repulsion Energy =            331.7080603137979438
    One-Electron Energy =               -1176.5628714937013228
    Two-Electron Energy =                 463.1589832700429383
    Total Energy =                       -381.6958279098604976
  Basis Set: (AUG-CC-PVTZ AUX)
    Blend: AUG-CC-PVTZ-RI
    Molecular point group: c1

    Geometry (in Angstrom), charge = 0, multiplicity = 1:

       Center              X                  Y                   Z               Mass
    ------------   -----------------  -----------------  -----------------  -----------------
         O            1.194795410146    -1.319650854063    -0.010864893920    15.994914619570
         O           -3.778275589854    -0.173332854063    -0.030574893920    15.994914619570
         C            2.267155410146     0.834215145937     0.020928106080    12.000000000000
         C            3.595198410146     0.097347145937    -0.005987893920    12.000000000000
         C            1.075800410146    -0.095408854063     0.017266106080    12.000000000000
         C           -0.271802589854     0.547048145937     0.024221106080    12.000000000000
         C           -1.399340589854    -0.185623854063     0.001447106080    12.000000000000
         C           -2.809729289854     0.402543445937    -0.008483993920    12.000000000000
         H            2.186037410146     1.480101145937     0.905475106080     1.007825032230
         H            2.167655410146     1.512189145937    -0.839059893920     1.007825032230
         H            3.689027410146    -0.556351854063     0.862418106080     1.007825032230
         H            3.670490410146    -0.526793854063    -0.897602893920     1.007825032230
         H            4.426820410146     0.805613145937    -0.002945893920     1.007825032230
         H           -0.324442589854     1.636412145937     0.041621106080     1.007825032230
         H           -1.351759589854    -1.272049854063    -0.016155893920     1.007825032230
         H           -2.720556589854     1.563246145937     0.015845106080     1.007825032230

  Basis Set: AUG-CC-PVTZ
    Blend: AUG-CC-PVTZ
  Basis Set: (AUG-CC-PVTZ AUX)
    Blend: AUG-CC-PVTZ-JKFIT
	 Reference Energy          =    -381.6958279098604976 [Eh]
	 Singles Energy            =      -0.0000000000000000 [Eh]
	 Same-Spin Energy          =      -0.3747018717829821 [Eh]
	 Opposite-Spin Energy      =      -1.2176553092823292 [Eh]
	 Correlation Energy        =      -1.5923571810653114 [Eh]
	 Total Energy              =    -383.2881850909258219 [Eh]

	 ================> DF-SCS-MP2 Energies <==================
	-----------------------------------------------------------
	 SCS Same-Spin Scale       =       0.3333333333333333 [-]
	 SCS Opposite-Spin Scale   =       1.2000000000000000 [-]
	 SCS Same-Spin Energy      =      -0.1249006239276607 [Eh]
	 SCS Opposite-Spin Energy  =      -1.4611863711387951 [Eh]
	 SCS Correlation Energy    =      -1.5860869950664558 [Eh]
	 SCS Total Energy          =    -383.2819149049269640 [Eh]
	-----------------------------------------------------------

  Dipole Moment: [D]
     X:     2.1471      Y:     3.2363      Z:     0.0774     Total:     3.8845

*** Psi4 exiting successfully. Buy a developer a beer!
