                               Psi4 1.3.2 release

  ==> Input File <==

--------------------------------------------------------------------------
#psi4
#
memory 32 gb

molecule  {
0 1
  O        1.1855920    -1.3251230    -0.0110750
  O       -3.7874790    -0.1788050    -0.0307850
  C        2.2579520     0.8287430     0.0207180
  C        3.5859950     0.0918750    -0.0061980
  C        1.0665970    -0.1008810     0.0170560
  C       -0.2810060     0.5415760     0.0240110
  C       -1.4316480    -0.2369186    -0.0000480
  C       -2.7329950     0.4481680    -0.0067340
  H        2.1768340     1.4746290     0.9052650
  H        2.1584520     1.5067170    -0.8392700
  H        3.6798240    -0.5618240     0.8622080
  H        3.6612870    -0.5322660    -0.8978130
  H        4.4176170     0.8001410    -0.0031560
  H       -0.3336460     1.6309400     0.0414110
  H       -1.3609630    -1.2775220    -0.0163660
  H       -2.7684897     1.5572232     0.0150148
units angstrom
no_reorient  #important for SAPT in psi4, default
symmetry c1  #important for SAPT in psi4, default
}

set PROPERTIES_ORIGIN ["COM"]
properties('MP2/aug-cc-pvtz', properties = ['dipole'])
--------------------------------------------------------------------------

    Molecular point group: c1
  Charge       = 0
  Multiplicity = 1
  Basis Set: AUG-CC-PVTZ
    Blend: AUG-CC-PVTZ
  Basis Set: (AUG-CC-PVTZ AUX)
    Blend: AUG-CC-PVTZ-JKFIT

    Orbital Energies [Eh]
    ---------------------

    Doubly Occupied:

       1A    -20.570979     2A    -20.563338     3A    -11.353215
       4A    -11.350252     5A    -11.288086     6A    -11.282524
       7A    -11.256611     8A    -11.228001     9A     -1.394932
      10A     -1.393550    11A     -1.106920    12A     -1.068881
      13A     -0.954851    14A     -0.876028    15A     -0.808204
      16A     -0.753918    17A     -0.697931    18A     -0.682563
      19A     -0.645683    20A     -0.640391    21A     -0.624821
      22A     -0.584864    23A     -0.552891    24A     -0.542931
      25A     -0.535973    26A     -0.528499    27A     -0.501653
      28A     -0.451182    29A     -0.435162    30A     -0.395458

  @DF-RHF Final Energy:  -381.69739862396744

   => Energetics <=

    Nuclear Repulsion Energy =            330.6475212437112532
    One-Electron Energy =               -1174.5492535019918705
    Two-Electron Energy =                 462.2043336343131728
    Total Energy =                       -381.6973986239674446
  Basis Set: (AUG-CC-PVTZ AUX)
    Blend: AUG-CC-PVTZ-RI
    Molecular point group: c1

    Geometry (in Angstrom), charge = 0, multiplicity = 1:

       Center              X                  Y                   Z               Mass
    ------------   -----------------  -----------------  -----------------  -----------------
         O            1.188414721730    -1.320210717782    -0.010931613999    15.994914619570
         O           -3.784656278270    -0.173892717782    -0.030641613999    15.994914619570
         C            2.260774721730     0.833655282218     0.020861386001    12.000000000000
         C            3.588817721730     0.096787282218    -0.006054613999    12.000000000000
         C            1.069419721730    -0.095968717782     0.017199386001    12.000000000000
         C           -0.278183278270     0.546488282218     0.024154386001    12.000000000000
         C           -1.428825278270    -0.232006317782     0.000095386001    12.000000000000
         C           -2.730172278270     0.453080282218    -0.006590613999    12.000000000000
         H            2.179656721730     1.479541282218     0.905408386001     1.007825032230
         H            2.161274721730     1.511629282218    -0.839126613999     1.007825032230
         H            3.682646721730    -0.556911717782     0.862351386001     1.007825032230
         H            3.664109721730    -0.527353717782    -0.897669613999     1.007825032230
         H            4.420439721730     0.805053282218    -0.003012613999     1.007825032230
         H           -0.330823278270     1.635852282218     0.041554386001     1.007825032230
         H           -1.358140278270    -1.272609717782    -0.016222613999     1.007825032230
         H           -2.765666978270     1.562135482218     0.015158186001     1.007825032230

  Basis Set: AUG-CC-PVTZ
    Blend: AUG-CC-PVTZ
  Basis Set: (AUG-CC-PVTZ AUX)
    Blend: AUG-CC-PVTZ-JKFIT
	 Reference Energy          =    -381.6973986239674446 [Eh]
	 Singles Energy            =      -0.0000000000000000 [Eh]
	 Same-Spin Energy          =      -0.3777355792921659 [Eh]
	 Opposite-Spin Energy      =      -1.2247479309909775 [Eh]
	 Correlation Energy        =      -1.6024835102831434 [Eh]
	 Total Energy              =    -383.2998821342505948 [Eh]

	 ================> DF-SCS-MP2 Energies <==================
	-----------------------------------------------------------
	 SCS Same-Spin Scale       =       0.3333333333333333 [-]
	 SCS Opposite-Spin Scale   =       1.2000000000000000 [-]
	 SCS Same-Spin Energy      =      -0.1259118597640553 [Eh]
	 SCS Opposite-Spin Energy  =      -1.4696975171891729 [Eh]
	 SCS Correlation Energy    =      -1.5956093769532282 [Eh]
	 SCS Total Energy          =    -383.2930080009206790 [Eh]
	-----------------------------------------------------------

  Dipole Moment: [D]
     X:     2.7378      Y:     3.5282      Z:     0.0905     Total:     4.4668

*** Psi4 exiting successfully. Buy a developer a beer!
