                               Psi4 1.3.2 release

  ==> Input File <==

--------------------------------------------------------------------------
#psi4
#
memory 32 gb

molecule  {
0 1
  O        1.2069434    -1.3228537    -0.0113207
  O       -3.7874790    -0.1788050    -0.0307850
  C        2.2739908     0.8078171     0.0200438
  C        3.5859950     0.0918750    -0.0061980
  C        1.0665970    -0.1008810     0.0170560
  C       -0.2810060     0.5415760     0.0240110
  C       -1.4085440    -0.1910960     0.0012370
  C       -2.7329950     0.4481680    -0.0067340
  H        2.1768340     1.4746290     0.9052650
  H        2.1584520     1.5067170    -0.8392700
  H        3.6798240    -0.5618240     0.8622080
  H        3.6612870    -0.5322660    -0.8978130
  H        4.4176170     0.8001410    -0.0031560
  H       -0.3336460     1.6309400     0.0414110
  H       -1.3609630    -1.2775220    -0.0163660
  H       -2.7297600     1.5577740     0.0156350
units angstrom
no_reorient  #important for SAPT in psi4, default
symmetry c1  #important for SAPT in psi4, default
}

set PROPERTIES_ORIGIN ["COM"]
properties('MP2/aug-cc-pvtz', properties = ['dipole'])
--------------------------------------------------------------------------

    Molecular point group: c1
  Charge       = 0
  Multiplicity = 1
  Basis Set: AUG-CC-PVTZ
    Blend: AUG-CC-PVTZ
  Basis Set: (AUG-CC-PVTZ AUX)
    Blend: AUG-CC-PVTZ-JKFIT

    Orbital Energies [Eh]
    ---------------------

    Doubly Occupied:

       1A    -20.574815     2A    -20.563070     3A    -11.353583
       4A    -11.352122     5A    -11.283900     6A    -11.279164
       7A    -11.257480     8A    -11.226559     9A     -1.396169
      10A     -1.394025    11A     -1.115760    12A     -1.072261
      13A     -0.956164    14A     -0.878774    15A     -0.801548
      16A     -0.755332    17A     -0.696838    18A     -0.686876
      19A     -0.643530    20A     -0.637726    21A     -0.630207
      22A     -0.574679    23A     -0.555140    24A     -0.549590
      25A     -0.536282    26A     -0.528316    27A     -0.496163
      28A     -0.452015    29A     -0.435443    30A     -0.405785

  @DF-RHF Final Energy:  -381.70179250475098

   => Energetics <=

    Nuclear Repulsion Energy =            331.2474507327323749
    One-Electron Energy =               -1175.7198539838268516
    Two-Electron Energy =                 462.7706107463434364
    Total Energy =                       -381.7017925047509834
  Basis Set: (AUG-CC-PVTZ AUX)
    Blend: AUG-CC-PVTZ-RI
    Molecular point group: c1

    Geometry (in Angstrom), charge = 0, multiplicity = 1:

       Center              X                  Y                   Z               Mass
    ------------   -----------------  -----------------  -----------------  -----------------
         O            1.202178065095    -1.320936558283    -0.011213232029    15.994914619570
         O           -3.792244334905    -0.176887858283    -0.030677532029    15.994914619570
         C            2.269225465095     0.809734241717     0.020151267971    12.000000000000
         C            3.581229665095     0.093792141717    -0.006090532029    12.000000000000
         C            1.061831665095    -0.098963858283     0.017163467971    12.000000000000
         C           -0.285771334905     0.543493141717     0.024118467971    12.000000000000
         C           -1.413309334905    -0.189178858283     0.001344467971    12.000000000000
         C           -2.737760334905     0.450085141717    -0.006626532029    12.000000000000
         H            2.172068665095     1.476546141717     0.905372467971     1.007825032230
         H            2.153686665095     1.508634141717    -0.839162532029     1.007825032230
         H            3.675058665095    -0.559906858283     0.862315467971     1.007825032230
         H            3.656521665095    -0.530348858283    -0.897705532029     1.007825032230
         H            4.412851665095     0.802058141717    -0.003048532029     1.007825032230
         H           -0.338411334905     1.632857141717     0.041518467971     1.007825032230
         H           -1.365728334905    -1.275604858283    -0.016258532029     1.007825032230
         H           -2.734525334905     1.559691141717     0.015742467971     1.007825032230

  Basis Set: AUG-CC-PVTZ
    Blend: AUG-CC-PVTZ
  Basis Set: (AUG-CC-PVTZ AUX)
    Blend: AUG-CC-PVTZ-JKFIT
	 Reference Energy          =    -381.7017925047509834 [Eh]
	 Singles Energy            =      -0.0000000000000000 [Eh]
	 Same-Spin Energy          =      -0.3776137564050497 [Eh]
	 Opposite-Spin Energy      =      -1.2240133535660331 [Eh]
	 Correlation Energy        =      -1.6016271099710828 [Eh]
	 Total Energy              =    -383.3034196147220882 [Eh]

	 ================> DF-SCS-MP2 Energies <==================
	-----------------------------------------------------------
	 SCS Same-Spin Scale       =       0.3333333333333333 [-]
	 SCS Opposite-Spin Scale   =       1.2000000000000000 [-]
	 SCS Same-Spin Energy      =      -0.1258712521350166 [Eh]
	 SCS Opposite-Spin Energy  =      -1.4688160242792396 [Eh]
	 SCS Correlation Energy    =      -1.5946872764142561 [Eh]
	 SCS Total Energy          =    -383.2964797811652602 [Eh]
	-----------------------------------------------------------

  Dipole Moment: [D]
     X:     2.6872      Y:     3.5083      Z:     0.0900     Total:     4.4201

*** Psi4 exiting successfully. Buy a developer a beer!
