                               Psi4 1.3.2 release

  ==> Input File <==

--------------------------------------------------------------------------
#psi4
#
memory 32 gb

molecule  {
0 1
  O        1.1855920    -1.3251230    -0.0110750
  O       -3.7874790    -0.1788050    -0.0307850
  C        2.2579520     0.8287430     0.0207180
  C        3.5859950     0.0918750    -0.0061980
  C        1.0665970    -0.1008810     0.0170560
  C       -0.2561144     0.5017789     0.0235838
  C       -1.4085440    -0.1910960     0.0012370
  C       -2.7329950     0.4481680    -0.0067340
  H        2.1768340     1.4746290     0.9052650
  H        2.1584520     1.5067170    -0.8392700
  H        3.6798240    -0.5618240     0.8622080
  H        3.6612870    -0.5322660    -0.8978130
  H        4.4176170     0.8001410    -0.0031560
  H       -0.3336460     1.6309400     0.0414110
  H       -1.3230730    -1.2752057    -0.0159713
  H       -2.7297600     1.5577740     0.0156350
units angstrom
no_reorient  #important for SAPT in psi4, default
symmetry c1  #important for SAPT in psi4, default
}

set PROPERTIES_ORIGIN ["COM"]
properties('MP2/aug-cc-pvtz', properties = ['dipole'])
--------------------------------------------------------------------------

    Molecular point group: c1
  Charge       = 0
  Multiplicity = 1
  Basis Set: AUG-CC-PVTZ
    Blend: AUG-CC-PVTZ
  Basis Set: (AUG-CC-PVTZ AUX)
    Blend: AUG-CC-PVTZ-JKFIT

    Orbital Energies [Eh]
    ---------------------

    Doubly Occupied:

       1A    -20.576388     2A    -20.563108     3A    -11.354202
       4A    -11.350906     5A    -11.282321     6A    -11.278728
       7A    -11.256987     8A    -11.228203     9A     -1.397389
      10A     -1.395325    11A     -1.116123    12A     -1.070462
      13A     -0.959782    14A     -0.880752    15A     -0.802649
      16A     -0.755004    17A     -0.697711    18A     -0.685495
      19A     -0.646445    20A     -0.640102    21A     -0.630979
      22A     -0.562153    23A     -0.556456    24A     -0.542416
      25A     -0.537582    26A     -0.528920    27A     -0.502264
      28A     -0.453397    29A     -0.439300    30A     -0.403929

  @DF-RHF Final Energy:  -381.69927790451169

   => Energetics <=

    Nuclear Repulsion Energy =            331.6375016010709942
    One-Electron Energy =               -1176.4826011439781723
    Two-Electron Energy =                 463.1458216383954891
    Total Energy =                       -381.6992779045116890
  Basis Set: (AUG-CC-PVTZ AUX)
    Blend: AUG-CC-PVTZ-RI
    Molecular point group: c1

    Geometry (in Angstrom), charge = 0, multiplicity = 1:

       Center              X                  Y                   Z               Mass
    ------------   -----------------  -----------------  -----------------  -----------------
         O            1.182585607140    -1.320881792345    -0.011032606379    15.994914619570
         O           -3.790485392860    -0.174563792345    -0.030742606379    15.994914619570
         C            2.254945607140     0.832984207655     0.020760393621    12.000000000000
         C            3.582988607140     0.096116207655    -0.006155606379    12.000000000000
         C            1.063590607140    -0.096639792345     0.017098393621    12.000000000000
         C           -0.259120792860     0.506020107655     0.023626193621    12.000000000000
         C           -1.411550392860    -0.186854792345     0.001279393621    12.000000000000
         C           -2.736001392860     0.452409207655    -0.006691606379    12.000000000000
         H            2.173827607140     1.478870207655     0.905307393621     1.007825032230
         H            2.155445607140     1.510958207655    -0.839227606379     1.007825032230
         H            3.676817607140    -0.557582792345     0.862250393621     1.007825032230
         H            3.658280607140    -0.528024792345    -0.897770606379     1.007825032230
         H            4.414610607140     0.804382207655    -0.003113606379     1.007825032230
         H           -0.336652392860     1.635181207655     0.041453393621     1.007825032230
         H           -1.326079392860    -1.270964492345    -0.015928906379     1.007825032230
         H           -2.732766392860     1.562015207655     0.015677393621     1.007825032230

  Basis Set: AUG-CC-PVTZ
    Blend: AUG-CC-PVTZ
  Basis Set: (AUG-CC-PVTZ AUX)
    Blend: AUG-CC-PVTZ-JKFIT
	 Reference Energy          =    -381.6992779045116890 [Eh]
	 Singles Energy            =      -0.0000000000000000 [Eh]
	 Same-Spin Energy          =      -0.3779064872336576 [Eh]
	 Opposite-Spin Energy      =      -1.2246065135373170 [Eh]
	 Correlation Energy        =      -1.6025130007709745 [Eh]
	 Total Energy              =    -383.3017909052826440 [Eh]

	 ================> DF-SCS-MP2 Energies <==================
	-----------------------------------------------------------
	 SCS Same-Spin Scale       =       0.3333333333333333 [-]
	 SCS Opposite-Spin Scale   =       1.2000000000000000 [-]
	 SCS Same-Spin Energy      =      -0.1259688290778859 [Eh]
	 SCS Opposite-Spin Energy  =      -1.4695278162447802 [Eh]
	 SCS Correlation Energy    =      -1.5954966453226662 [Eh]
	 SCS Total Energy          =    -383.2947745498343579 [Eh]
	-----------------------------------------------------------

  Dipole Moment: [D]
     X:     2.6873      Y:     3.5004      Z:     0.0893     Total:     4.4139

*** Psi4 exiting successfully. Buy a developer a beer!
