                               Psi4 1.3.2 release

  ==> Input File <==

--------------------------------------------------------------------------
#psi4
#
memory 32 gb

molecule  {
0 1
  O        1.1855920    -1.3251230    -0.0110750
  O       -3.7874790    -0.1788050    -0.0307850
  C        2.2579520     0.8287430     0.0207180
  C        3.5859950     0.0918750    -0.0061980
  C        1.0665970    -0.1008810     0.0170560
  C       -0.2810060     0.5415760     0.0240110
  C       -1.4437963    -0.2595203    -0.0006936
  C       -2.7329950     0.4481680    -0.0067340
  H        2.1768340     1.4746290     0.9052650
  H        2.1584520     1.5067170    -0.8392700
  H        3.6798240    -0.5618240     0.8622080
  H        3.6612870    -0.5322660    -0.8978130
  H        4.4176170     0.8001410    -0.0031560
  H       -0.3336460     1.6309400     0.0414110
  H       -1.3609630    -1.2775220    -0.0163660
  H       -2.7878413     1.5564410     0.0146948
units angstrom
no_reorient  #important for SAPT in psi4, default
symmetry c1  #important for SAPT in psi4, default
}

set PROPERTIES_ORIGIN ["COM"]
properties('MP2/aug-cc-pvtz', properties = ['dipole'])
--------------------------------------------------------------------------

    Molecular point group: c1
  Charge       = 0
  Multiplicity = 1
  Basis Set: AUG-CC-PVTZ
    Blend: AUG-CC-PVTZ
  Basis Set: (AUG-CC-PVTZ AUX)
    Blend: AUG-CC-PVTZ-JKFIT

    Orbital Energies [Eh]
    ---------------------

    Doubly Occupied:

       1A    -20.569514     2A    -20.563010     3A    -11.352885
       4A    -11.349884     5A    -11.290973     6A    -11.284857
       7A    -11.256416     8A    -11.227873     9A     -1.394667
      10A     -1.393283    11A     -1.103369    12A     -1.068036
      13A     -0.954987    14A     -0.874619    15A     -0.812082
      16A     -0.752714    17A     -0.698981    18A     -0.680732
      19A     -0.645478    20A     -0.643386    21A     -0.621589
      22A     -0.588839    23A     -0.552087    24A     -0.542348
      25A     -0.535736    26A     -0.528326    27A     -0.501448
      28A     -0.450811    29A     -0.434738    30A     -0.390953

  @DF-RHF Final Energy:  -381.69130847198323

   => Energetics <=

    Nuclear Repulsion Energy =            330.4087465654960738
    One-Electron Energy =               -1174.0708662610111332
    Two-Electron Energy =                 461.9708112235317685
    Total Energy =                       -381.6913084719832341
  Basis Set: (AUG-CC-PVTZ AUX)
    Blend: AUG-CC-PVTZ-RI
    Molecular point group: c1

    Geometry (in Angstrom), charge = 0, multiplicity = 1:

       Center              X                  Y                   Z               Mass
    ------------   -----------------  -----------------  -----------------  -----------------
         O            1.189889768971    -1.317783204859    -0.010859596783    15.994914619570
         O           -3.783181231029    -0.171465204859    -0.030569596783    15.994914619570
         C            2.262249768971     0.836082795141     0.020933403217    12.000000000000
         C            3.590292768971     0.099214795141    -0.005982596783    12.000000000000
         C            1.070894768971    -0.093541204859     0.017271403217    12.000000000000
         C           -0.276708231029     0.548915795141     0.024226403217    12.000000000000
         C           -1.439498531029    -0.252180504859    -0.000478196783    12.000000000000
         C           -2.728697231029     0.455507795141    -0.006518596783    12.000000000000
         H            2.181131768971     1.481968795141     0.905480403217     1.007825032230
         H            2.162749768971     1.514056795141    -0.839054596783     1.007825032230
         H            3.684121768971    -0.554484204859     0.862423403217     1.007825032230
         H            3.665584768971    -0.524926204859    -0.897597596783     1.007825032230
         H            4.421914768971     0.807480795141    -0.002940596783     1.007825032230
         H           -0.329348231029     1.638279795141     0.041626403217     1.007825032230
         H           -1.356665231029    -1.270182204859    -0.016150596783     1.007825032230
         H           -2.783543531029     1.563780795141     0.014910203217     1.007825032230

  Basis Set: AUG-CC-PVTZ
    Blend: AUG-CC-PVTZ
  Basis Set: (AUG-CC-PVTZ AUX)
    Blend: AUG-CC-PVTZ-JKFIT
	 Reference Energy          =    -381.6913084719832341 [Eh]
	 Singles Energy            =      -0.0000000000000000 [Eh]
	 Same-Spin Energy          =      -0.3779883536597244 [Eh]
	 Opposite-Spin Energy      =      -1.2254272699805908 [Eh]
	 Correlation Energy        =      -1.6034156236403152 [Eh]
	 Total Energy              =    -383.2947240956235646 [Eh]

	 ================> DF-SCS-MP2 Energies <==================
	-----------------------------------------------------------
	 SCS Same-Spin Scale       =       0.3333333333333333 [-]
	 SCS Opposite-Spin Scale   =       1.2000000000000000 [-]
	 SCS Same-Spin Energy      =      -0.1259961178865748 [Eh]
	 SCS Opposite-Spin Energy  =      -1.4705127239767088 [Eh]
	 SCS Correlation Energy    =      -1.5965088418632836 [Eh]
	 SCS Total Energy          =    -383.2878173138465172 [Eh]
	-----------------------------------------------------------

  Dipole Moment: [D]
     X:     2.7305      Y:     3.5369      Z:     0.0907     Total:     4.4692

*** Psi4 exiting successfully. Buy a developer a beer!
