                               Psi4 1.3.2 release

  ==> Input File <==

--------------------------------------------------------------------------
#psi4
#
memory 32 gb

molecule  {
0 1
  O        1.1855920    -1.3251230    -0.0110750
  O       -3.7874790    -0.1788050    -0.0307850
  C        2.2579520     0.8287430     0.0207180
  C        3.5859950     0.0918750    -0.0061980
  C        1.0420898    -0.0663708     0.0838951
  C       -0.2810060     0.5415760     0.0240110
  C       -1.4085440    -0.1910960     0.0012370
  C       -2.7329950     0.4481680    -0.0067340
  H        2.1279927     1.4474544     0.9187598
  H        2.1584520     1.5067170    -0.8392700
  H        3.6798240    -0.5618240     0.8622080
  H        3.6612870    -0.5322660    -0.8978130
  H        4.4176170     0.8001410    -0.0031560
  H       -0.3336460     1.6309400     0.0414110
  H       -1.3609630    -1.2775220    -0.0163660
  H       -2.7297600     1.5577740     0.0156350
units angstrom
no_reorient  #important for SAPT in psi4, default
symmetry c1  #important for SAPT in psi4, default
}

set PROPERTIES_ORIGIN ["COM"]
properties('MP2/aug-cc-pvtz', properties = ['dipole'])
--------------------------------------------------------------------------

    Molecular point group: c1
  Charge       = 0
  Multiplicity = 1
  Basis Set: AUG-CC-PVTZ
    Blend: AUG-CC-PVTZ
  Basis Set: (AUG-CC-PVTZ AUX)
    Blend: AUG-CC-PVTZ-JKFIT

    Orbital Energies [Eh]
    ---------------------

    Doubly Occupied:

       1A    -20.577191     2A    -20.559797     3A    -11.354728
       4A    -11.353876     5A    -11.283742     6A    -11.282108
       7A    -11.258294     8A    -11.228483     9A     -1.398024
      10A     -1.367843    11A     -1.120288    12A     -1.070070
      13A     -0.962309    14A     -0.882419    15A     -0.804780
      16A     -0.756593    17A     -0.695068    18A     -0.685715
      19A     -0.646474    20A     -0.635486    21A     -0.623307
      22A     -0.572160    23A     -0.555188    24A     -0.544540
      25A     -0.532471    26A     -0.525836    27A     -0.496218
      28A     -0.452499    29A     -0.438224    30A     -0.403938

  @DF-RHF Final Energy:  -381.69204801746400

   => Energetics <=

    Nuclear Repulsion Energy =            330.9553938906605026
    One-Electron Energy =               -1175.1595438301455943
    Two-Electron Energy =                 462.5121019220210883
    Total Energy =                       -381.6920480174640034
  Basis Set: (AUG-CC-PVTZ AUX)
    Blend: AUG-CC-PVTZ-RI
    Molecular point group: c1

    Geometry (in Angstrom), charge = 0, multiplicity = 1:

       Center              X                  Y                   Z               Mass
    ------------   -----------------  -----------------  -----------------  -----------------
         O            1.188655940272    -1.328574315717    -0.018354163015    15.994914619570
         O           -3.784415059728    -0.182256315717    -0.038064163015    15.994914619570
         C            2.261015940272     0.825291684283     0.013438836985    12.000000000000
         C            3.589058940272     0.088423684283    -0.013477163015    12.000000000000
         C            1.045153740272    -0.069822115717     0.076615936985    12.000000000000
         C           -0.277942059728     0.538124684283     0.016731836985    12.000000000000
         C           -1.405480059728    -0.194547315717    -0.006042163015    12.000000000000
         C           -2.729931059728     0.444716684283    -0.014013163015    12.000000000000
         H            2.131056640272     1.444003084283     0.911480636985     1.007825032230
         H            2.161515940272     1.503265684283    -0.846549163015     1.007825032230
         H            3.682887940272    -0.565275315717     0.854928836985     1.007825032230
         H            3.664350940272    -0.535717315717    -0.905092163015     1.007825032230
         H            4.420680940272     0.796689684283    -0.010435163015     1.007825032230
         H           -0.330582059728     1.627488684283     0.034131836985     1.007825032230
         H           -1.357899059728    -1.280973315717    -0.023645163015     1.007825032230
         H           -2.726696059728     1.554322684283     0.008355836985     1.007825032230

  Basis Set: AUG-CC-PVTZ
    Blend: AUG-CC-PVTZ
  Basis Set: (AUG-CC-PVTZ AUX)
    Blend: AUG-CC-PVTZ-JKFIT
	 Reference Energy          =    -381.6920480174640034 [Eh]
	 Singles Energy            =      -0.0000000000000000 [Eh]
	 Same-Spin Energy          =      -0.3789921085581155 [Eh]
	 Opposite-Spin Energy      =      -1.2271094935275384 [Eh]
	 Correlation Energy        =      -1.6061016020856540 [Eh]
	 Total Energy              =    -383.2981496195496334 [Eh]

	 ================> DF-SCS-MP2 Energies <==================
	-----------------------------------------------------------
	 SCS Same-Spin Scale       =       0.3333333333333333 [-]
	 SCS Opposite-Spin Scale   =       1.2000000000000000 [-]
	 SCS Same-Spin Energy      =      -0.1263307028527051 [Eh]
	 SCS Opposite-Spin Energy  =      -1.4725313922330461 [Eh]
	 SCS Correlation Energy    =      -1.5988620950857513 [Eh]
	 SCS Total Energy          =    -383.2909101125497386 [Eh]
	-----------------------------------------------------------

  Dipole Moment: [D]
     X:     2.5892      Y:     3.5923      Z:     0.1199     Total:     4.4298

*** Psi4 exiting successfully. Buy a developer a beer!
