                               Psi4 1.3.2 release

  ==> Input File <==

--------------------------------------------------------------------------
#psi4
#
memory 32 gb

molecule  {
0 1
  O        1.1642027    -1.3270097    -0.0112494
  O       -3.7874790    -0.1788050    -0.0307850
  C        2.2579520     0.8287430     0.0207180
  C        3.5859950     0.0918750    -0.0061980
  C        1.0665970    -0.1008810     0.0170560
  C       -0.2920127     0.5179669     0.0233877
  C       -1.4085440    -0.1910960     0.0012370
  C       -2.7329950     0.4481680    -0.0067340
  H        2.1768340     1.4746290     0.9052650
  H        2.1584520     1.5067170    -0.8392700
  H        3.6798240    -0.5618240     0.8622080
  H        3.6612870    -0.5322660    -0.8978130
  H        4.4176170     0.8001410    -0.0031560
  H       -0.3336460     1.6309400     0.0414110
  H       -1.3609630    -1.2775220    -0.0163660
  H       -2.7297600     1.5577740     0.0156350
units angstrom
no_reorient  #important for SAPT in psi4, default
symmetry c1  #important for SAPT in psi4, default
}

set PROPERTIES_ORIGIN ["COM"]
properties('MP2/aug-cc-pvtz', properties = ['dipole'])
--------------------------------------------------------------------------

    Molecular point group: c1
  Charge       = 0
  Multiplicity = 1
  Basis Set: AUG-CC-PVTZ
    Blend: AUG-CC-PVTZ
  Basis Set: (AUG-CC-PVTZ AUX)
    Blend: AUG-CC-PVTZ-JKFIT

    Orbital Energies [Eh]
    ---------------------

    Doubly Occupied:

       1A    -20.573300     2A    -20.564211     3A    -11.354042
       4A    -11.350780     5A    -11.279842     6A    -11.272820
       7A    -11.258976     8A    -11.229566     9A     -1.395619
      10A     -1.394108    11A     -1.117231    12A     -1.072205
      13A     -0.953601    14A     -0.880156    15A     -0.800609
      16A     -0.755114    17A     -0.696138    18A     -0.686039
      19A     -0.647091    20A     -0.637961    21A     -0.629679
      22A     -0.566961    23A     -0.555406    24A     -0.545744
      25A     -0.536795    26A     -0.529942    27A     -0.503034
      28A     -0.451217    29A     -0.435929    30A     -0.407813

  @DF-RHF Final Energy:  -381.70274705355240

   => Energetics <=

    Nuclear Repulsion Energy =            331.4247706293574538
    One-Electron Energy =               -1176.0911764075340216
    Two-Electron Energy =                 462.9636587246241675
    Total Energy =                       -381.7027470535524003
  Basis Set: (AUG-CC-PVTZ AUX)
    Blend: AUG-CC-PVTZ-RI
    Molecular point group: c1

    Geometry (in Angstrom), charge = 0, multiplicity = 1:

       Center              X                  Y                   Z               Mass
    ------------   -----------------  -----------------  -----------------  -----------------
         O            1.168434759010    -1.324211959213    -0.011157560761    15.994914619570
         O           -3.783246940990    -0.176007259213    -0.030693160761    15.994914619570
         C            2.262184059010     0.831540740787     0.020809839239    12.000000000000
         C            3.590227059010     0.094672740787    -0.006106160761    12.000000000000
         C            1.070829059010    -0.098083259213     0.017147839239    12.000000000000
         C           -0.287780640990     0.520764640787     0.023479539239    12.000000000000
         C           -1.404311940990    -0.188298259213     0.001328839239    12.000000000000
         C           -2.728762940990     0.450965740787    -0.006642160761    12.000000000000
         H            2.181066059010     1.477426740787     0.905356839239     1.007825032230
         H            2.162684059010     1.509514740787    -0.839178160761     1.007825032230
         H            3.684056059010    -0.559026259213     0.862299839239     1.007825032230
         H            3.665519059010    -0.529468259213    -0.897721160761     1.007825032230
         H            4.421849059010     0.802938740787    -0.003064160761     1.007825032230
         H           -0.329413940990     1.633737740787     0.041502839239     1.007825032230
         H           -1.356730940990    -1.274724259213    -0.016274160761     1.007825032230
         H           -2.725527940990     1.560571740787     0.015726839239     1.007825032230

  Basis Set: AUG-CC-PVTZ
    Blend: AUG-CC-PVTZ
  Basis Set: (AUG-CC-PVTZ AUX)
    Blend: AUG-CC-PVTZ-JKFIT
	 Reference Energy          =    -381.7027470535524003 [Eh]
	 Singles Energy            =      -0.0000000000000000 [Eh]
	 Same-Spin Energy          =      -0.3771988202598778 [Eh]
	 Opposite-Spin Energy      =      -1.2233510626871817 [Eh]
	 Correlation Energy        =      -1.6005498829470595 [Eh]
	 Total Energy              =    -383.3032969364994642 [Eh]

	 ================> DF-SCS-MP2 Energies <==================
	-----------------------------------------------------------
	 SCS Same-Spin Scale       =       0.3333333333333333 [-]
	 SCS Opposite-Spin Scale   =       1.2000000000000000 [-]
	 SCS Same-Spin Energy      =      -0.1257329400866259 [Eh]
	 SCS Opposite-Spin Energy  =      -1.4680212752246180 [Eh]
	 SCS Correlation Energy    =      -1.5937542153112441 [Eh]
	 SCS Total Energy          =    -383.2965012688636648 [Eh]
	-----------------------------------------------------------

  Dipole Moment: [D]
     X:     2.8528      Y:     3.5058      Z:     0.0902     Total:     4.5207

*** Psi4 exiting successfully. Buy a developer a beer!
