                               Psi4 1.3.2 release

  ==> Input File <==

--------------------------------------------------------------------------
#psi4
#
memory 32 gb

molecule  {
0 1
  O        1.1855920    -1.3251230    -0.0110750
  O       -3.8188639    -0.1227591    -0.0299972
  C        2.2579520     0.8287430     0.0207180
  C        3.5859950     0.0918750    -0.0061980
  C        1.0665970    -0.1008810     0.0170560
  C       -0.2810060     0.5415760     0.0240110
  C       -1.4085440    -0.1910960     0.0012370
  C       -2.7329950     0.4481680    -0.0067340
  H        2.1768340     1.4746290     0.9052650
  H        2.1584520     1.5067170    -0.8392700
  H        3.6798240    -0.5618240     0.8622080
  H        3.6612870    -0.5322660    -0.8978130
  H        4.4176170     0.8001410    -0.0031560
  H       -0.3336460     1.6309400     0.0414110
  H       -1.3609630    -1.2775220    -0.0163660
  H       -2.7878451     1.5564353     0.0149784
units angstrom
no_reorient  #important for SAPT in psi4, default
symmetry c1  #important for SAPT in psi4, default
}

set PROPERTIES_ORIGIN ["COM"]
properties('MP2/aug-cc-pvtz', properties = ['dipole'])
--------------------------------------------------------------------------

    Molecular point group: c1
  Charge       = 0
  Multiplicity = 1
  Basis Set: AUG-CC-PVTZ
    Blend: AUG-CC-PVTZ
  Basis Set: (AUG-CC-PVTZ AUX)
    Blend: AUG-CC-PVTZ-JKFIT

    Orbital Energies [Eh]
    ---------------------

    Doubly Occupied:

       1A    -20.571973     2A    -20.565291     3A    -11.355047
       4A    -11.349717     5A    -11.284359     6A    -11.280846
       7A    -11.257781     8A    -11.228842     9A     -1.395898
      10A     -1.393716    11A     -1.116179    12A     -1.071129
      13A     -0.955322    14A     -0.879055    15A     -0.800296
      16A     -0.757263    17A     -0.698822    18A     -0.685958
      19A     -0.646836    20A     -0.638284    21A     -0.627988
      22A     -0.575648    23A     -0.554344    24A     -0.544514
      25A     -0.536385    26A     -0.529478    27A     -0.502793
      28A     -0.449223    29A     -0.436580    30A     -0.406233

  @DF-RHF Final Energy:  -381.70165111466218

   => Energetics <=

    Nuclear Repulsion Energy =            330.7776067855277233
    One-Electron Energy =               -1174.7669189571488459
    Two-Electron Energy =                 462.2876610569589388
    Total Energy =                       -381.7016511146621838
  Basis Set: (AUG-CC-PVTZ AUX)
    Blend: AUG-CC-PVTZ-RI
    Molecular point group: c1

    Geometry (in Angstrom), charge = 0, multiplicity = 1:

       Center              X                  Y                   Z               Mass
    ------------   -----------------  -----------------  -----------------  -----------------
         O            1.190594573194    -1.333111165603    -0.011181355205    15.994914619570
         O           -3.813861326806    -0.130747265603    -0.030103555205    15.994914619570
         C            2.262954573194     0.820754834397     0.020611644795    12.000000000000
         C            3.590997573194     0.083886834397    -0.006304355205    12.000000000000
         C            1.071599573194    -0.108869165603     0.016949644795    12.000000000000
         C           -0.276003426806     0.533587834397     0.023904644795    12.000000000000
         C           -1.403541426806    -0.199084165603     0.001130644795    12.000000000000
         C           -2.727992426806     0.440179834397    -0.006840355205    12.000000000000
         H            2.181836573194     1.466640834397     0.905158644795     1.007825032230
         H            2.163454573194     1.498728834397    -0.839376355205     1.007825032230
         H            3.684826573194    -0.569812165603     0.862101644795     1.007825032230
         H            3.666289573194    -0.540254165603    -0.897919355205     1.007825032230
         H            4.422619573194     0.792152834397    -0.003262355205     1.007825032230
         H           -0.328643426806     1.622951834397     0.041304644795     1.007825032230
         H           -1.355960426806    -1.285510165603    -0.016472355205     1.007825032230
         H           -2.782842526806     1.548447134397     0.014872044795     1.007825032230

  Basis Set: AUG-CC-PVTZ
    Blend: AUG-CC-PVTZ
  Basis Set: (AUG-CC-PVTZ AUX)
    Blend: AUG-CC-PVTZ-JKFIT
	 Reference Energy          =    -381.7016511146621838 [Eh]
	 Singles Energy            =      -0.0000000000000000 [Eh]
	 Same-Spin Energy          =      -0.3773446658156758 [Eh]
	 Opposite-Spin Energy      =      -1.2238202160922134 [Eh]
	 Correlation Energy        =      -1.6011648819078892 [Eh]
	 Total Energy              =    -383.3028159965700752 [Eh]

	 ================> DF-SCS-MP2 Energies <==================
	-----------------------------------------------------------
	 SCS Same-Spin Scale       =       0.3333333333333333 [-]
	 SCS Opposite-Spin Scale   =       1.2000000000000000 [-]
	 SCS Same-Spin Energy      =      -0.1257815552718919 [Eh]
	 SCS Opposite-Spin Energy  =      -1.4685842593106559 [Eh]
	 SCS Correlation Energy    =      -1.5943658145825479 [Eh]
	 SCS Total Energy          =    -383.2960169292447290 [Eh]
	-----------------------------------------------------------

  Dipole Moment: [D]
     X:     2.8610      Y:     3.4131      Z:     0.0892     Total:     4.4545

*** Psi4 exiting successfully. Buy a developer a beer!
