                               Psi4 1.4a3.dev225

  ==> Input File <==

--------------------------------------------------------------------------
#psi4
#
memory 32 gb

molecule  {
0 1
  O        1.0820120     1.3681640     0.0000000
  O       -3.8882340     0.1997640    -0.0000030
  C        2.1679760    -0.7815440    -0.0000070
  C        3.4943680    -0.0370920     0.0000040
  C        0.9697220     0.1420900     0.0000000
  C       -0.3759970    -0.5069640     0.0000040
  C       -1.5077040     0.2230700     0.0000000
  C       -2.8471767    -0.4130414     0.0000019
  H        2.0818540    -1.4423830    -0.8738950
  H        2.0818510    -1.4424050     0.8738640
  H        3.5776630     0.6025590    -0.8807220
  H        3.5776700     0.6025230     0.8807550
  H        4.3292850    -0.7422630    -0.0000140
  H       -0.4236580    -1.5964830     0.0000100
  H       -1.4638710     1.3098110    -0.0000060
  H       -2.8215620    -1.5330200     0.0000110
units angstrom
no_reorient  #important for SAPT in psi4, default
symmetry c1  #important for SAPT in psi4, default
}

set PROPERTIES_ORIGIN ["COM"]
properties('MP2/aug-cc-pvtz', properties = ['dipole'])
--------------------------------------------------------------------------

    Molecular point group: c1
  Charge       = 0
  Multiplicity = 1
  Basis Set: AUG-CC-PVTZ
    Blend: AUG-CC-PVTZ
  Basis Set: (AUG-CC-PVTZ AUX)
    Blend: AUG-CC-PVTZ-JKFIT

    Orbital Energies [Eh]
    ---------------------

    Doubly Occupied:

       1A    -20.575292     2A    -20.563129     3A    -11.353612
       4A    -11.351157     5A    -11.281330     6A    -11.277890
       7A    -11.256892     8A    -11.228273     9A     -1.408624
      10A     -1.393027    11A     -1.111983    12A     -1.068707
      13A     -0.952405    14A     -0.877461    15A     -0.799098
      16A     -0.755385    17A     -0.695704    18A     -0.686340
      19A     -0.645346    20A     -0.639881    21A     -0.631882
      22A     -0.573019    23A     -0.559064    24A     -0.543204
      25A     -0.538544    26A     -0.528010    27A     -0.501804
      28A     -0.449595    29A     -0.434389    30A     -0.404611

  @DF-RHF Final Energy:  -381.70444326105496

   => Energetics <=

    Nuclear Repulsion Energy =            330.9389722882863225
    One-Electron Energy =               -1175.1155146912512919
    Two-Electron Energy =                 462.4720991419100073
    Total Energy =                       -381.7044432610549620
  Basis Set: (AUG-CC-PVTZ AUX)
    Blend: AUG-CC-PVTZ-RI
    Molecular point group: c1

    Geometry (in Angstrom), charge = 0, multiplicity = 1:

       Center              X                  Y                   Z               Mass
    ------------   -----------------  -----------------  -----------------  -----------------
         O            1.180592547518     1.329590578835     0.000000090683    15.994914619570
         O           -3.789653452482     0.161190578835    -0.000002909317    15.994914619570
         C            2.266556547518    -0.820117421165    -0.000006909317    12.000000000000
         C            3.592948547518    -0.075665421165     0.000004090683    12.000000000000
         C            1.068302547518     0.103516578835     0.000000090683    12.000000000000
         C           -0.277416452482    -0.545537421165     0.000004090683    12.000000000000
         C           -1.409123452482     0.184496578835     0.000000090683    12.000000000000
         C           -2.748596152482    -0.451614821165     0.000001990683    12.000000000000
         H            2.180434547518    -1.480956421165    -0.873894909317     1.007825032230
         H            2.180431547518    -1.480978421165     0.873864090683     1.007825032230
         H            3.676243547518     0.563985578835    -0.880721909317     1.007825032230
         H            3.676250547518     0.563949578835     0.880755090683     1.007825032230
         H            4.427865547518    -0.780836421165    -0.000013909317     1.007825032230
         H           -0.325077452482    -1.635056421165     0.000010090683     1.007825032230
         H           -1.365290452482     1.271237578835    -0.000005909317     1.007825032230
         H           -2.722981452482    -1.571593421165     0.000011090683     1.007825032230

  Basis Set: AUG-CC-PVTZ
    Blend: AUG-CC-PVTZ
  Basis Set: (AUG-CC-PVTZ AUX)
    Blend: AUG-CC-PVTZ-JKFIT
	 Reference Energy          =    -381.7044432610549620 [Eh]
	 Singles Energy            =      -0.0000000000000000 [Eh]
	 Same-Spin Energy          =      -0.3768106113579550 [Eh]
	 Opposite-Spin Energy      =      -1.2226289140784017 [Eh]
	 Correlation Energy        =      -1.5994395254363567 [Eh]
	 Total Energy              =    -383.3038827864913287 [Eh]

	 ================> DF-SCS-MP2 Energies <==================
	-----------------------------------------------------------
	 SCS Same-Spin Scale       =       0.3333333333333333 [-]
	 SCS Opposite-Spin Scale   =       1.2000000000000000 [-]
	 SCS Same-Spin Energy      =      -0.1256035371193183 [Eh]
	 SCS Opposite-Spin Energy  =      -1.4671546968940821 [Eh]
	 SCS Correlation Energy    =      -1.5927582340134003 [Eh]
	 SCS Total Energy          =    -383.2972014950683501 [Eh]
	-----------------------------------------------------------

  Dipole Moment: [D]
     X:     2.6663      Y:    -3.4594      Z:     0.0000     Total:     4.3677

*** Psi4 exiting successfully. Buy a developer a beer!
