                               Psi4 1.3.2 release

  ==> Input File <==

--------------------------------------------------------------------------
#psi4
#
memory 32 gb

molecule  {
0 1
  O        1.1427869    -1.3285423    -0.0105579
  O       -3.7874790    -0.1788050    -0.0307850
  C        2.2247908     0.8697389     0.0220629
  C        3.5859950     0.0918750    -0.0061980
  C        1.0665970    -0.1008810     0.0170560
  C       -0.2810060     0.5415760     0.0240110
  C       -1.4085440    -0.1910960     0.0012370
  C       -2.7329950     0.4481680    -0.0067340
  H        2.1768340     1.4746290     0.9052650
  H        2.1584520     1.5067170    -0.8392700
  H        3.6798240    -0.5618240     0.8622080
  H        3.6612870    -0.5322660    -0.8978130
  H        4.4176170     0.8001410    -0.0031560
  H       -0.3336460     1.6309400     0.0414110
  H       -1.3609630    -1.2775220    -0.0163660
  H       -2.7297600     1.5577740     0.0156350
units angstrom
no_reorient  #important for SAPT in psi4, default
symmetry c1  #important for SAPT in psi4, default
}

set PROPERTIES_ORIGIN ["COM"]
properties('MP2/aug-cc-pvtz', properties = ['dipole'])
--------------------------------------------------------------------------

    Molecular point group: c1
  Charge       = 0
  Multiplicity = 1
  Basis Set: AUG-CC-PVTZ
    Blend: AUG-CC-PVTZ
  Basis Set: (AUG-CC-PVTZ AUX)
    Blend: AUG-CC-PVTZ-JKFIT

    Orbital Energies [Eh]
    ---------------------

    Doubly Occupied:

       1A    -20.572434     2A    -20.565997     3A    -11.354886
       4A    -11.349806     5A    -11.278841     6A    -11.275427
       7A    -11.256742     8A    -11.231692     9A     -1.395698
      10A     -1.393519    11A     -1.113297    12A     -1.067456
      13A     -0.952172    14A     -0.880146    15A     -0.800840
      16A     -0.758146    17A     -0.696237    18A     -0.683906
      19A     -0.652656    20A     -0.636892    21A     -0.629287
      22A     -0.571726    23A     -0.554039    24A     -0.539925
      25A     -0.537202    26A     -0.522312    27A     -0.512519
      28A     -0.450678    29A     -0.435478    30A     -0.402581

  @DF-RHF Final Energy:  -381.70003627789714

   => Energetics <=

    Nuclear Repulsion Energy =            330.9678115025040483
    One-Electron Energy =               -1175.1906262539134786
    Two-Electron Energy =                 462.5227784735123464
    Total Energy =                       -381.7000362778971407
  Basis Set: (AUG-CC-PVTZ AUX)
    Blend: AUG-CC-PVTZ-RI
    Molecular point group: c1

    Geometry (in Angstrom), charge = 0, multiplicity = 1:

       Center              X                  Y                   Z               Mass
    ------------   -----------------  -----------------  -----------------  -----------------
         O            1.152448541351    -1.332444513844    -0.010775548771    15.994914619570
         O           -3.777817358649    -0.182707213844    -0.031002648771    15.994914619570
         C            2.234452441351     0.865836686156     0.021845251229    12.000000000000
         C            3.595656641351     0.087972786156    -0.006415648771    12.000000000000
         C            1.076258641351    -0.104783213844     0.016838351229    12.000000000000
         C           -0.271344358649     0.537673786156     0.023793351229    12.000000000000
         C           -1.398882358649    -0.194998213844     0.001019351229    12.000000000000
         C           -2.723333358649     0.444265786156    -0.006951648771    12.000000000000
         H            2.186495641351     1.470726786156     0.905047351229     1.007825032230
         H            2.168113641351     1.502814786156    -0.839487648771     1.007825032230
         H            3.689485641351    -0.565726213844     0.861990351229     1.007825032230
         H            3.670948641351    -0.536168213844    -0.898030648771     1.007825032230
         H            4.427278641351     0.796238786156    -0.003373648771     1.007825032230
         H           -0.323984358649     1.627037786156     0.041193351229     1.007825032230
         H           -1.351301358649    -1.281424213844    -0.016583648771     1.007825032230
         H           -2.720098358649     1.553871786156     0.015417351229     1.007825032230

  Basis Set: AUG-CC-PVTZ
    Blend: AUG-CC-PVTZ
  Basis Set: (AUG-CC-PVTZ AUX)
    Blend: AUG-CC-PVTZ-JKFIT
	 Reference Energy          =    -381.7000362778971407 [Eh]
	 Singles Energy            =      -0.0000000000000000 [Eh]
	 Same-Spin Energy          =      -0.3772087229889659 [Eh]
	 Opposite-Spin Energy      =      -1.2238325456384120 [Eh]
	 Correlation Energy        =      -1.6010412686273781 [Eh]
	 Total Energy              =    -383.3010775465245388 [Eh]

	 ================> DF-SCS-MP2 Energies <==================
	-----------------------------------------------------------
	 SCS Same-Spin Scale       =       0.3333333333333333 [-]
	 SCS Opposite-Spin Scale   =       1.2000000000000000 [-]
	 SCS Same-Spin Energy      =      -0.1257362409963220 [Eh]
	 SCS Opposite-Spin Energy  =      -1.4685990547660943 [Eh]
	 SCS Correlation Energy    =      -1.5943352957624164 [Eh]
	 SCS Total Energy          =    -383.2943715736595323 [Eh]
	-----------------------------------------------------------

  Dipole Moment: [D]
     X:     2.8795      Y:     3.5147      Z:     0.0900     Total:     4.5446

*** Psi4 exiting successfully. Buy a developer a beer!
