                               Psi4 1.3.2 release

  ==> Input File <==

--------------------------------------------------------------------------
#psi4
#
memory 32 gb

molecule  {
0 1
  O        1.1855920    -1.3251230    -0.0110750
  O       -3.7874790    -0.1788050    -0.0307850
  C        2.2579520     0.8287430     0.0207180
  C        3.5859950     0.0918750    -0.0061980
  C        1.0665970    -0.1008810     0.0170560
  C       -0.2810060     0.5415760     0.0240110
  C       -1.3870537    -0.1444946     0.0025123
  C       -2.7329950     0.4481680    -0.0067340
  H        2.1768340     1.4746290     0.9052650
  H        2.1584520     1.5067170    -0.8392700
  H        3.6798240    -0.5618240     0.8622080
  H        3.6612870    -0.5322660    -0.8978130
  H        4.4176170     0.8001410    -0.0031560
  H       -0.3336460     1.6309400     0.0414110
  H       -1.3609630    -1.2775220    -0.0163660
  H       -2.6910342     1.5569729     0.0162279
units angstrom
no_reorient  #important for SAPT in psi4, default
symmetry c1  #important for SAPT in psi4, default
}

set PROPERTIES_ORIGIN ["COM"]
properties('MP2/aug-cc-pvtz', properties = ['dipole'])
--------------------------------------------------------------------------

    Molecular point group: c1
  Charge       = 0
  Multiplicity = 1
  Basis Set: AUG-CC-PVTZ
    Blend: AUG-CC-PVTZ
  Basis Set: (AUG-CC-PVTZ AUX)
    Blend: AUG-CC-PVTZ-JKFIT

    Orbital Energies [Eh]
    ---------------------

    Doubly Occupied:

       1A    -20.577239     2A    -20.564890     3A    -11.354721
       4A    -11.352951     5A    -11.276448     6A    -11.273419
       7A    -11.257486     8A    -11.228550     9A     -1.396550
      10A     -1.394848    11A     -1.123950    12A     -1.071588
      13A     -0.955167    14A     -0.882910    15A     -0.795826
      16A     -0.758300    17A     -0.696388    18A     -0.688376
      19A     -0.646583    20A     -0.640998    21A     -0.629831
      22A     -0.559462    23A     -0.556875    24A     -0.544786
      25A     -0.537175    26A     -0.529174    27A     -0.502550
      28A     -0.451554    29A     -0.436075    30A     -0.414294

  @DF-RHF Final Energy:  -381.69965376886870

   => Energetics <=

    Nuclear Repulsion Energy =            331.6431920609854842
    One-Electron Energy =               -1176.4877649438178651
    Two-Electron Energy =                 463.1449191139636810
    Total Energy =                       -381.6996537688686999
  Basis Set: (AUG-CC-PVTZ AUX)
    Blend: AUG-CC-PVTZ-RI
    Molecular point group: c1

    Geometry (in Angstrom), charge = 0, multiplicity = 1:

       Center              X                  Y                   Z               Mass
    ------------   -----------------  -----------------  -----------------  -----------------
         O            1.182942344250    -1.330106404528    -0.011216714399    15.994914619570
         O           -3.790128655750    -0.183788404528    -0.030926714399    15.994914619570
         C            2.255302344250     0.823759595472     0.020576285601    12.000000000000
         C            3.583345344250     0.086891595472    -0.006339714399    12.000000000000
         C            1.063947344250    -0.105864404528     0.016914285601    12.000000000000
         C           -0.283655655750     0.536592595472     0.023869285601    12.000000000000
         C           -1.389703355750    -0.149478004528     0.002370585601    12.000000000000
         C           -2.735644655750     0.443184595472    -0.006875714399    12.000000000000
         H            2.174184344250     1.469645595472     0.905123285601     1.007825032230
         H            2.155802344250     1.501733595472    -0.839411714399     1.007825032230
         H            3.677174344250    -0.566807404528     0.862066285601     1.007825032230
         H            3.658637344250    -0.537249404528    -0.897954714399     1.007825032230
         H            4.414967344250     0.795157595472    -0.003297714399     1.007825032230
         H           -0.336295655750     1.625956595472     0.041269285601     1.007825032230
         H           -1.363612655750    -1.282505404528    -0.016507714399     1.007825032230
         H           -2.693683855750     1.551989495472     0.016086185601     1.007825032230

  Basis Set: AUG-CC-PVTZ
    Blend: AUG-CC-PVTZ
  Basis Set: (AUG-CC-PVTZ AUX)
    Blend: AUG-CC-PVTZ-JKFIT
	 Reference Energy          =    -381.6996537688686999 [Eh]
	 Singles Energy            =      -0.0000000000000000 [Eh]
	 Same-Spin Energy          =      -0.3773398354326610 [Eh]
	 Opposite-Spin Energy      =      -1.2234454765239873 [Eh]
	 Correlation Energy        =      -1.6007853119566482 [Eh]
	 Total Energy              =    -383.3004390808253561 [Eh]

	 ================> DF-SCS-MP2 Energies <==================
	-----------------------------------------------------------
	 SCS Same-Spin Scale       =       0.3333333333333333 [-]
	 SCS Opposite-Spin Scale   =       1.2000000000000000 [-]
	 SCS Same-Spin Energy      =      -0.1257799451442203 [Eh]
	 SCS Opposite-Spin Energy  =      -1.4681345718287846 [Eh]
	 SCS Correlation Energy    =      -1.5939145169730049 [Eh]
	 SCS Total Energy          =    -383.2935682858417294 [Eh]
	-----------------------------------------------------------

  Dipole Moment: [D]
     X:     2.7575      Y:     3.5036      Z:     0.0897     Total:     4.4595

*** Psi4 exiting successfully. Buy a developer a beer!
