                               Psi4 1.3.2 release

  ==> Input File <==

--------------------------------------------------------------------------
#psi4
#
memory 32 gb

molecule  {
0 1
  O        1.1855920    -1.3251230    -0.0110750
  O       -3.7874790    -0.1788050    -0.0307850
  C        2.2579520     0.8287430     0.0207180
  C        3.5859950     0.0918750    -0.0061980
  C        1.0665970    -0.1008810     0.0170560
  C       -0.3072713     0.5804805     0.0244104
  C       -1.4085440    -0.1910960     0.0012370
  C       -2.7329950     0.4481680    -0.0067340
  H        2.1768340     1.4746290     0.9052650
  H        2.1584520     1.5067170    -0.8392700
  H        3.6798240    -0.5618240     0.8622080
  H        3.6612870    -0.5322660    -0.8978130
  H        4.4176170     0.8001410    -0.0031560
  H       -0.3336460     1.6309400     0.0414110
  H       -1.3989110    -1.2785147    -0.0167393
  H       -2.7297600     1.5577740     0.0156350
units angstrom
no_reorient  #important for SAPT in psi4, default
symmetry c1  #important for SAPT in psi4, default
}

set PROPERTIES_ORIGIN ["COM"]
properties('MP2/aug-cc-pvtz', properties = ['dipole'])
--------------------------------------------------------------------------

    Molecular point group: c1
  Charge       = 0
  Multiplicity = 1
  Basis Set: AUG-CC-PVTZ
    Blend: AUG-CC-PVTZ
  Basis Set: (AUG-CC-PVTZ AUX)
    Blend: AUG-CC-PVTZ-JKFIT

    Orbital Energies [Eh]
    ---------------------

    Doubly Occupied:

       1A    -20.571779     2A    -20.565167     3A    -11.356780
       4A    -11.348614     5A    -11.282413     6A    -11.277585
       7A    -11.257101     8A    -11.228326     9A     -1.394339
      10A     -1.392999    11A     -1.114144    12A     -1.070289
      13A     -0.950512    14A     -0.878081    15A     -0.802018
      16A     -0.756468    17A     -0.696970    18A     -0.685978
      19A     -0.645834    20A     -0.635558    21A     -0.627707
      22A     -0.584402    23A     -0.553203    24A     -0.543855
      25A     -0.535673    26A     -0.528597    27A     -0.501985
      28A     -0.449950    29A     -0.431787    30A     -0.405596

  @DF-RHF Final Energy:  -381.70093319190141

   => Energetics <=

    Nuclear Repulsion Energy =            330.6619989557517556
    One-Electron Energy =               -1174.5784447057558282
    Two-Electron Energy =                 462.2155125581026596
    Total Energy =                       -381.7009331919014130
  Basis Set: (AUG-CC-PVTZ AUX)
    Blend: AUG-CC-PVTZ-RI
    Molecular point group: c1

    Geometry (in Angstrom), charge = 0, multiplicity = 1:

       Center              X                  Y                   Z               Mass
    ------------   -----------------  -----------------  -----------------  -----------------
         O            1.188746243174    -1.329280399240    -0.011114221659    15.994914619570
         O           -3.784324756826    -0.182962399240    -0.030824221659    15.994914619570
         C            2.261106243174     0.824585600760     0.020678778341    12.000000000000
         C            3.589149243174     0.087717600760    -0.006237221659    12.000000000000
         C            1.069751243174    -0.105038399240     0.017016778341    12.000000000000
         C           -0.304117056826     0.576323100760     0.024371178341    12.000000000000
         C           -1.405389756826    -0.195253399240     0.001197778341    12.000000000000
         C           -2.729840756826     0.444010600760    -0.006773221659    12.000000000000
         H            2.179988243174     1.470471600760     0.905225778341     1.007825032230
         H            2.161606243174     1.502559600760    -0.839309221659     1.007825032230
         H            3.682978243174    -0.565981399240     0.862168778341     1.007825032230
         H            3.664441243174    -0.536423399240    -0.897852221659     1.007825032230
         H            4.420771243174     0.795983600760    -0.003195221659     1.007825032230
         H           -0.330491756826     1.626782600760     0.041371778341     1.007825032230
         H           -1.395756756826    -1.282672099240    -0.016778521659     1.007825032230
         H           -2.726605756826     1.553616600760     0.015595778341     1.007825032230

  Basis Set: AUG-CC-PVTZ
    Blend: AUG-CC-PVTZ
  Basis Set: (AUG-CC-PVTZ AUX)
    Blend: AUG-CC-PVTZ-JKFIT
	 Reference Energy          =    -381.7009331919014130 [Eh]
	 Singles Energy            =      -0.0000000000000000 [Eh]
	 Same-Spin Energy          =      -0.3771283673178645 [Eh]
	 Opposite-Spin Energy      =      -1.2234929827687040 [Eh]
	 Correlation Energy        =      -1.6006213500865685 [Eh]
	 Total Energy              =    -383.3015545419879686 [Eh]

	 ================> DF-SCS-MP2 Energies <==================
	-----------------------------------------------------------
	 SCS Same-Spin Scale       =       0.3333333333333333 [-]
	 SCS Opposite-Spin Scale   =       1.2000000000000000 [-]
	 SCS Same-Spin Energy      =      -0.1257094557726215 [Eh]
	 SCS Opposite-Spin Energy  =      -1.4681915793224447 [Eh]
	 SCS Correlation Energy    =      -1.5939010350950662 [Eh]
	 SCS Total Energy          =    -383.2948342269964996 [Eh]
	-----------------------------------------------------------

  Dipole Moment: [D]
     X:     2.8156      Y:     3.5155      Z:     0.0906     Total:     4.5050

*** Psi4 exiting successfully. Buy a developer a beer!
