                               Psi4 1.3.2 release

  ==> Input File <==

--------------------------------------------------------------------------
#psi4
#
memory 32 gb

molecule  {
0 1
  O        1.1855920    -1.3251230    -0.0110750
  O       -3.7874790    -0.1788050    -0.0307850
  C        2.2579520     0.8287430     0.0207180
  C        3.5859950     0.0918750    -0.0061980
  C        1.0665970    -0.1008810     0.0170560
  C       -0.2810060     0.5415760     0.0240110
  C       -1.4085440    -0.1910960     0.0012370
  C       -2.6429378     0.4047007    -0.0061920
  H        2.1768340     1.4746290     0.9052650
  H        2.1584520     1.5067170    -0.8392700
  H        3.6798240    -0.5618240     0.8622080
  H        3.6612870    -0.5322660    -0.8978130
  H        4.4176170     0.8001410    -0.0031560
  H       -0.3336460     1.6309400     0.0414110
  H       -1.3609630    -1.2775220    -0.0163660
  H       -2.7297600     1.5577740     0.0156350
units angstrom
no_reorient  #important for SAPT in psi4, default
symmetry c1  #important for SAPT in psi4, default
}

set PROPERTIES_ORIGIN ["COM"]
properties('MP2/aug-cc-pvtz', properties = ['dipole'])
--------------------------------------------------------------------------

    Molecular point group: c1
  Charge       = 0
  Multiplicity = 1
  Basis Set: AUG-CC-PVTZ
    Blend: AUG-CC-PVTZ
  Basis Set: (AUG-CC-PVTZ AUX)
    Blend: AUG-CC-PVTZ-JKFIT

    Orbital Energies [Eh]
    ---------------------

    Doubly Occupied:

       1A    -20.571736     2A    -20.567252     3A    -11.359979
       4A    -11.350064     5A    -11.295019     6A    -11.275147
       7A    -11.261599     8A    -11.231740     9A     -1.401370
      10A     -1.355187    11A     -1.133129    12A     -1.077304
      13A     -0.971684    14A     -0.887848    15A     -0.794142
      16A     -0.764719    17A     -0.698453    18A     -0.688967
      19A     -0.650573    20A     -0.640769    21A     -0.611059
      22A     -0.574026    23A     -0.554845    24A     -0.547539
      25A     -0.532776    26A     -0.527721    27A     -0.505362
      28A     -0.448579    29A     -0.442770    30A     -0.403893

  @DF-RHF Final Energy:  -381.68079679714469

   => Energetics <=

    Nuclear Repulsion Energy =            331.8283423833618144
    One-Electron Energy =               -1176.7677785386172218
    Two-Electron Energy =                 463.2586393581107131
    Total Energy =                       -381.6807967971446942
  Basis Set: (AUG-CC-PVTZ AUX)
    Blend: AUG-CC-PVTZ-RI
    Molecular point group: c1

    Geometry (in Angstrom), charge = 0, multiplicity = 1:

       Center              X                  Y                   Z               Mass
    ------------   -----------------  -----------------  -----------------  -----------------
         O            1.175947636747    -1.320467907298    -0.011132850627    15.994914619570
         O           -3.797123363253    -0.174149907298    -0.030842850627    15.994914619570
         C            2.248307636747     0.833398092702     0.020660149373    12.000000000000
         C            3.576350636747     0.096530092702    -0.006255850627    12.000000000000
         C            1.056952636747    -0.096225907298     0.016998149373    12.000000000000
         C           -0.290650363253     0.546231092702     0.023953149373    12.000000000000
         C           -1.418188363253    -0.186440907298     0.001179149373    12.000000000000
         C           -2.652582163253     0.409355792702    -0.006249850627    12.000000000000
         H            2.167189636747     1.479284092702     0.905207149373     1.007825032230
         H            2.148807636747     1.511372092702    -0.839327850627     1.007825032230
         H            3.670179636747    -0.557168907298     0.862150149373     1.007825032230
         H            3.651642636747    -0.527610907298    -0.897870850627     1.007825032230
         H            4.407972636747     0.804796092702    -0.003213850627     1.007825032230
         H           -0.343290363253     1.635595092702     0.041353149373     1.007825032230
         H           -1.370607363253    -1.272866907298    -0.016423850627     1.007825032230
         H           -2.739404363253     1.562429092702     0.015577149373     1.007825032230

  Basis Set: AUG-CC-PVTZ
    Blend: AUG-CC-PVTZ
  Basis Set: (AUG-CC-PVTZ AUX)
    Blend: AUG-CC-PVTZ-JKFIT
	 Reference Energy          =    -381.6807967971446942 [Eh]
	 Singles Energy            =      -0.0000000000000000 [Eh]
	 Same-Spin Energy          =      -0.3806854336836868 [Eh]
	 Opposite-Spin Energy      =      -1.2299610838136119 [Eh]
	 Correlation Energy        =      -1.6106465174972988 [Eh]
	 Total Energy              =    -383.2914433146419810 [Eh]

	 ================> DF-SCS-MP2 Energies <==================
	-----------------------------------------------------------
	 SCS Same-Spin Scale       =       0.3333333333333333 [-]
	 SCS Opposite-Spin Scale   =       1.2000000000000000 [-]
	 SCS Same-Spin Energy      =      -0.1268951445612289 [Eh]
	 SCS Opposite-Spin Energy  =      -1.4759533005763343 [Eh]
	 SCS Correlation Energy    =      -1.6028484451375633 [Eh]
	 SCS Total Energy          =    -383.2836452422822617 [Eh]
	-----------------------------------------------------------

  Dipole Moment: [D]
     X:     3.3266      Y:     3.4076      Z:     0.0948     Total:     4.7631

*** Psi4 exiting successfully. Buy a developer a beer!
