                               Psi4 1.3.2 release

  ==> Input File <==

--------------------------------------------------------------------------
#psi4
#
memory 32 gb

molecule  {
0 1
  O        1.1962727    -1.3240349    -0.0111989
  O       -3.7874790    -0.1788050    -0.0307850
  C        2.2660171     0.8183151     0.0203810
  C        3.5859950     0.0918750    -0.0061980
  C        1.0665970    -0.1008810     0.0170560
  C       -0.2810060     0.5415760     0.0240110
  C       -1.4085440    -0.1910960     0.0012370
  C       -2.7329950     0.4481680    -0.0067340
  H        2.1768340     1.4746290     0.9052650
  H        2.1584520     1.5067170    -0.8392700
  H        3.6798240    -0.5618240     0.8622080
  H        3.6612870    -0.5322660    -0.8978130
  H        4.4176170     0.8001410    -0.0031560
  H       -0.3336460     1.6309400     0.0414110
  H       -1.3609630    -1.2775220    -0.0163660
  H       -2.7297600     1.5577740     0.0156350
units angstrom
no_reorient  #important for SAPT in psi4, default
symmetry c1  #important for SAPT in psi4, default
}

set PROPERTIES_ORIGIN ["COM"]
properties('MP2/aug-cc-pvtz', properties = ['dipole'])
--------------------------------------------------------------------------

    Molecular point group: c1
  Charge       = 0
  Multiplicity = 1
  Basis Set: AUG-CC-PVTZ
    Blend: AUG-CC-PVTZ
  Basis Set: (AUG-CC-PVTZ AUX)
    Blend: AUG-CC-PVTZ-JKFIT

    Orbital Energies [Eh]
    ---------------------

    Doubly Occupied:

       1A    -20.574423     2A    -20.563568     3A    -11.353744
       4A    -11.351740     5A    -11.283058     6A    -11.278550
       7A    -11.257228     8A    -11.227411     9A     -1.395872
      10A     -1.394105    11A     -1.115332    12A     -1.071265
      13A     -0.955500    14A     -0.878992    15A     -0.801399
      16A     -0.755829    17A     -0.696747    18A     -0.686382
      19A     -0.644763    20A     -0.637437    21A     -0.630112
      22A     -0.574186    23A     -0.554926    24A     -0.546589
      25A     -0.536396    26A     -0.528770    27A     -0.499177
      28A     -0.451814    29A     -0.435675    30A     -0.405255

  @DF-RHF Final Energy:  -381.70262839956854

   => Energetics <=

    Nuclear Repulsion Energy =            331.1905787169293944
    One-Electron Energy =               -1175.6139234451777611
    Two-Electron Energy =                 462.7207163286798277
    Total Energy =                       -381.7026283995685390
  Basis Set: (AUG-CC-PVTZ AUX)
    Blend: AUG-CC-PVTZ-RI
    Molecular point group: c1

    Geometry (in Angstrom), charge = 0, multiplicity = 1:

       Center              X                  Y                   Z               Mass
    ------------   -----------------  -----------------  -----------------  -----------------
         O            1.193884478529    -1.323073407414    -0.011144930026    15.994914619570
         O           -3.789867221471    -0.177843507414    -0.030731030026    15.994914619570
         C            2.263628878529     0.819276592586     0.020434969974    12.000000000000
         C            3.583606778529     0.092836492586    -0.006144030026    12.000000000000
         C            1.064208778529    -0.099919507414     0.017109969974    12.000000000000
         C           -0.283394221471     0.542537492586     0.024064969974    12.000000000000
         C           -1.410932221471    -0.190134507414     0.001290969974    12.000000000000
         C           -2.735383221471     0.449129492586    -0.006680030026    12.000000000000
         H            2.174445778529     1.475590492586     0.905318969974     1.007825032230
         H            2.156063778529     1.507678492586    -0.839216030026     1.007825032230
         H            3.677435778529    -0.560862507414     0.862261969974     1.007825032230
         H            3.658898778529    -0.531304507414    -0.897759030026     1.007825032230
         H            4.415228778529     0.801102492586    -0.003102030026     1.007825032230
         H           -0.336034221471     1.631901492586     0.041464969974     1.007825032230
         H           -1.363351221471    -1.276560507414    -0.016312030026     1.007825032230
         H           -2.732148221471     1.558735492586     0.015688969974     1.007825032230

  Basis Set: AUG-CC-PVTZ
    Blend: AUG-CC-PVTZ
  Basis Set: (AUG-CC-PVTZ AUX)
    Blend: AUG-CC-PVTZ-JKFIT
	 Reference Energy          =    -381.7026283995685390 [Eh]
	 Singles Energy            =      -0.0000000000000000 [Eh]
	 Same-Spin Energy          =      -0.3775067786230001 [Eh]
	 Opposite-Spin Energy      =      -1.2239035162268077 [Eh]
	 Correlation Energy        =      -1.6014102948498077 [Eh]
	 Total Energy              =    -383.3040386944183524 [Eh]

	 ================> DF-SCS-MP2 Energies <==================
	-----------------------------------------------------------
	 SCS Same-Spin Scale       =       0.3333333333333333 [-]
	 SCS Opposite-Spin Scale   =       1.2000000000000000 [-]
	 SCS Same-Spin Energy      =      -0.1258355928743334 [Eh]
	 SCS Opposite-Spin Energy  =      -1.4686842194721692 [Eh]
	 SCS Correlation Energy    =      -1.5945198123465025 [Eh]
	 SCS Total Energy          =    -383.2971482119150437 [Eh]
	-----------------------------------------------------------

  Dipole Moment: [D]
     X:     2.7179      Y:     3.5113      Z:     0.0901     Total:     4.4412

*** Psi4 exiting successfully. Buy a developer a beer!
