                               Psi4 1.3.2 release

  ==> Input File <==

--------------------------------------------------------------------------
#psi4
#
memory 32 gb

molecule  {
0 1
  O        1.1855920    -1.3251230    -0.0110750
  O       -3.7649444    -0.2152235    -0.0312737
  C        2.2579520     0.8287430     0.0207180
  C        3.5859950     0.0918750    -0.0061980
  C        1.0665970    -0.1008810     0.0170560
  C       -0.2810060     0.5415760     0.0240110
  C       -1.4085440    -0.1910960     0.0012370
  C       -2.7329950     0.4481680    -0.0067340
  H        2.1768340     1.4746290     0.9052650
  H        2.1584520     1.5067170    -0.8392700
  H        3.6798240    -0.5618240     0.8622080
  H        3.6612870    -0.5322660    -0.8978130
  H        4.4176170     0.8001410    -0.0031560
  H       -0.3336460     1.6309400     0.0414110
  H       -1.3609630    -1.2775220    -0.0163660
  H       -2.6910317     1.5569767     0.0160388
units angstrom
no_reorient  #important for SAPT in psi4, default
symmetry c1  #important for SAPT in psi4, default
}

set PROPERTIES_ORIGIN ["COM"]
properties('MP2/aug-cc-pvtz', properties = ['dipole'])
--------------------------------------------------------------------------

    Molecular point group: c1
  Charge       = 0
  Multiplicity = 1
  Basis Set: AUG-CC-PVTZ
    Blend: AUG-CC-PVTZ
  Basis Set: (AUG-CC-PVTZ AUX)
    Blend: AUG-CC-PVTZ-JKFIT

    Orbital Energies [Eh]
    ---------------------

    Doubly Occupied:

       1A    -20.575377     2A    -20.563212     3A    -11.353157
       4A    -11.352487     5A    -11.280733     6A    -11.275915
       7A    -11.256502     8A    -11.227865     9A     -1.396516
      10A     -1.393598    11A     -1.114058    12A     -1.069820
      13A     -0.954521    14A     -0.879327    15A     -0.801791
      16A     -0.755686    17A     -0.695216    18A     -0.685930
      19A     -0.645614    20A     -0.636879    21A     -0.630779
      22A     -0.572325    23A     -0.555118    24A     -0.543538
      25A     -0.536565    26A     -0.528398    27A     -0.501586
      28A     -0.452624    29A     -0.435022    30A     -0.403678

  @DF-RHF Final Energy:  -381.70212520291977

   => Energetics <=

    Nuclear Repulsion Energy =            331.4024129224619628
    One-Electron Energy =               -1176.0614064720280112
    Two-Electron Energy =                 462.9568683466462744
    Total Energy =                       -381.7021252029197740
  Basis Set: (AUG-CC-PVTZ AUX)
    Blend: AUG-CC-PVTZ-RI
    Molecular point group: c1

    Geometry (in Angstrom), charge = 0, multiplicity = 1:

       Center              X                  Y                   Z               Mass
    ------------   -----------------  -----------------  -----------------  -----------------
         O            1.182027076968    -1.319917212081    -0.011008678798    15.994914619570
         O           -3.768509323032    -0.210017712081    -0.031207378798    15.994914619570
         C            2.254387076968     0.833948787919     0.020784321202    12.000000000000
         C            3.582430076968     0.097080787919    -0.006131678798    12.000000000000
         C            1.063032076968    -0.095675212081     0.017122321202    12.000000000000
         C           -0.284570923032     0.546781787919     0.024077321202    12.000000000000
         C           -1.412108923032    -0.185890212081     0.001303321202    12.000000000000
         C           -2.736559923032     0.453373787919    -0.006667678798    12.000000000000
         H            2.173269076968     1.479834787919     0.905331321202     1.007825032230
         H            2.154887076968     1.511922787919    -0.839203678798     1.007825032230
         H            3.676259076968    -0.556618212081     0.862274321202     1.007825032230
         H            3.657722076968    -0.527060212081    -0.897746678798     1.007825032230
         H            4.414052076968     0.805346787919    -0.003089678798     1.007825032230
         H           -0.337210923032     1.636145787919     0.041477321202     1.007825032230
         H           -1.364527923032    -1.272316212081    -0.016299678798     1.007825032230
         H           -2.694596623032     1.562182487919     0.016105121202     1.007825032230

  Basis Set: AUG-CC-PVTZ
    Blend: AUG-CC-PVTZ
  Basis Set: (AUG-CC-PVTZ AUX)
    Blend: AUG-CC-PVTZ-JKFIT
	 Reference Energy          =    -381.7021252029197740 [Eh]
	 Singles Energy            =      -0.0000000000000000 [Eh]
	 Same-Spin Energy          =      -0.3775218853995940 [Eh]
	 Opposite-Spin Energy      =      -1.2239381908496783 [Eh]
	 Correlation Energy        =      -1.6014600762492721 [Eh]
	 Total Energy              =    -383.3035852791690559 [Eh]

	 ================> DF-SCS-MP2 Energies <==================
	-----------------------------------------------------------
	 SCS Same-Spin Scale       =       0.3333333333333333 [-]
	 SCS Opposite-Spin Scale   =       1.2000000000000000 [-]
	 SCS Same-Spin Energy      =      -0.1258406284665313 [Eh]
	 SCS Opposite-Spin Energy  =      -1.4687258290196139 [Eh]
	 SCS Correlation Energy    =      -1.5945664574861453 [Eh]
	 SCS Total Energy          =    -383.2966916604059406 [Eh]
	-----------------------------------------------------------

  Dipole Moment: [D]
     X:     2.6698      Y:     3.5758      Z:     0.0906     Total:     4.4634

*** Psi4 exiting successfully. Buy a developer a beer!
