                               Psi4 1.3.2 release

  ==> Input File <==

--------------------------------------------------------------------------
#psi4
#
memory 32 gb

molecule  {
0 1
  O        1.1962735    -1.3240398    -0.0109846
  O       -3.7874790    -0.1788050    -0.0307850
  C        2.2579520     0.8287430     0.0207180
  C        3.5859950     0.0918750    -0.0061980
  C        1.0665970    -0.1008810     0.0170560
  C       -0.2753485     0.5533076     0.0243219
  C       -1.4085440    -0.1910960     0.0012370
  C       -2.7329950     0.4481680    -0.0067340
  H        2.1768340     1.4746290     0.9052650
  H        2.1584520     1.5067170    -0.8392700
  H        3.6798240    -0.5618240     0.8622080
  H        3.6612870    -0.5322660    -0.8978130
  H        4.4176170     0.8001410    -0.0031560
  H       -0.3336460     1.6309400     0.0414110
  H       -1.3609630    -1.2775220    -0.0163660
  H       -2.7297600     1.5577740     0.0156350
units angstrom
no_reorient  #important for SAPT in psi4, default
symmetry c1  #important for SAPT in psi4, default
}

set PROPERTIES_ORIGIN ["COM"]
properties('MP2/aug-cc-pvtz', properties = ['dipole'])
--------------------------------------------------------------------------

    Molecular point group: c1
  Charge       = 0
  Multiplicity = 1
  Basis Set: AUG-CC-PVTZ
    Blend: AUG-CC-PVTZ
  Basis Set: (AUG-CC-PVTZ AUX)
    Blend: AUG-CC-PVTZ-JKFIT

    Orbital Energies [Eh]
    ---------------------

    Doubly Occupied:

       1A    -20.574418     2A    -20.563999     3A    -11.353913
       4A    -11.351664     5A    -11.283454     6A    -11.280459
       7A    -11.256046     8A    -11.227613     9A     -1.395857
      10A     -1.394022    11A     -1.113842    12A     -1.069411
      13A     -0.955469    14A     -0.878760    15A     -0.801752
      16A     -0.756975    17A     -0.697103    18A     -0.685598
      19A     -0.645634    20A     -0.636849    21A     -0.630158
      22A     -0.576910    23A     -0.554437    24A     -0.542992
      25A     -0.536383    26A     -0.528259    27A     -0.501616
      28A     -0.451820    29A     -0.435632    30A     -0.403202

  @DF-RHF Final Energy:  -381.70221997316224

   => Energetics <=

    Nuclear Repulsion Energy =            331.0004439063934569
    One-Electron Energy =               -1175.2368291303491787
    Two-Electron Energy =                 462.5341652507934782
    Total Energy =                       -381.7022199731622436
  Basis Set: (AUG-CC-PVTZ AUX)
    Blend: AUG-CC-PVTZ-RI
    Molecular point group: c1

    Geometry (in Angstrom), charge = 0, multiplicity = 1:

       Center              X                  Y                   Z               Mass
    ------------   -----------------  -----------------  -----------------  -----------------
         O            1.194143000777    -1.325450729200    -0.011030605638    15.994914619570
         O           -3.789609499223    -0.180215929200    -0.030831005638    15.994914619570
         C            2.255821500777     0.827332070800     0.020671994362    12.000000000000
         C            3.583864500777     0.090464070800    -0.006244005638    12.000000000000
         C            1.064466500777    -0.102291929200     0.017009994362    12.000000000000
         C           -0.277478999223     0.551896670800     0.024275894362    12.000000000000
         C           -1.410674499223    -0.192506929200     0.001190994362    12.000000000000
         C           -2.735125499223     0.446757070800    -0.006780005638    12.000000000000
         H            2.174703500777     1.473218070800     0.905218994362     1.007825032230
         H            2.156321500777     1.505306070800    -0.839316005638     1.007825032230
         H            3.677693500777    -0.563234929200     0.862161994362     1.007825032230
         H            3.659156500777    -0.533676929200    -0.897859005638     1.007825032230
         H            4.415486500777     0.798730070800    -0.003202005638     1.007825032230
         H           -0.335776499223     1.629529070800     0.041364994362     1.007825032230
         H           -1.363093499223    -1.278932929200    -0.016412005638     1.007825032230
         H           -2.731890499223     1.556363070800     0.015588994362     1.007825032230

  Basis Set: AUG-CC-PVTZ
    Blend: AUG-CC-PVTZ
  Basis Set: (AUG-CC-PVTZ AUX)
    Blend: AUG-CC-PVTZ-JKFIT
	 Reference Energy          =    -381.7022199731622436 [Eh]
	 Singles Energy            =      -0.0000000000000000 [Eh]
	 Same-Spin Energy          =      -0.3775479819071161 [Eh]
	 Opposite-Spin Energy      =      -1.2241195935050313 [Eh]
	 Correlation Energy        =      -1.6016675754121474 [Eh]
	 Total Energy              =    -383.3038875485743802 [Eh]

	 ================> DF-SCS-MP2 Energies <==================
	-----------------------------------------------------------
	 SCS Same-Spin Scale       =       0.3333333333333333 [-]
	 SCS Opposite-Spin Scale   =       1.2000000000000000 [-]
	 SCS Same-Spin Energy      =      -0.1258493273023720 [Eh]
	 SCS Opposite-Spin Energy  =      -1.4689435122060375 [Eh]
	 SCS Correlation Energy    =      -1.5947928395084094 [Eh]
	 SCS Total Energy          =    -383.2970128126706300 [Eh]
	-----------------------------------------------------------

  Dipole Moment: [D]
     X:     2.6977      Y:     3.5153      Z:     0.0900     Total:     4.4321

*** Psi4 exiting successfully. Buy a developer a beer!
