                               Psi4 1.4a3.dev225

  ==> Input File <==

--------------------------------------------------------------------------
#psi4
#
memory 32 gb

molecule  {
0 1
  O        1.0820120     1.3681640     0.0000000
  O       -3.8882340     0.1997640    -0.0000030
  C        2.1679760    -0.7815440    -0.0000070
  C        3.4943680    -0.0370920     0.0000040
  C        0.9697220     0.1420900     0.0000000
  C       -0.3759970    -0.5069640     0.0000040
  C       -1.5077040     0.2230700     0.0000000
  C       -2.8479096    -0.4319693     0.0000020
  H        2.0818540    -1.4423830    -0.8738950
  H        2.0818510    -1.4424050     0.8738640
  H        3.5776630     0.6025590    -0.8807220
  H        3.5776700     0.6025230     0.8807550
  H        4.3292850    -0.7422630    -0.0000140
  H       -0.4236580    -1.5964830     0.0000100
  H       -1.4638710     1.3098110    -0.0000060
  H       -2.8215620    -1.5330200     0.0000110
units angstrom
no_reorient  #important for SAPT in psi4, default
symmetry c1  #important for SAPT in psi4, default
}

set PROPERTIES_ORIGIN ["COM"]
properties('MP2/aug-cc-pvtz', properties = ['dipole'])
--------------------------------------------------------------------------

    Molecular point group: c1
  Charge       = 0
  Multiplicity = 1
  Basis Set: AUG-CC-PVTZ
    Blend: AUG-CC-PVTZ
  Basis Set: (AUG-CC-PVTZ AUX)
    Blend: AUG-CC-PVTZ-JKFIT

    Orbital Energies [Eh]
    ---------------------

    Doubly Occupied:

       1A    -20.575381     2A    -20.562682     3A    -11.353174
       4A    -11.351887     5A    -11.280511     6A    -11.278327
       7A    -11.256618     8A    -11.228076     9A     -1.402696
      10A     -1.392619    11A     -1.111138    12A     -1.068297
      13A     -0.951473    14A     -0.877581    15A     -0.802750
      16A     -0.754536    17A     -0.695672    18A     -0.685652
      19A     -0.645094    20A     -0.637404    21A     -0.632036
      22A     -0.573139    23A     -0.556035    24A     -0.542980
      25A     -0.537378    26A     -0.527787    27A     -0.501532
      28A     -0.451500    29A     -0.434029    30A     -0.403868

  @DF-RHF Final Energy:  -381.70384751758650

   => Energetics <=

    Nuclear Repulsion Energy =            330.7311682625469871
    One-Electron Energy =               -1174.7263244380501419
    Two-Electron Energy =                 462.2913086579166020
    Total Energy =                       -381.7038475175864960
  Basis Set: (AUG-CC-PVTZ AUX)
    Blend: AUG-CC-PVTZ-RI
    Molecular point group: c1

    Geometry (in Angstrom), charge = 0, multiplicity = 1:

       Center              X                  Y                   Z               Mass
    ------------   -----------------  -----------------  -----------------  -----------------
         O            1.180671035777     1.331617619221     0.000000079974    15.994914619570
         O           -3.789574964223     0.163217619221    -0.000002920026    15.994914619570
         C            2.266635035777    -0.818090380779    -0.000006920026    12.000000000000
         C            3.593027035777    -0.073638380779     0.000004079974    12.000000000000
         C            1.068381035777     0.105543619221     0.000000079974    12.000000000000
         C           -0.277337964223    -0.543510380779     0.000004079974    12.000000000000
         C           -1.409044964223     0.186523619221     0.000000079974    12.000000000000
         C           -2.749250564223    -0.468515680779     0.000002079974    12.000000000000
         H            2.180513035777    -1.478929380779    -0.873894920026     1.007825032230
         H            2.180510035777    -1.478951380779     0.873864079974     1.007825032230
         H            3.676322035777     0.566012619221    -0.880721920026     1.007825032230
         H            3.676329035777     0.565976619221     0.880755079974     1.007825032230
         H            4.427944035777    -0.778809380779    -0.000013920026     1.007825032230
         H           -0.324998964223    -1.633029380779     0.000010079974     1.007825032230
         H           -1.365211964223     1.273264619221    -0.000005920026     1.007825032230
         H           -2.722902964223    -1.569566380779     0.000011079974     1.007825032230

  Basis Set: AUG-CC-PVTZ
    Blend: AUG-CC-PVTZ
  Basis Set: (AUG-CC-PVTZ AUX)
    Blend: AUG-CC-PVTZ-JKFIT
	 Reference Energy          =    -381.7038475175864960 [Eh]
	 Singles Energy            =      -0.0000000000000000 [Eh]
	 Same-Spin Energy          =      -0.3769180364913982 [Eh]
	 Opposite-Spin Energy      =      -1.2230489293099904 [Eh]
	 Correlation Energy        =      -1.5999669658013886 [Eh]
	 Total Energy              =    -383.3038144833878960 [Eh]

	 ================> DF-SCS-MP2 Energies <==================
	-----------------------------------------------------------
	 SCS Same-Spin Scale       =       0.3333333333333333 [-]
	 SCS Opposite-Spin Scale   =       1.2000000000000000 [-]
	 SCS Same-Spin Energy      =      -0.1256393454971327 [Eh]
	 SCS Opposite-Spin Energy  =      -1.4676587151719884 [Eh]
	 SCS Correlation Energy    =      -1.5932980606691212 [Eh]
	 SCS Total Energy          =    -383.2971455782555950 [Eh]
	-----------------------------------------------------------

  Dipole Moment: [D]
     X:     2.6397      Y:    -3.5246      Z:     0.0000     Total:     4.4035

*** Psi4 exiting successfully. Buy a developer a beer!
