                               Psi4 1.3.2 release

  ==> Input File <==

--------------------------------------------------------------------------
#psi4
#
memory 32 gb

molecule  {
0 1
  O        1.1855920    -1.3251230    -0.0110750
  O       -3.7763706    -0.1971125    -0.0310331
  C        2.2579520     0.8287430     0.0207180
  C        3.5859950     0.0918750    -0.0061980
  C        1.0665970    -0.1008810     0.0170560
  C       -0.2810060     0.5415760     0.0240110
  C       -1.4085440    -0.1910960     0.0012370
  C       -2.7329950     0.4481680    -0.0067340
  H        2.1768340     1.4746290     0.9052650
  H        2.1584520     1.5067170    -0.8392700
  H        3.6798240    -0.5618240     0.8622080
  H        3.6612870    -0.5322660    -0.8978130
  H        4.4176170     0.8001410    -0.0031560
  H       -0.3336460     1.6309400     0.0414110
  H       -1.3609630    -1.2775220    -0.0163660
  H       -2.7103924     1.5575443     0.0158403
units angstrom
no_reorient  #important for SAPT in psi4, default
symmetry c1  #important for SAPT in psi4, default
}

set PROPERTIES_ORIGIN ["COM"]
properties('MP2/aug-cc-pvtz', properties = ['dipole'])
--------------------------------------------------------------------------

    Molecular point group: c1
  Charge       = 0
  Multiplicity = 1
  Basis Set: AUG-CC-PVTZ
    Blend: AUG-CC-PVTZ
  Basis Set: (AUG-CC-PVTZ AUX)
    Blend: AUG-CC-PVTZ-JKFIT

    Orbital Energies [Eh]
    ---------------------

    Doubly Occupied:

       1A    -20.574706     2A    -20.563640     3A    -11.353545
       4A    -11.351919     5A    -11.281479     6A    -11.276930
       7A    -11.256767     8A    -11.228067     9A     -1.396004
      10A     -1.393925    11A     -1.114483    12A     -1.070088
      13A     -0.954675    14A     -0.879270    15A     -0.801538
      16A     -0.756002    17A     -0.695932    18A     -0.685900
      19A     -0.645866    20A     -0.636982    21A     -0.630467
      22A     -0.573015    23A     -0.554906    24A     -0.543739
      25A     -0.536551    26A     -0.528622    27A     -0.501836
      28A     -0.452178    29A     -0.435437    30A     -0.404204

  @DF-RHF Final Energy:  -381.70273519790715

   => Energetics <=

    Nuclear Repulsion Energy =            331.2677061277802295
    One-Electron Energy =               -1175.7835333239156625
    Two-Electron Energy =                 462.8130919982282876
    Total Energy =                       -381.7027351979071454
  Basis Set: (AUG-CC-PVTZ AUX)
    Blend: AUG-CC-PVTZ-RI
    Molecular point group: c1

    Geometry (in Angstrom), charge = 0, multiplicity = 1:

       Center              X                  Y                   Z               Mass
    ------------   -----------------  -----------------  -----------------  -----------------
         O            1.183832243465    -1.322507570375    -0.011041237871    15.994914619570
         O           -3.778130356535    -0.194497070375    -0.030999337871    15.994914619570
         C            2.256192243465     0.831358429625     0.020751762129    12.000000000000
         C            3.584235243465     0.094490429625    -0.006164237871    12.000000000000
         C            1.064837243465    -0.098265570375     0.017089762129    12.000000000000
         C           -0.282765756535     0.544191429625     0.024044762129    12.000000000000
         C           -1.410303756535    -0.188480570375     0.001270762129    12.000000000000
         C           -2.734754756535     0.450783429625    -0.006700237871    12.000000000000
         H            2.175074243465     1.477244429625     0.905298762129     1.007825032230
         H            2.156692243465     1.509332429625    -0.839236237871     1.007825032230
         H            3.678064243465    -0.559208570375     0.862241762129     1.007825032230
         H            3.659527243465    -0.529650570375    -0.897779237871     1.007825032230
         H            4.415857243465     0.802756429625    -0.003122237871     1.007825032230
         H           -0.335405756535     1.633555429625     0.041444762129     1.007825032230
         H           -1.362722756535    -1.274906570375    -0.016332237871     1.007825032230
         H           -2.712152156535     1.560159729625     0.015874062129     1.007825032230

  Basis Set: AUG-CC-PVTZ
    Blend: AUG-CC-PVTZ
  Basis Set: (AUG-CC-PVTZ AUX)
    Blend: AUG-CC-PVTZ-JKFIT
	 Reference Energy          =    -381.7027351979071454 [Eh]
	 Singles Energy            =      -0.0000000000000000 [Eh]
	 Same-Spin Energy          =      -0.3774631024038184 [Eh]
	 Opposite-Spin Energy      =      -1.2238713305652680 [Eh]
	 Correlation Energy        =      -1.6013344329690864 [Eh]
	 Total Energy              =    -383.3040696308762563 [Eh]

	 ================> DF-SCS-MP2 Energies <==================
	-----------------------------------------------------------
	 SCS Same-Spin Scale       =       0.3333333333333333 [-]
	 SCS Opposite-Spin Scale   =       1.2000000000000000 [-]
	 SCS Same-Spin Energy      =      -0.1258210341346061 [Eh]
	 SCS Opposite-Spin Energy  =      -1.4686455966783216 [Eh]
	 SCS Correlation Energy    =      -1.5944666308129278 [Eh]
	 SCS Total Energy          =    -383.2972018287200626 [Eh]
	-----------------------------------------------------------

  Dipole Moment: [D]
     X:     2.7099      Y:     3.5451      Z:     0.0903     Total:     4.4631

*** Psi4 exiting successfully. Buy a developer a beer!
