                               Psi4 1.3.2 release

  ==> Input File <==

--------------------------------------------------------------------------
#psi4
#
memory 32 gb

molecule  {
0 1
  O        1.1855920    -1.3251230    -0.0110750
  O       -3.7874790    -0.1788050    -0.0307850
  C        2.2579520     0.8287430     0.0207180
  C        3.5859950     0.0918750    -0.0061980
  C        1.0569252    -0.0013761     0.0193425
  C       -0.2810060     0.5415760     0.0240110
  C       -1.4085440    -0.1910960     0.0012370
  C       -2.7329950     0.4481680    -0.0067340
  H        2.1768340     1.4746290     0.9052650
  H        2.1584520     1.5067170    -0.8392700
  H        3.6798240    -0.5618240     0.8622080
  H        3.6612870    -0.5322660    -0.8978130
  H        4.4176170     0.8001410    -0.0031560
  H       -0.3336460     1.6309400     0.0414110
  H       -1.3609630    -1.2775220    -0.0163660
  H       -2.7297600     1.5577740     0.0156350
units angstrom
no_reorient  #important for SAPT in psi4, default
symmetry c1  #important for SAPT in psi4, default
}

set PROPERTIES_ORIGIN ["COM"]
properties('MP2/aug-cc-pvtz', properties = ['dipole'])
--------------------------------------------------------------------------

    Molecular point group: c1
  Charge       = 0
  Multiplicity = 1
  Basis Set: AUG-CC-PVTZ
    Blend: AUG-CC-PVTZ
  Basis Set: (AUG-CC-PVTZ AUX)
    Blend: AUG-CC-PVTZ-JKFIT

    Orbital Energies [Eh]
    ---------------------

    Doubly Occupied:

       1A    -20.578663     2A    -20.554654     3A    -11.358754
       4A    -11.355142     5A    -11.286163     6A    -11.283928
       7A    -11.260479     8A    -11.230387     9A     -1.399263
      10A     -1.333911    11A     -1.122035    12A     -1.079964
      13A     -0.968389    14A     -0.889134    15A     -0.807736
      16A     -0.756900    17A     -0.694937    18A     -0.687924
      19A     -0.649653    20A     -0.637116    21A     -0.616447
      22A     -0.565256    23A     -0.555032    24A     -0.547954
      25A     -0.530029    26A     -0.521437    27A     -0.484686
      28A     -0.452544    29A     -0.444259    30A     -0.399853

  @DF-RHF Final Energy:  -381.67680735953752

   => Energetics <=

    Nuclear Repulsion Energy =            330.6283477263618806
    One-Electron Energy =               -1174.5050552583340959
    Two-Electron Energy =                 462.1999001724346954
    Total Energy =                       -381.6768073595375199
  Basis Set: (AUG-CC-PVTZ AUX)
    Blend: AUG-CC-PVTZ-RI
    Molecular point group: c1

    Geometry (in Angstrom), charge = 0, multiplicity = 1:

       Center              X                  Y                   Z               Mass
    ------------   -----------------  -----------------  -----------------  -----------------
         O            1.186627887103    -1.335779189772    -0.011319673885    15.994914619570
         O           -3.786443112897    -0.189461189772    -0.031029673885    15.994914619570
         C            2.258987887103     0.818086810228     0.020473326115    12.000000000000
         C            3.587030887103     0.081218810228    -0.006442673885    12.000000000000
         C            1.057961087103    -0.012032289772     0.019097826115    12.000000000000
         C           -0.279970112897     0.530919810228     0.023766326115    12.000000000000
         C           -1.407508112897    -0.201752189772     0.000992326115    12.000000000000
         C           -2.731959112897     0.437511810228    -0.006978673885    12.000000000000
         H            2.177869887103     1.463972810228     0.905020326115     1.007825032230
         H            2.159487887103     1.496060810228    -0.839514673885     1.007825032230
         H            3.680859887103    -0.572480189772     0.861963326115     1.007825032230
         H            3.662322887103    -0.542922189772    -0.898057673885     1.007825032230
         H            4.418652887103     0.789484810228    -0.003400673885     1.007825032230
         H           -0.332610112897     1.620283810228     0.041166326115     1.007825032230
         H           -1.359927112897    -1.288178189772    -0.016610673885     1.007825032230
         H           -2.728724112897     1.547117810228     0.015390326115     1.007825032230

  Basis Set: AUG-CC-PVTZ
    Blend: AUG-CC-PVTZ
  Basis Set: (AUG-CC-PVTZ AUX)
    Blend: AUG-CC-PVTZ-JKFIT
	 Reference Energy          =    -381.6768073595375199 [Eh]
	 Singles Energy            =      -0.0000000000000000 [Eh]
	 Same-Spin Energy          =      -0.3811798685767863 [Eh]
	 Opposite-Spin Energy      =      -1.2314161555656289 [Eh]
	 Correlation Energy        =      -1.6125960241424151 [Eh]
	 Total Energy              =    -383.2894033836799395 [Eh]

	 ================> DF-SCS-MP2 Energies <==================
	-----------------------------------------------------------
	 SCS Same-Spin Scale       =       0.3333333333333333 [-]
	 SCS Opposite-Spin Scale   =       1.2000000000000000 [-]
	 SCS Same-Spin Energy      =      -0.1270599561922621 [Eh]
	 SCS Opposite-Spin Energy  =      -1.4776993866787547 [Eh]
	 SCS Correlation Energy    =      -1.6047593428710167 [Eh]
	 SCS Total Energy          =    -383.2815667024085542 [Eh]
	-----------------------------------------------------------

  Dipole Moment: [D]
     X:     2.7359      Y:     3.7819      Z:     0.0920     Total:     4.6687

*** Psi4 exiting successfully. Buy a developer a beer!
