                               Psi4 1.3.2 release

  ==> Input File <==

--------------------------------------------------------------------------
#psi4
#
memory 32 gb

molecule  {
0 1
  O        1.1855920    -1.3251230    -0.0110750
  O       -3.7874790    -0.1788050    -0.0307850
  C        2.2579520     0.8287430     0.0207180
  C        3.5859950     0.0918750    -0.0061980
  C        1.0665970    -0.1008810     0.0170560
  C       -0.2746537     0.5317077     0.0239641
  C       -1.4085440    -0.1910960     0.0012370
  C       -2.7385214     0.4365867    -0.0069457
  H        2.1768340     1.4746290     0.9052650
  H        2.1584520     1.5067170    -0.8392700
  H        3.6798240    -0.5618240     0.8622080
  H        3.6612870    -0.5322660    -0.8978130
  H        4.4176170     0.8001410    -0.0031560
  H       -0.3336460     1.6309400     0.0414110
  H       -1.3609630    -1.2775220    -0.0163660
  H       -2.7297600     1.5577740     0.0156350
units angstrom
no_reorient  #important for SAPT in psi4, default
symmetry c1  #important for SAPT in psi4, default
}

set PROPERTIES_ORIGIN ["COM"]
properties('MP2/aug-cc-pvtz', properties = ['dipole'])
--------------------------------------------------------------------------

    Molecular point group: c1
  Charge       = 0
  Multiplicity = 1
  Basis Set: AUG-CC-PVTZ
    Blend: AUG-CC-PVTZ
  Basis Set: (AUG-CC-PVTZ AUX)
    Blend: AUG-CC-PVTZ-JKFIT

    Orbital Energies [Eh]
    ---------------------

    Doubly Occupied:

       1A    -20.574974     2A    -20.563621     3A    -11.353092
       4A    -11.351440     5A    -11.282295     6A    -11.277771
       7A    -11.256914     8A    -11.228165     9A     -1.402939
      10A     -1.394526    11A     -1.114744    12A     -1.070211
      13A     -0.955820    14A     -0.879023    15A     -0.799017
      16A     -0.756380    17A     -0.696492    18A     -0.686245
      19A     -0.646083    20A     -0.639602    21A     -0.631325
      22A     -0.570709    23A     -0.557668    24A     -0.543721
      25A     -0.538280    26A     -0.528783    27A     -0.502062
      28A     -0.450443    29A     -0.436336    30A     -0.404992

  @DF-RHF Final Energy:  -381.70351942318752

   => Energetics <=

    Nuclear Repulsion Energy =            331.3687915592500417
    One-Electron Energy =               -1175.9572737715072890
    Two-Electron Energy =                 462.8849627890697889
    Total Energy =                       -381.7035194231875153
  Basis Set: (AUG-CC-PVTZ AUX)
    Blend: AUG-CC-PVTZ-RI
    Molecular point group: c1

    Geometry (in Angstrom), charge = 0, multiplicity = 1:

       Center              X                  Y                   Z               Mass
    ------------   -----------------  -----------------  -----------------  -----------------
         O            1.185503659805    -1.322825842785    -0.011047112191    15.994914619570
         O           -3.787567340195    -0.176507842785    -0.030757112191    15.994914619570
         C            2.257863659805     0.831040157215     0.020745887809    12.000000000000
         C            3.585906659805     0.094172157215    -0.006170112191    12.000000000000
         C            1.066508659805    -0.098583842785     0.017083887809    12.000000000000
         C           -0.274742040195     0.534004857215     0.023991987809    12.000000000000
         C           -1.408632340195    -0.188798842785     0.001264887809    12.000000000000
         C           -2.738609740195     0.438883857215    -0.006917812191    12.000000000000
         H            2.176745659805     1.476926157215     0.905292887809     1.007825032230
         H            2.158363659805     1.509014157215    -0.839242112191     1.007825032230
         H            3.679735659805    -0.559526842785     0.862235887809     1.007825032230
         H            3.661198659805    -0.529968842785    -0.897785112191     1.007825032230
         H            4.417528659805     0.802438157215    -0.003128112191     1.007825032230
         H           -0.333734340195     1.633237157215     0.041438887809     1.007825032230
         H           -1.361051340195    -1.275224842785    -0.016338112191     1.007825032230
         H           -2.729848340195     1.560071157215     0.015662887809     1.007825032230

  Basis Set: AUG-CC-PVTZ
    Blend: AUG-CC-PVTZ
  Basis Set: (AUG-CC-PVTZ AUX)
    Blend: AUG-CC-PVTZ-JKFIT
	 Reference Energy          =    -381.7035194231875153 [Eh]
	 Singles Energy            =      -0.0000000000000000 [Eh]
	 Same-Spin Energy          =      -0.3772522143923819 [Eh]
	 Opposite-Spin Energy      =      -1.2233264043586376 [Eh]
	 Correlation Energy        =      -1.6005786187510194 [Eh]
	 Total Energy              =    -383.3040980419385164 [Eh]

	 ================> DF-SCS-MP2 Energies <==================
	-----------------------------------------------------------
	 SCS Same-Spin Scale       =       0.3333333333333333 [-]
	 SCS Opposite-Spin Scale   =       1.2000000000000000 [-]
	 SCS Same-Spin Energy      =      -0.1257507381307940 [Eh]
	 SCS Opposite-Spin Energy  =      -1.4679916852303652 [Eh]
	 SCS Correlation Energy    =      -1.5937424233611592 [Eh]
	 SCS Total Energy          =    -383.2972618465486789 [Eh]
	-----------------------------------------------------------

  Dipole Moment: [D]
     X:     2.7073      Y:     3.4679      Z:     0.0887     Total:     4.4004

*** Psi4 exiting successfully. Buy a developer a beer!
