                               Psi4 1.3.2 release

  ==> Input File <==

--------------------------------------------------------------------------
#psi4
#
memory 32 gb

molecule  {
0 1
  O        1.1855920    -1.3251230    -0.0110750
  O       -3.7874790    -0.1788050    -0.0307850
  C        2.2579520     0.8287430     0.0207180
  C        3.5859950     0.0918750    -0.0061980
  C        1.0754953    -0.1118226    -0.0052305
  C       -0.2810060     0.5415760     0.0240110
  C       -1.4085440    -0.1910960     0.0012370
  C       -2.7329950     0.4481680    -0.0067340
  H        2.1931705     1.4832973     0.9002260
  H        2.1584520     1.5067170    -0.8392700
  H        3.6798240    -0.5618240     0.8622080
  H        3.6612870    -0.5322660    -0.8978130
  H        4.4176170     0.8001410    -0.0031560
  H       -0.3336460     1.6309400     0.0414110
  H       -1.3609630    -1.2775220    -0.0163660
  H       -2.7297600     1.5577740     0.0156350
units angstrom
no_reorient  #important for SAPT in psi4, default
symmetry c1  #important for SAPT in psi4, default
}

set PROPERTIES_ORIGIN ["COM"]
properties('MP2/aug-cc-pvtz', properties = ['dipole'])
--------------------------------------------------------------------------

    Molecular point group: c1
  Charge       = 0
  Multiplicity = 1
  Basis Set: AUG-CC-PVTZ
    Blend: AUG-CC-PVTZ
  Basis Set: (AUG-CC-PVTZ AUX)
    Blend: AUG-CC-PVTZ-JKFIT

    Orbital Energies [Eh]
    ---------------------

    Doubly Occupied:

       1A    -20.572905     2A    -20.565695     3A    -11.354005
       4A    -11.350456     5A    -11.281832     6A    -11.276304
       7A    -11.256788     8A    -11.228259     9A     -1.403293
      10A     -1.394202    11A     -1.113006    12A     -1.070597
      13A     -0.952288    14A     -0.878177    15A     -0.800065
      16A     -0.756444    17A     -0.697656    18A     -0.685376
      19A     -0.646393    20A     -0.639532    21A     -0.630290
      22A     -0.573779    23A     -0.555086    24A     -0.544151
      25A     -0.537936    26A     -0.529475    27A     -0.503407
      28A     -0.451261    29A     -0.434438    30A     -0.404484

  @DF-RHF Final Energy:  -381.70395345763757

   => Energetics <=

    Nuclear Repulsion Energy =            331.1768223993869924
    One-Electron Energy =               -1175.5863933603463920
    Two-Electron Energy =                 462.7056175033218324
    Total Energy =                       -381.7039534576375672
  Basis Set: (AUG-CC-PVTZ AUX)
    Blend: AUG-CC-PVTZ-RI
    Molecular point group: c1

    Geometry (in Angstrom), charge = 0, multiplicity = 1:

       Center              X                  Y                   Z               Mass
    ------------   -----------------  -----------------  -----------------  -----------------
         O            1.184492230297    -1.324029137799    -0.008642762446    15.994914619570
         O           -3.788578769703    -0.177711137799    -0.028352762446    15.994914619570
         C            2.256852230297     0.829836862201     0.023150237554    12.000000000000
         C            3.584895230297     0.092968862201    -0.003765762446    12.000000000000
         C            1.074395530297    -0.110728737799    -0.002798262446    12.000000000000
         C           -0.282105769703     0.542669862201     0.026443237554    12.000000000000
         C           -1.409643769703    -0.190002137799     0.003669237554    12.000000000000
         C           -2.734094769703     0.449261862201    -0.004301762446    12.000000000000
         H            2.192070730297     1.484391162201     0.902658237554     1.007825032230
         H            2.157352230297     1.507810862201    -0.836837762446     1.007825032230
         H            3.678724230297    -0.560730137799     0.864640237554     1.007825032230
         H            3.660187230297    -0.531172137799    -0.895380762446     1.007825032230
         H            4.416517230297     0.801234862201    -0.000723762446     1.007825032230
         H           -0.334745769703     1.632033862201     0.043843237554     1.007825032230
         H           -1.362062769703    -1.276428137799    -0.013933762446     1.007825032230
         H           -2.730859769703     1.558867862201     0.018067237554     1.007825032230

  Basis Set: AUG-CC-PVTZ
    Blend: AUG-CC-PVTZ
  Basis Set: (AUG-CC-PVTZ AUX)
    Blend: AUG-CC-PVTZ-JKFIT
	 Reference Energy          =    -381.7039534576375672 [Eh]
	 Singles Energy            =      -0.0000000000000000 [Eh]
	 Same-Spin Energy          =      -0.3770256270500248 [Eh]
	 Opposite-Spin Energy      =      -1.2230271327108655 [Eh]
	 Correlation Energy        =      -1.6000527597608905 [Eh]
	 Total Energy              =    -383.3040062173984666 [Eh]

	 ================> DF-SCS-MP2 Energies <==================
	-----------------------------------------------------------
	 SCS Same-Spin Scale       =       0.3333333333333333 [-]
	 SCS Opposite-Spin Scale   =       1.2000000000000000 [-]
	 SCS Same-Spin Energy      =      -0.1256752090166749 [Eh]
	 SCS Opposite-Spin Energy  =      -1.4676325592530386 [Eh]
	 SCS Correlation Energy    =      -1.5933077682697134 [Eh]
	 SCS Total Energy          =    -383.2972612259072775 [Eh]
	-----------------------------------------------------------

  Dipole Moment: [D]
     X:     2.8162      Y:     3.4812      Z:     0.0769     Total:     4.4783

*** Psi4 exiting successfully. Buy a developer a beer!
