                               Psi4 1.3.2 release

  ==> Input File <==

--------------------------------------------------------------------------
#psi4
#
memory 32 gb

molecule  {
0 1
  O        1.1855920    -1.3251230    -0.0110750
  O       -3.7874790    -0.1788050    -0.0307850
  C        2.2579520     0.8287430     0.0207180
  C        3.5859950     0.0918750    -0.0061980
  C        1.2242734     0.0221552     0.0175407
  C       -0.2810060     0.5415760     0.0240110
  C       -1.4085440    -0.1910960     0.0012370
  C       -2.7329950     0.4481680    -0.0067340
  H        2.1768340     1.4746290     0.9052650
  H        2.1584520     1.5067170    -0.8392700
  H        3.6798240    -0.5618240     0.8622080
  H        3.6612870    -0.5322660    -0.8978130
  H        4.4176170     0.8001410    -0.0031560
  H       -0.3336460     1.6309400     0.0414110
  H       -1.3609630    -1.2775220    -0.0163660
  H       -2.7297600     1.5577740     0.0156350
units angstrom
no_reorient  #important for SAPT in psi4, default
symmetry c1  #important for SAPT in psi4, default
}

set PROPERTIES_ORIGIN ["COM"]
properties('MP2/aug-cc-pvtz', properties = ['dipole'])
--------------------------------------------------------------------------

    Molecular point group: c1
  Charge       = 0
  Multiplicity = 1
  Basis Set: AUG-CC-PVTZ
    Blend: AUG-CC-PVTZ
  Basis Set: (AUG-CC-PVTZ AUX)
    Blend: AUG-CC-PVTZ-JKFIT

    Orbital Energies [Eh]
    ---------------------

    Doubly Occupied:

       1A    -20.567341     2A    -20.556625     3A    -11.367847
       4A    -11.346555     5A    -11.288698     6A    -11.270329
       7A    -11.262943     8A    -11.240215     9A     -1.389219
      10A     -1.328622    11A     -1.136329    12A     -1.092464
      13A     -0.962649    14A     -0.887655    15A     -0.796356
      16A     -0.756235    17A     -0.696962    18A     -0.679946
      19A     -0.674974    20A     -0.632343    21A     -0.619148
      22A     -0.567633    23A     -0.548742    24A     -0.547553
      25A     -0.538514    26A     -0.523766    27A     -0.473513
      28A     -0.444806    29A     -0.436351    30A     -0.394461

  @DF-RHF Final Energy:  -381.63427724294911

   => Energetics <=

    Nuclear Repulsion Energy =            330.4738975580131637
    One-Electron Energy =               -1174.1587620200064066
    Two-Electron Energy =                 462.0505872190441323
    Total Energy =                       -381.6342772429491106
  Basis Set: (AUG-CC-PVTZ AUX)
    Blend: AUG-CC-PVTZ-RI
    Molecular point group: c1

    Geometry (in Angstrom), charge = 0, multiplicity = 1:

       Center              X                  Y                   Z               Mass
    ------------   -----------------  -----------------  -----------------  -----------------
         O            1.168706112367    -1.338299220808    -0.011126714214    15.994914619570
         O           -3.804364887633    -0.191981220808    -0.030836714214    15.994914619570
         C            2.241066112367     0.815566779192     0.020666285786    12.000000000000
         C            3.569109112367     0.078698779192    -0.006249714214    12.000000000000
         C            1.207387512367     0.008978979192     0.017488985786    12.000000000000
         C           -0.297891887633     0.528399779192     0.023959285786    12.000000000000
         C           -1.425429887633    -0.204272220808     0.001185285786    12.000000000000
         C           -2.749880887633     0.434991779192    -0.006785714214    12.000000000000
         H            2.159948112367     1.461452779192     0.905213285786     1.007825032230
         H            2.141566112367     1.493540779192    -0.839321714214     1.007825032230
         H            3.662938112367    -0.575000220808     0.862156285786     1.007825032230
         H            3.644401112367    -0.545442220808    -0.897864714214     1.007825032230
         H            4.400731112367     0.786964779192    -0.003207714214     1.007825032230
         H           -0.350531887633     1.617763779192     0.041359285786     1.007825032230
         H           -1.377848887633    -1.290698220808    -0.016417714214     1.007825032230
         H           -2.746645887633     1.544597779192     0.015583285786     1.007825032230

  Basis Set: AUG-CC-PVTZ
    Blend: AUG-CC-PVTZ
  Basis Set: (AUG-CC-PVTZ AUX)
    Blend: AUG-CC-PVTZ-JKFIT
	 Reference Energy          =    -381.6342772429491106 [Eh]
	 Singles Energy            =      -0.0000000000000000 [Eh]
	 Same-Spin Energy          =      -0.3829935329822600 [Eh]
	 Opposite-Spin Energy      =      -1.2343844200807061 [Eh]
	 Correlation Energy        =      -1.6173779530629662 [Eh]
	 Total Energy              =    -383.2516551960120523 [Eh]

	 ================> DF-SCS-MP2 Energies <==================
	-----------------------------------------------------------
	 SCS Same-Spin Scale       =       0.3333333333333333 [-]
	 SCS Opposite-Spin Scale   =       1.2000000000000000 [-]
	 SCS Same-Spin Energy      =      -0.1276645109940867 [Eh]
	 SCS Opposite-Spin Energy  =      -1.4812613040968474 [Eh]
	 SCS Correlation Energy    =      -1.6089258150909340 [Eh]
	 SCS Total Energy          =    -383.2432030580400237 [Eh]
	-----------------------------------------------------------

  Dipole Moment: [D]
     X:     3.8578      Y:     3.9965      Z:     0.0941     Total:     5.5555

*** Psi4 exiting successfully. Buy a developer a beer!
