                               Psi4 1.3.2 release

  ==> Input File <==

--------------------------------------------------------------------------
#psi4
#
memory 32 gb

molecule  {
0 1
  O        1.1855920    -1.3251230    -0.0110750
  O       -3.7874790    -0.1788050    -0.0307850
  C        2.2579520     0.8287430     0.0207180
  C        3.5859950     0.0918750    -0.0061980
  C        1.0665970    -0.1008810     0.0170560
  C       -0.2683866     0.5217860     0.0238008
  C       -1.4085440    -0.1910960     0.0012370
  C       -2.7329950     0.4481680    -0.0067340
  H        2.1768340     1.4746290     0.9052650
  H        2.1584520     1.5067170    -0.8392700
  H        3.6798240    -0.5618240     0.8622080
  H        3.6612870    -0.5322660    -0.8978130
  H        4.4176170     0.8001410    -0.0031560
  H       -0.3336460     1.6309400     0.0414110
  H       -1.3420078    -1.2765292    -0.0161713
  H       -2.7297600     1.5577740     0.0156350
units angstrom
no_reorient  #important for SAPT in psi4, default
symmetry c1  #important for SAPT in psi4, default
}

set PROPERTIES_ORIGIN ["COM"]
properties('MP2/aug-cc-pvtz', properties = ['dipole'])
--------------------------------------------------------------------------

    Molecular point group: c1
  Charge       = 0
  Multiplicity = 1
  Basis Set: AUG-CC-PVTZ
    Blend: AUG-CC-PVTZ
  Basis Set: (AUG-CC-PVTZ AUX)
    Blend: AUG-CC-PVTZ-JKFIT

    Orbital Energies [Eh]
    ---------------------

    Doubly Occupied:

       1A    -20.575196     2A    -20.563563     3A    -11.352768
       4A    -11.352432     5A    -11.282229     6A    -11.278275
       7A    -11.257002     8A    -11.228234     9A     -1.396469
      10A     -1.394714    11A     -1.115461    12A     -1.070401
      13A     -0.957235    14A     -0.879942    15A     -0.801681
      16A     -0.755802    17A     -0.697080    18A     -0.685670
      19A     -0.646272    20A     -0.638531    21A     -0.630639
      22A     -0.567829    23A     -0.555563    24A     -0.543533
      25A     -0.537026    26A     -0.528904    27A     -0.502162
      28A     -0.452482    29A     -0.437623    30A     -0.404316

  @DF-RHF Final Energy:  -381.70185999240152

   => Energetics <=

    Nuclear Repulsion Energy =            331.3848405247222217
    One-Electron Energy =               -1175.9953320869312847
    Two-Electron Energy =                 462.9086315698075396
    Total Energy =                       -381.7018599924015234
  Basis Set: (AUG-CC-PVTZ AUX)
    Blend: AUG-CC-PVTZ-RI
    Molecular point group: c1

    Geometry (in Angstrom), charge = 0, multiplicity = 1:

       Center              X                  Y                   Z               Mass
    ------------   -----------------  -----------------  -----------------  -----------------
         O            1.184070174375    -1.323012503340    -0.011054046655    15.994914619570
         O           -3.789000825625    -0.176694503340    -0.030764046655    15.994914619570
         C            2.256430174375     0.830853496660     0.020738953345    12.000000000000
         C            3.584473174375     0.093985496660    -0.006177046655    12.000000000000
         C            1.065075174375    -0.098770503340     0.017076953345    12.000000000000
         C           -0.269908425625     0.523896496660     0.023821753345    12.000000000000
         C           -1.410065825625    -0.188985503340     0.001257953345    12.000000000000
         C           -2.734516825625     0.450278496660    -0.006713046655    12.000000000000
         H            2.175312174375     1.476739496660     0.905285953345     1.007825032230
         H            2.156930174375     1.508827496660    -0.839249046655     1.007825032230
         H            3.678302174375    -0.559713503340     0.862228953345     1.007825032230
         H            3.659765174375    -0.530155503340    -0.897792046655     1.007825032230
         H            4.416095174375     0.802251496660    -0.003135046655     1.007825032230
         H           -0.335167825625     1.633050496660     0.041431953345     1.007825032230
         H           -1.343529625625    -1.274418703340    -0.016150346655     1.007825032230
         H           -2.731281825625     1.559884496660     0.015655953345     1.007825032230

  Basis Set: AUG-CC-PVTZ
    Blend: AUG-CC-PVTZ
  Basis Set: (AUG-CC-PVTZ AUX)
    Blend: AUG-CC-PVTZ-JKFIT
	 Reference Energy          =    -381.7018599924015234 [Eh]
	 Singles Energy            =      -0.0000000000000000 [Eh]
	 Same-Spin Energy          =      -0.3776358017238362 [Eh]
	 Opposite-Spin Energy      =      -1.2241609090839458 [Eh]
	 Correlation Energy        =      -1.6017967108077820 [Eh]
	 Total Energy              =    -383.3036567032092989 [Eh]

	 ================> DF-SCS-MP2 Energies <==================
	-----------------------------------------------------------
	 SCS Same-Spin Scale       =       0.3333333333333333 [-]
	 SCS Opposite-Spin Scale   =       1.2000000000000000 [-]
	 SCS Same-Spin Energy      =      -0.1258786005746120 [Eh]
	 SCS Opposite-Spin Energy  =      -1.4689930909007349 [Eh]
	 SCS Correlation Energy    =      -1.5948716914753469 [Eh]
	 SCS Total Energy          =    -383.2967316838768852 [Eh]
	-----------------------------------------------------------

  Dipole Moment: [D]
     X:     2.7175      Y:     3.5084      Z:     0.0897     Total:     4.4387

*** Psi4 exiting successfully. Buy a developer a beer!
