                               Psi4 1.3.2 release

  ==> Input File <==

--------------------------------------------------------------------------
#psi4
#
memory 32 gb

molecule  {
0 1
  O        1.1855920    -1.3251230    -0.0110750
  O       -3.7874790    -0.1788050    -0.0307850
  C        2.2579520     0.8287430     0.0207180
  C        3.5594586     0.0459756    -0.0067200
  C        1.0997616    -0.1418824     0.0159887
  C       -0.2810060     0.5415760     0.0240110
  C       -1.4085440    -0.1910960     0.0012370
  C       -2.7329950     0.4481680    -0.0067340
  H        2.1768340     1.4746290     0.9052650
  H        2.1584520     1.5067170    -0.8392700
  H        3.6798240    -0.5618240     0.8622080
  H        3.6612870    -0.5322660    -0.8978130
  H        4.4176170     0.8001410    -0.0031560
  H       -0.3336460     1.6309400     0.0414110
  H       -1.3609630    -1.2775220    -0.0163660
  H       -2.7297600     1.5577740     0.0156350
units angstrom
no_reorient  #important for SAPT in psi4, default
symmetry c1  #important for SAPT in psi4, default
}

set PROPERTIES_ORIGIN ["COM"]
properties('MP2/aug-cc-pvtz', properties = ['dipole'])
--------------------------------------------------------------------------

    Molecular point group: c1
  Charge       = 0
  Multiplicity = 1
  Basis Set: AUG-CC-PVTZ
    Blend: AUG-CC-PVTZ
  Basis Set: (AUG-CC-PVTZ AUX)
    Blend: AUG-CC-PVTZ-JKFIT

    Orbital Energies [Eh]
    ---------------------

    Doubly Occupied:

       1A    -20.569725     2A    -20.569005     3A    -11.352339
       4A    -11.347828     5A    -11.279785     6A    -11.271641
       7A    -11.257162     8A    -11.229471     9A     -1.426558
      10A     -1.391426    11A     -1.107905    12A     -1.072104
      13A     -0.945786    14A     -0.876021    15A     -0.796680
      16A     -0.756056    17A     -0.699054    18A     -0.683452
      19A     -0.653131    20A     -0.645659    21A     -0.629121
      22A     -0.572957    23A     -0.562883    24A     -0.541731
      25A     -0.539491    26A     -0.525503    27A     -0.514756
      28A     -0.449381    29A     -0.427370    30A     -0.403148

  @DF-RHF Final Energy:  -381.70098400609783

   => Energetics <=

    Nuclear Repulsion Energy =            331.6905621708892795
    One-Electron Energy =               -1176.5888310067145994
    Two-Electron Energy =                 463.1972848297274936
    Total Energy =                       -381.7009840060978263
  Basis Set: (AUG-CC-PVTZ AUX)
    Blend: AUG-CC-PVTZ-RI
    Molecular point group: c1

    Geometry (in Angstrom), charge = 0, multiplicity = 1:

       Center              X                  Y                   Z               Mass
    ------------   -----------------  -----------------  -----------------  -----------------
         O            1.184882275688    -1.315816495433    -0.010904603902    15.994914619570
         O           -3.788188724312    -0.169498495433    -0.030614603902    15.994914619570
         C            2.257242275688     0.838049504567     0.020888396098    12.000000000000
         C            3.558748875688     0.055282104567    -0.006549603902    12.000000000000
         C            1.099051875688    -0.132575895433     0.016159096098    12.000000000000
         C           -0.281715724312     0.550882504567     0.024181396098    12.000000000000
         C           -1.409253724312    -0.181789495433     0.001407396098    12.000000000000
         C           -2.733704724312     0.457474504567    -0.006563603902    12.000000000000
         H            2.176124275688     1.483935504567     0.905435396098     1.007825032230
         H            2.157742275688     1.516023504567    -0.839099603902     1.007825032230
         H            3.679114275688    -0.552517495433     0.862378396098     1.007825032230
         H            3.660577275688    -0.522959495433    -0.897642603902     1.007825032230
         H            4.416907275688     0.809447504567    -0.002985603902     1.007825032230
         H           -0.334355724312     1.640246504567     0.041581396098     1.007825032230
         H           -1.361672724312    -1.268215495433    -0.016195603902     1.007825032230
         H           -2.730469724312     1.567080504567     0.015805396098     1.007825032230

  Basis Set: AUG-CC-PVTZ
    Blend: AUG-CC-PVTZ
  Basis Set: (AUG-CC-PVTZ AUX)
    Blend: AUG-CC-PVTZ-JKFIT
	 Reference Energy          =    -381.7009840060978263 [Eh]
	 Singles Energy            =      -0.0000000000000000 [Eh]
	 Same-Spin Energy          =      -0.3761723778435944 [Eh]
	 Opposite-Spin Energy      =      -1.2211998782645292 [Eh]
	 Correlation Energy        =      -1.5973722561081236 [Eh]
	 Total Energy              =    -383.2983562622059708 [Eh]

	 ================> DF-SCS-MP2 Energies <==================
	-----------------------------------------------------------
	 SCS Same-Spin Scale       =       0.3333333333333333 [-]
	 SCS Opposite-Spin Scale   =       1.2000000000000000 [-]
	 SCS Same-Spin Energy      =      -0.1253907926145315 [Eh]
	 SCS Opposite-Spin Energy  =      -1.4654398539174351 [Eh]
	 SCS Correlation Energy    =      -1.5908306465319666 [Eh]
	 SCS Total Energy          =    -383.2918146526297960 [Eh]
	-----------------------------------------------------------

  Dipole Moment: [D]
     X:     3.0038      Y:     3.3567      Z:     0.0888     Total:     4.5054

*** Psi4 exiting successfully. Buy a developer a beer!
