                               Psi4 1.3.2 release

  ==> Input File <==

--------------------------------------------------------------------------
#psi4
#
memory 32 gb

molecule  {
0 1
  O        1.1855920    -1.3251230    -0.0110750
  O       -3.7874790    -0.1788050    -0.0307850
  C        2.2579520     0.8287430     0.0207180
  C        3.6734231     0.0433653    -0.0079699
  C        1.0665970    -0.1008810     0.0170560
  C       -0.2810060     0.5415760     0.0240110
  C       -1.4085440    -0.1910960     0.0012370
  C       -2.7329950     0.4481680    -0.0067340
  H        2.1768340     1.4746290     0.9052650
  H        2.1584520     1.5067170    -0.8392700
  H        3.6798240    -0.5618240     0.8622080
  H        3.6612870    -0.5322660    -0.8978130
  H        4.4176170     0.8001410    -0.0031560
  H       -0.3336460     1.6309400     0.0414110
  H       -1.3609630    -1.2775220    -0.0163660
  H       -2.7297600     1.5577740     0.0156350
units angstrom
no_reorient  #important for SAPT in psi4, default
symmetry c1  #important for SAPT in psi4, default
}

set PROPERTIES_ORIGIN ["COM"]
properties('MP2/aug-cc-pvtz', properties = ['dipole'])
--------------------------------------------------------------------------

    Molecular point group: c1
  Charge       = 0
  Multiplicity = 1
  Basis Set: AUG-CC-PVTZ
    Blend: AUG-CC-PVTZ
  Basis Set: (AUG-CC-PVTZ AUX)
    Blend: AUG-CC-PVTZ-JKFIT

    Orbital Energies [Eh]
    ---------------------

    Doubly Occupied:

       1A    -20.573753     2A    -20.563075     3A    -11.353510
       4A    -11.351089     5A    -11.281818     6A    -11.277545
       7A    -11.259214     8A    -11.227329     9A     -1.395217
      10A     -1.393261    11A     -1.113952    12A     -1.057029
      13A     -0.955318    14A     -0.884692    15A     -0.801166
      16A     -0.755093    17A     -0.694580    18A     -0.684621
      19A     -0.643047    20A     -0.636635    21A     -0.628425
      22A     -0.574389    23A     -0.559758    24A     -0.555289
      25A     -0.543498    26A     -0.508455    27A     -0.502317
      28A     -0.451190    29A     -0.434698    30A     -0.404420

  @DF-RHF Final Energy:  -381.69579685309998

   => Energetics <=

    Nuclear Repulsion Energy =            329.8026944857333547
    One-Electron Energy =               -1172.8682147847732722
    Two-Electron Energy =                 461.3697234459399397
    Total Energy =                       -381.6957968530999779
  Basis Set: (AUG-CC-PVTZ AUX)
    Blend: AUG-CC-PVTZ-RI
    Molecular point group: c1

    Geometry (in Angstrom), charge = 0, multiplicity = 1:

       Center              X                  Y                   Z               Mass
    ------------   -----------------  -----------------  -----------------  -----------------
         O            1.176229194230    -1.319927902942    -0.010885048771    15.994914619570
         O           -3.796841805770    -0.173609902942    -0.030595048771    15.994914619570
         C            2.248589194230     0.833938097058     0.020907951229    12.000000000000
         C            3.664060294230     0.048560397058    -0.007779948771    12.000000000000
         C            1.057234194230    -0.095685902942     0.017245951229    12.000000000000
         C           -0.290368805770     0.546771097058     0.024200951229    12.000000000000
         C           -1.417906805770    -0.185900902942     0.001426951229    12.000000000000
         C           -2.742357805770     0.453363097058    -0.006544048771    12.000000000000
         H            2.167471194230     1.479824097058     0.905454951229     1.007825032230
         H            2.149089194230     1.511912097058    -0.839080048771     1.007825032230
         H            3.670461194230    -0.556628902942     0.862397951229     1.007825032230
         H            3.651924194230    -0.527070902942    -0.897623048771     1.007825032230
         H            4.408254194230     0.805336097058    -0.002966048771     1.007825032230
         H           -0.343008805770     1.636135097058     0.041600951229     1.007825032230
         H           -1.370325805770    -1.272326902942    -0.016176048771     1.007825032230
         H           -2.739122805770     1.562969097058     0.015824951229     1.007825032230

  Basis Set: AUG-CC-PVTZ
    Blend: AUG-CC-PVTZ
  Basis Set: (AUG-CC-PVTZ AUX)
    Blend: AUG-CC-PVTZ-JKFIT
	 Reference Energy          =    -381.6957968530999779 [Eh]
	 Singles Energy            =      -0.0000000000000000 [Eh]
	 Same-Spin Energy          =      -0.3770516997206395 [Eh]
	 Opposite-Spin Energy      =      -1.2237559743062214 [Eh]
	 Correlation Energy        =      -1.6008076740268609 [Eh]
	 Total Energy              =    -383.2966045271268172 [Eh]

	 ================> DF-SCS-MP2 Energies <==================
	-----------------------------------------------------------
	 SCS Same-Spin Scale       =       0.3333333333333333 [-]
	 SCS Opposite-Spin Scale   =       1.2000000000000000 [-]
	 SCS Same-Spin Energy      =      -0.1256838999068798 [Eh]
	 SCS Opposite-Spin Energy  =      -1.4685071691674656 [Eh]
	 SCS Correlation Energy    =      -1.5941910690743455 [Eh]
	 SCS Total Energy          =    -383.2899879221743049 [Eh]
	-----------------------------------------------------------

  Dipole Moment: [D]
     X:     2.7582      Y:     3.5168      Z:     0.0899     Total:     4.4703

*** Psi4 exiting successfully. Buy a developer a beer!
