                               Psi4 1.3.2 release

  ==> Input File <==

--------------------------------------------------------------------------
#psi4
#
memory 32 gb

molecule  {
0 1
  O        1.1855920    -1.3251230    -0.0110750
  O       -3.7874790    -0.1788050    -0.0307850
  C        2.2579520     0.8287430     0.0207180
  C        3.5859950     0.0918750    -0.0061980
  C        0.9877588    -0.1623991     0.0168137
  C       -0.2810060     0.5415760     0.0240110
  C       -1.4085440    -0.1910960     0.0012370
  C       -2.7329950     0.4481680    -0.0067340
  H        2.1768340     1.4746290     0.9052650
  H        2.1584520     1.5067170    -0.8392700
  H        3.6798240    -0.5618240     0.8622080
  H        3.6612870    -0.5322660    -0.8978130
  H        4.4176170     0.8001410    -0.0031560
  H       -0.3336460     1.6309400     0.0414110
  H       -1.3609630    -1.2775220    -0.0163660
  H       -2.7297600     1.5577740     0.0156350
units angstrom
no_reorient  #important for SAPT in psi4, default
symmetry c1  #important for SAPT in psi4, default
}

set PROPERTIES_ORIGIN ["COM"]
properties('MP2/aug-cc-pvtz', properties = ['dipole'])
--------------------------------------------------------------------------

    Molecular point group: c1
  Charge       = 0
  Multiplicity = 1
  Basis Set: AUG-CC-PVTZ
    Blend: AUG-CC-PVTZ
  Basis Set: (AUG-CC-PVTZ AUX)
    Blend: AUG-CC-PVTZ-JKFIT

    Orbital Energies [Eh]
    ---------------------

    Doubly Occupied:

       1A    -20.577892     2A    -20.566368     3A    -11.354133
       4A    -11.347948     5A    -11.282980     6A    -11.280482
       7A    -11.249565     8A    -11.222400     9A     -1.428230
      10A     -1.398690    11A     -1.123173    12A     -1.050750
      13A     -0.957093    14A     -0.869257    15A     -0.803398
      16A     -0.760289    17A     -0.700676    18A     -0.689944
      19A     -0.638699    20A     -0.636065    21A     -0.635612
      22A     -0.583257    23A     -0.564408    24A     -0.544449
      25A     -0.540957    26A     -0.524351    27A     -0.500830
      28A     -0.453786    29A     -0.418665    30A     -0.410519

  @DF-RHF Final Energy:  -381.69692612958670

   => Energetics <=

    Nuclear Repulsion Energy =            331.6603114913877448
    One-Electron Energy =               -1176.4847477361745405
    Two-Electron Energy =                 463.1275101152000389
    Total Energy =                       -381.6969261295867000
  Basis Set: (AUG-CC-PVTZ AUX)
    Blend: AUG-CC-PVTZ-RI
    Molecular point group: c1

    Geometry (in Angstrom), charge = 0, multiplicity = 1:

       Center              X                  Y                   Z               Mass
    ------------   -----------------  -----------------  -----------------  -----------------
         O            1.194035105346    -1.318534797940    -0.011048857803    15.994914619570
         O           -3.779035894654    -0.172216797940    -0.030758857803    15.994914619570
         C            2.266395105346     0.835331202060     0.020744142197    12.000000000000
         C            3.594438105346     0.098463202060    -0.006171857803    12.000000000000
         C            0.996201905346    -0.155810897940     0.016839842197    12.000000000000
         C           -0.272562894654     0.548164202060     0.024037142197    12.000000000000
         C           -1.400100894654    -0.184507797940     0.001263142197    12.000000000000
         C           -2.724551894654     0.454756202060    -0.006707857803    12.000000000000
         H            2.185277105346     1.481217202060     0.905291142197     1.007825032230
         H            2.166895105346     1.513305202060    -0.839243857803     1.007825032230
         H            3.688267105346    -0.555235797940     0.862234142197     1.007825032230
         H            3.669730105346    -0.525677797940    -0.897786857803     1.007825032230
         H            4.426060105346     0.806729202060    -0.003129857803     1.007825032230
         H           -0.325202894654     1.637528202060     0.041437142197     1.007825032230
         H           -1.352519894654    -1.270933797940    -0.016339857803     1.007825032230
         H           -2.721316894654     1.564362202060     0.015661142197     1.007825032230

  Basis Set: AUG-CC-PVTZ
    Blend: AUG-CC-PVTZ
  Basis Set: (AUG-CC-PVTZ AUX)
    Blend: AUG-CC-PVTZ-JKFIT
	 Reference Energy          =    -381.6969261295867000 [Eh]
	 Singles Energy            =      -0.0000000000000000 [Eh]
	 Same-Spin Energy          =      -0.3763276952443008 [Eh]
	 Opposite-Spin Energy      =      -1.2214964280275633 [Eh]
	 Correlation Energy        =      -1.5978241232718642 [Eh]
	 Total Energy              =    -383.2947502528585915 [Eh]

	 ================> DF-SCS-MP2 Energies <==================
	-----------------------------------------------------------
	 SCS Same-Spin Scale       =       0.3333333333333333 [-]
	 SCS Opposite-Spin Scale   =       1.2000000000000000 [-]
	 SCS Same-Spin Energy      =      -0.1254425650814336 [Eh]
	 SCS Opposite-Spin Energy  =      -1.4657957136330759 [Eh]
	 SCS Correlation Energy    =      -1.5912382787145094 [Eh]
	 SCS Total Energy          =    -383.2881644083012134 [Eh]
	-----------------------------------------------------------

  Dipole Moment: [D]
     X:     2.1361      Y:     3.2348      Z:     0.0873     Total:     3.8775

*** Psi4 exiting successfully. Buy a developer a beer!
