                               Psi4 1.3.2 release

  ==> Input File <==

--------------------------------------------------------------------------
#psi4
#
memory 32 gb

molecule  {
0 1
  O        1.1855920    -1.3251230    -0.0110750
  O       -3.7874790    -0.1788050    -0.0307850
  C        2.2579520     0.8287430     0.0207180
  C        3.5859950     0.0918750    -0.0061980
  C        1.0665970    -0.1008810     0.0170560
  C       -0.2874441     0.5513885     0.0240562
  C       -1.4085440    -0.1910960     0.0012370
  C       -2.7273677     0.4597006    -0.0065217
  H        2.1768340     1.4746290     0.9052650
  H        2.1584520     1.5067170    -0.8392700
  H        3.6798240    -0.5618240     0.8622080
  H        3.6612870    -0.5322660    -0.8978130
  H        4.4176170     0.8001410    -0.0031560
  H       -0.3336460     1.6309400     0.0414110
  H       -1.3609630    -1.2775220    -0.0163660
  H       -2.7297600     1.5577740     0.0156350
units angstrom
no_reorient  #important for SAPT in psi4, default
symmetry c1  #important for SAPT in psi4, default
}

set PROPERTIES_ORIGIN ["COM"]
properties('MP2/aug-cc-pvtz', properties = ['dipole'])
--------------------------------------------------------------------------

    Molecular point group: c1
  Charge       = 0
  Multiplicity = 1
  Basis Set: AUG-CC-PVTZ
    Blend: AUG-CC-PVTZ
  Basis Set: (AUG-CC-PVTZ AUX)
    Blend: AUG-CC-PVTZ-JKFIT

    Orbital Energies [Eh]
    ---------------------

    Doubly Occupied:

       1A    -20.573107     2A    -20.564525     3A    -11.354762
       4A    -11.351313     5A    -11.282182     6A    -11.278166
       7A    -11.257149     8A    -11.228371     9A     -1.394631
      10A     -1.387611    11A     -1.115136    12A     -1.070506
      13A     -0.953909    14A     -0.879477    15A     -0.803682
      16A     -0.756277    17A     -0.697136    18A     -0.685308
      19A     -0.646156    20A     -0.636106    21A     -0.627350
      22A     -0.576746    23A     -0.552337    24A     -0.544058
      25A     -0.534401    26A     -0.528893    27A     -0.502103
      28A     -0.452632    29A     -0.435190    30A     -0.404422

  @DF-RHF Final Energy:  -381.70160493806742

   => Energetics <=

    Nuclear Repulsion Energy =            330.9111158333979006
    One-Electron Energy =               -1175.0781570278943491
    Two-Electron Energy =                 462.4654362564290864
    Total Energy =                       -381.7016049380674190
  Basis Set: (AUG-CC-PVTZ AUX)
    Blend: AUG-CC-PVTZ-RI
    Molecular point group: c1

    Geometry (in Angstrom), charge = 0, multiplicity = 1:

       Center              X                  Y                   Z               Mass
    ------------   -----------------  -----------------  -----------------  -----------------
         O            1.185678938468    -1.327408843817    -0.011102382746    15.994914619570
         O           -3.787392061532    -0.181090843817    -0.030812382746    15.994914619570
         C            2.258038938468     0.826457156183     0.020690617254    12.000000000000
         C            3.586081938468     0.089589156183    -0.006225382746    12.000000000000
         C            1.066683938468    -0.103166843817     0.017028617254    12.000000000000
         C           -0.287357161532     0.549102656183     0.024028817254    12.000000000000
         C           -1.408457061532    -0.193381843817     0.001209617254    12.000000000000
         C           -2.727280761532     0.457414756183    -0.006549082746    12.000000000000
         H            2.176920938468     1.472343156183     0.905237617254     1.007825032230
         H            2.158538938468     1.504431156183    -0.839297382746     1.007825032230
         H            3.679910938468    -0.564109843817     0.862180617254     1.007825032230
         H            3.661373938468    -0.534551843817    -0.897840382746     1.007825032230
         H            4.417703938468     0.797855156183    -0.003183382746     1.007825032230
         H           -0.333559061532     1.628654156183     0.041383617254     1.007825032230
         H           -1.360876061532    -1.279807843817    -0.016393382746     1.007825032230
         H           -2.729673061532     1.555488156183     0.015607617254     1.007825032230

  Basis Set: AUG-CC-PVTZ
    Blend: AUG-CC-PVTZ
  Basis Set: (AUG-CC-PVTZ AUX)
    Blend: AUG-CC-PVTZ-JKFIT
	 Reference Energy          =    -381.7016049380674190 [Eh]
	 Singles Energy            =      -0.0000000000000000 [Eh]
	 Same-Spin Energy          =      -0.3776046549284536 [Eh]
	 Opposite-Spin Energy      =      -1.2243847114202220 [Eh]
	 Correlation Energy        =      -1.6019893663486755 [Eh]
	 Total Energy              =    -383.3035943044160945 [Eh]

	 ================> DF-SCS-MP2 Energies <==================
	-----------------------------------------------------------
	 SCS Same-Spin Scale       =       0.3333333333333333 [-]
	 SCS Opposite-Spin Scale   =       1.2000000000000000 [-]
	 SCS Same-Spin Energy      =      -0.1258682183094845 [Eh]
	 SCS Opposite-Spin Energy  =      -1.4692616537042664 [Eh]
	 SCS Correlation Energy    =      -1.5951298720137510 [Eh]
	 SCS Total Energy          =    -383.2967348100811478 [Eh]
	-----------------------------------------------------------

  Dipole Moment: [D]
     X:     2.7906      Y:     3.5553      Z:     0.0914     Total:     4.5206

*** Psi4 exiting successfully. Buy a developer a beer!
