                               Psi4 1.3.2 release

  ==> Input File <==

--------------------------------------------------------------------------
#psi4
#
memory 32 gb

molecule  {
0 1
  O        1.1855920    -1.3251230    -0.0110750
  O       -3.7874790    -0.1788050    -0.0307850
  C        2.2579520     0.8287430     0.0207180
  C        3.5859950     0.0918750    -0.0061980
  C        1.0665970    -0.1008810     0.0170560
  C       -0.2810060     0.5415760     0.0240110
  C       -1.4085440    -0.1910960     0.0012370
  C       -2.7329950     0.4481680    -0.0067340
  H        2.1768340     1.4746290     0.9052650
  H        2.1584520     1.5067170    -0.8392700
  H        3.6798240    -0.5618240     0.8622080
  H        3.6612870    -0.5322660    -0.8978130
  H        4.4176170     0.8001410    -0.0031560
  H       -0.3336460     1.6309400     0.0414110
  H       -1.3609630    -1.2775220    -0.0163660
  H       -2.7303430     1.3578155     0.0116040
units angstrom
no_reorient  #important for SAPT in psi4, default
symmetry c1  #important for SAPT in psi4, default
}

set PROPERTIES_ORIGIN ["COM"]
properties('MP2/aug-cc-pvtz', properties = ['dipole'])
--------------------------------------------------------------------------

    Molecular point group: c1
  Charge       = 0
  Multiplicity = 1
  Basis Set: AUG-CC-PVTZ
    Blend: AUG-CC-PVTZ
  Basis Set: (AUG-CC-PVTZ AUX)
    Blend: AUG-CC-PVTZ-JKFIT

    Orbital Energies [Eh]
    ---------------------

    Doubly Occupied:

       1A    -20.571114     2A    -20.563239     3A    -11.353260
       4A    -11.327839     5A    -11.281113     6A    -11.275517
       7A    -11.256614     8A    -11.227946     9A     -1.394661
      10A     -1.393269    11A     -1.115792    12A     -1.070433
      13A     -0.962234    14A     -0.894505    15A     -0.831444
      16A     -0.755470    17A     -0.705583    18A     -0.688266
      19A     -0.645711    20A     -0.636317    21A     -0.634272
      22A     -0.573282    23A     -0.553327    24A     -0.543646
      25A     -0.535279    26A     -0.528513    27A     -0.501618
      28A     -0.458133    29A     -0.435496    30A     -0.403505

  @DF-RHF Final Energy:  -381.67398974500213

   => Energetics <=

    Nuclear Repulsion Energy =            332.1491711685485484
    One-Electron Energy =               -1177.4115244666638773
    Two-Electron Energy =                 463.5883635531132541
    Total Energy =                       -381.6739897450021317
  Basis Set: (AUG-CC-PVTZ AUX)
    Blend: AUG-CC-PVTZ-RI
    Molecular point group: c1

    Geometry (in Angstrom), charge = 0, multiplicity = 1:

       Center              X                  Y                   Z               Mass
    ------------   -----------------  -----------------  -----------------  -----------------
         O            1.185597351321    -1.323324466675    -0.011038550639    15.994914619570
         O           -3.787473648679    -0.177006466675    -0.030748550639    15.994914619570
         C            2.257957351321     0.830541533325     0.020754449361    12.000000000000
         C            3.586000351321     0.093673533325    -0.006161550639    12.000000000000
         C            1.066602351321    -0.099082466675     0.017092449361    12.000000000000
         C           -0.281000648679     0.543374533325     0.024047449361    12.000000000000
         C           -1.408538648679    -0.189297466675     0.001273449361    12.000000000000
         C           -2.732989648679     0.449966533325    -0.006697550639    12.000000000000
         H            2.176839351321     1.476427533325     0.905301449361     1.007825032230
         H            2.158457351321     1.508515533325    -0.839233550639     1.007825032230
         H            3.679829351321    -0.560025466675     0.862244449361     1.007825032230
         H            3.661292351321    -0.530467466675    -0.897776550639     1.007825032230
         H            4.417622351321     0.801939533325    -0.003119550639     1.007825032230
         H           -0.333640648679     1.632738533325     0.041447449361     1.007825032230
         H           -1.360957648679    -1.275723466675    -0.016329550639     1.007825032230
         H           -2.730337648679     1.359614033325     0.011640449361     1.007825032230

  Basis Set: AUG-CC-PVTZ
    Blend: AUG-CC-PVTZ
  Basis Set: (AUG-CC-PVTZ AUX)
    Blend: AUG-CC-PVTZ-JKFIT
	 Reference Energy          =    -381.6739897450021317 [Eh]
	 Singles Energy            =      -0.0000000000000000 [Eh]
	 Same-Spin Energy          =      -0.3768177578607991 [Eh]
	 Opposite-Spin Energy      =      -1.2229811145508087 [Eh]
	 Correlation Energy        =      -1.5997988724116079 [Eh]
	 Total Energy              =    -383.2737886174137429 [Eh]

	 ================> DF-SCS-MP2 Energies <==================
	-----------------------------------------------------------
	 SCS Same-Spin Scale       =       0.3333333333333333 [-]
	 SCS Opposite-Spin Scale   =       1.2000000000000000 [-]
	 SCS Same-Spin Energy      =      -0.1256059192869330 [Eh]
	 SCS Opposite-Spin Energy  =      -1.4675773374609704 [Eh]
	 SCS Correlation Energy    =      -1.5931832567479034 [Eh]
	 SCS Total Energy          =    -383.2671730017500522 [Eh]
	-----------------------------------------------------------

  Dipole Moment: [D]
     X:     2.7357      Y:     3.6623      Z:     0.0925     Total:     4.5722

*** Psi4 exiting successfully. Buy a developer a beer!
