                               Psi4 1.3.2 release

  ==> Input File <==

--------------------------------------------------------------------------
#psi4
#
memory 32 gb

molecule  {
0 1
  O        1.1855920    -1.3251230    -0.0110750
  O       -3.7874790    -0.1788050    -0.0307850
  C        2.2579520     0.8287430     0.0207180
  C        3.5859950     0.0918750    -0.0061980
  C        1.0665970    -0.1008810     0.0170560
  C       -0.2810060     0.5415760     0.0240110
  C       -1.4085440    -0.1910960     0.0012370
  C       -2.7329950     0.4481680    -0.0067340
  H        2.1768340     1.4746290     0.9052650
  H        2.1584520     1.5067170    -0.8392700
  H        3.6798240    -0.5618240     0.8622080
  H        3.6612870    -0.5322660    -0.8978130
  H        4.4176170     0.8001410    -0.0031560
  H       -0.3288201     1.5310693     0.0398158
  H       -1.3609630    -1.2775220    -0.0163660
  H       -2.7297600     1.5577740     0.0156350
units angstrom
no_reorient  #important for SAPT in psi4, default
symmetry c1  #important for SAPT in psi4, default
}

set PROPERTIES_ORIGIN ["COM"]
properties('MP2/aug-cc-pvtz', properties = ['dipole'])
--------------------------------------------------------------------------

    Molecular point group: c1
  Charge       = 0
  Multiplicity = 1
  Basis Set: AUG-CC-PVTZ
    Blend: AUG-CC-PVTZ
  Basis Set: (AUG-CC-PVTZ AUX)
    Blend: AUG-CC-PVTZ-JKFIT

    Orbital Energies [Eh]
    ---------------------

    Doubly Occupied:

       1A    -20.574135     2A    -20.563200     3A    -11.352790
       4A    -11.351413     5A    -11.277692     6A    -11.270386
       7A    -11.257125     8A    -11.228329     9A     -1.395530
      10A     -1.393512    11A     -1.119125    12A     -1.070386
      13A     -0.956805    14A     -0.880781    15A     -0.806481
      16A     -0.763055    17A     -0.703189    18A     -0.687744
      19A     -0.646133    20A     -0.636911    21A     -0.630459
      22A     -0.581453    23A     -0.554552    24A     -0.544240
      25A     -0.536309    26A     -0.528808    27A     -0.501939
      28A     -0.451616    29A     -0.435431    30A     -0.404376

  @DF-RHF Final Energy:  -381.69740821815833

   => Energetics <=

    Nuclear Repulsion Energy =            331.6409101811320284
    One-Electron Energy =               -1176.4688238783271572
    Two-Electron Energy =                 463.1305054790367421
    Total Energy =                       -381.6974082181583299
  Basis Set: (AUG-CC-PVTZ AUX)
    Blend: AUG-CC-PVTZ-RI
    Molecular point group: c1

    Geometry (in Angstrom), charge = 0, multiplicity = 1:

       Center              X                  Y                   Z               Mass
    ------------   -----------------  -----------------  -----------------  -----------------
         O            1.185548702444    -1.324224679109    -0.011060458778    15.994914619570
         O           -3.787522297556    -0.177906679109    -0.030770458778    15.994914619570
         C            2.257908702444     0.829641320891     0.020732541222    12.000000000000
         C            3.585951702444     0.092773320891    -0.006183458778    12.000000000000
         C            1.066553702444    -0.099982679109     0.017070541222    12.000000000000
         C           -0.281049297556     0.542474320891     0.024025541222    12.000000000000
         C           -1.408587297556    -0.190197679109     0.001251541222    12.000000000000
         C           -2.733038297556     0.449066320891    -0.006719458778    12.000000000000
         H            2.176790702444     1.475527320891     0.905279541222     1.007825032230
         H            2.158408702444     1.507615320891    -0.839255458778     1.007825032230
         H            3.679780702444    -0.560925679109     0.862222541222     1.007825032230
         H            3.661243702444    -0.531367679109    -0.897798458778     1.007825032230
         H            4.417573702444     0.801039320891    -0.003141458778     1.007825032230
         H           -0.328863397556     1.531967620891     0.039830341222     1.007825032230
         H           -1.361006297556    -1.276623679109    -0.016351458778     1.007825032230
         H           -2.729803297556     1.558672320891     0.015649541222     1.007825032230

  Basis Set: AUG-CC-PVTZ
    Blend: AUG-CC-PVTZ
  Basis Set: (AUG-CC-PVTZ AUX)
    Blend: AUG-CC-PVTZ-JKFIT
	 Reference Energy          =    -381.6974082181583299 [Eh]
	 Singles Energy            =      -0.0000000000000000 [Eh]
	 Same-Spin Energy          =      -0.3771874579129281 [Eh]
	 Opposite-Spin Energy      =      -1.2233133262502811 [Eh]
	 Correlation Energy        =      -1.6005007841632093 [Eh]
	 Total Energy              =    -383.2979090023215463 [Eh]

	 ================> DF-SCS-MP2 Energies <==================
	-----------------------------------------------------------
	 SCS Same-Spin Scale       =       0.3333333333333333 [-]
	 SCS Opposite-Spin Scale   =       1.2000000000000000 [-]
	 SCS Same-Spin Energy      =      -0.1257291526376427 [Eh]
	 SCS Opposite-Spin Energy  =      -1.4679759915003372 [Eh]
	 SCS Correlation Energy    =      -1.5937051441379799 [Eh]
	 SCS Total Energy          =    -383.2911133622963007 [Eh]
	-----------------------------------------------------------

  Dipole Moment: [D]
     X:     2.7383      Y:     3.5353      Z:     0.0905     Total:     4.4727

*** Psi4 exiting successfully. Buy a developer a beer!
