                               Psi4 1.4a3.dev225

  ==> Input File <==

--------------------------------------------------------------------------
#psi4
#
memory 32 gb

molecule  {
0 1
  O        1.0820120     1.3681640     0.0000000
  O       -3.8882340     0.1997640    -0.0000030
  C        2.1679760    -0.7815440    -0.0000070
  C        3.4943680    -0.0370920     0.0000040
  C        0.9697220     0.1420900     0.0000000
  C       -0.3940112    -0.5156524     0.0000041
  C       -1.5077040     0.2230700     0.0000000
  C       -2.8299410    -0.4231870     0.0000020
  H        2.0818540    -1.4423830    -0.8738950
  H        2.0818510    -1.4424050     0.8738640
  H        3.5776630     0.6025590    -0.8807220
  H        3.5776700     0.6025230     0.8807550
  H        4.3292850    -0.7422630    -0.0000140
  H       -0.4236580    -1.5964830     0.0000100
  H       -1.4638710     1.3098110    -0.0000060
  H       -2.8215620    -1.5330200     0.0000110
units angstrom
no_reorient  #important for SAPT in psi4, default
symmetry c1  #important for SAPT in psi4, default
}

set PROPERTIES_ORIGIN ["COM"]
properties('MP2/aug-cc-pvtz', properties = ['dipole'])
--------------------------------------------------------------------------

    Molecular point group: c1
  Charge       = 0
  Multiplicity = 1
  Basis Set: AUG-CC-PVTZ
    Blend: AUG-CC-PVTZ
  Basis Set: (AUG-CC-PVTZ AUX)
    Blend: AUG-CC-PVTZ-JKFIT

    Orbital Energies [Eh]
    ---------------------

    Doubly Occupied:

       1A    -20.572922     2A    -20.564714     3A    -11.355766
       4A    -11.350617     5A    -11.281748     6A    -11.276087
       7A    -11.257946     8A    -11.229037     9A     -1.394393
      10A     -1.393087    11A     -1.115345    12A     -1.070101
      13A     -0.951608    14A     -0.878750    15A     -0.801235
      16A     -0.755644    17A     -0.696024    18A     -0.686010
      19A     -0.646004    20A     -0.636456    21A     -0.628692
      22A     -0.576393    23A     -0.553904    24A     -0.544192
      25A     -0.535892    26A     -0.528599    27A     -0.502400
      28A     -0.451011    29A     -0.434056    30A     -0.406519

  @DF-RHF Final Energy:  -381.70297234524588

   => Energetics <=

    Nuclear Repulsion Energy =            330.7421170368360777
    One-Electron Energy =               -1174.7398811126183773
    Two-Electron Energy =                 462.2947917305363603
    Total Energy =                       -381.7029723452458825
  Basis Set: (AUG-CC-PVTZ AUX)
    Blend: AUG-CC-PVTZ-RI
    Molecular point group: c1

    Geometry (in Angstrom), charge = 0, multiplicity = 1:

       Center              X                  Y                   Z               Mass
    ------------   -----------------  -----------------  -----------------  -----------------
         O            1.180675919205     1.331607563214     0.000000069265    15.994914619570
         O           -3.789570080795     0.163207563214    -0.000002930735    15.994914619570
         C            2.266639919205    -0.818100436786    -0.000006930735    12.000000000000
         C            3.593031919205    -0.073648436786     0.000004069265    12.000000000000
         C            1.068385919205     0.105533563214     0.000000069265    12.000000000000
         C           -0.295347280795    -0.552208836786     0.000004169265    12.000000000000
         C           -1.409040080795     0.186513563214     0.000000069265    12.000000000000
         C           -2.731277080795    -0.459743436786     0.000002069265    12.000000000000
         H            2.180517919205    -1.478939436786    -0.873894930735     1.007825032230
         H            2.180514919205    -1.478961436786     0.873864069265     1.007825032230
         H            3.676326919205     0.566002563214    -0.880721930735     1.007825032230
         H            3.676333919205     0.565966563214     0.880755069265     1.007825032230
         H            4.427948919205    -0.778819436786    -0.000013930735     1.007825032230
         H           -0.324994080795    -1.633039436786     0.000010069265     1.007825032230
         H           -1.365207080795     1.273254563214    -0.000005930735     1.007825032230
         H           -2.722898080795    -1.569576436786     0.000011069265     1.007825032230

  Basis Set: AUG-CC-PVTZ
    Blend: AUG-CC-PVTZ
  Basis Set: (AUG-CC-PVTZ AUX)
    Blend: AUG-CC-PVTZ-JKFIT
	 Reference Energy          =    -381.7029723452458825 [Eh]
	 Singles Energy            =      -0.0000000000000000 [Eh]
	 Same-Spin Energy          =      -0.3771688147900774 [Eh]
	 Opposite-Spin Energy      =      -1.2235333189366508 [Eh]
	 Correlation Energy        =      -1.6007021337267282 [Eh]
	 Total Energy              =    -383.3036744789725958 [Eh]

	 ================> DF-SCS-MP2 Energies <==================
	-----------------------------------------------------------
	 SCS Same-Spin Scale       =       0.3333333333333333 [-]
	 SCS Opposite-Spin Scale   =       1.2000000000000000 [-]
	 SCS Same-Spin Energy      =      -0.1257229382633591 [Eh]
	 SCS Opposite-Spin Energy  =      -1.4682399827239809 [Eh]
	 SCS Correlation Energy    =      -1.5939629209873400 [Eh]
	 SCS Total Energy          =    -383.2969352662332199 [Eh]
	-----------------------------------------------------------

  Dipole Moment: [D]
     X:     2.8211      Y:    -3.5027      Z:     0.0000     Total:     4.4975

*** Psi4 exiting successfully. Buy a developer a beer!
