                               Psi4 1.3.2 release

  ==> Input File <==

--------------------------------------------------------------------------
#psi4
#
memory 32 gb

molecule  {
0 1
  O        1.1855920    -1.3251230    -0.0110750
  O       -3.7874790    -0.1788050    -0.0307850
  C        2.2579520     0.8287430     0.0207180
  C        3.5859950     0.0918750    -0.0061980
  C        1.0665970    -0.1008810     0.0170560
  C       -0.2810060     0.5415760     0.0240110
  C       -1.4085440    -0.1910960     0.0012370
  C       -2.7646213     0.3779863    -0.0083617
  H        2.1768340     1.4746290     0.9052650
  H        2.1584520     1.5067170    -0.8392700
  H        3.6798240    -0.5618240     0.8622080
  H        3.6612870    -0.5322660    -0.8978130
  H        4.4176170     0.8001410    -0.0031560
  H       -0.3336460     1.6309400     0.0414110
  H       -1.4178891    -1.2785097    -0.0171874
  H       -2.7297600     1.5577740     0.0156350
units angstrom
no_reorient  #important for SAPT in psi4, default
symmetry c1  #important for SAPT in psi4, default
}

set PROPERTIES_ORIGIN ["COM"]
properties('MP2/aug-cc-pvtz', properties = ['dipole'])
--------------------------------------------------------------------------

    Molecular point group: c1
  Charge       = 0
  Multiplicity = 1
  Basis Set: AUG-CC-PVTZ
    Blend: AUG-CC-PVTZ
  Basis Set: (AUG-CC-PVTZ AUX)
    Blend: AUG-CC-PVTZ-JKFIT

    Orbital Energies [Eh]
    ---------------------

    Doubly Occupied:

       1A    -20.577074     2A    -20.563226     3A    -11.353593
       4A    -11.348301     5A    -11.283144     6A    -11.276669
       7A    -11.256569     8A    -11.227864     9A     -1.439979
      10A     -1.393637    11A     -1.112759    12A     -1.069564
      13A     -0.954356    14A     -0.877306    15A     -0.787550
      16A     -0.758212    17A     -0.697176    18A     -0.689598
      19A     -0.650506    20A     -0.645610    21A     -0.631997
      22A     -0.576517    23A     -0.573907    24A     -0.543592
      25A     -0.541237    26A     -0.528390    27A     -0.501758
      28A     -0.442391    29A     -0.430052    30A     -0.407425

  @DF-RHF Final Energy:  -381.69963897099473

   => Energetics <=

    Nuclear Repulsion Energy =            331.8279065809573467
    One-Electron Energy =               -1176.7751714275932500
    Two-Electron Energy =                 463.2476258756411767
    Total Energy =                       -381.6996389709947266
  Basis Set: (AUG-CC-PVTZ AUX)
    Blend: AUG-CC-PVTZ-RI
    Molecular point group: c1

    Geometry (in Angstrom), charge = 0, multiplicity = 1:

       Center              X                  Y                   Z               Mass
    ------------   -----------------  -----------------  -----------------  -----------------
         O            1.189491060619    -1.317598105811    -0.010893103683    15.994914619570
         O           -3.783579939381    -0.171280105811    -0.030603103683    15.994914619570
         C            2.261851060619     0.836267894189     0.020899896317    12.000000000000
         C            3.589894060619     0.099399894189    -0.006016103683    12.000000000000
         C            1.070496060619    -0.093356105811     0.017237896317    12.000000000000
         C           -0.277106939381     0.549100894189     0.024192896317    12.000000000000
         C           -1.404644939381    -0.183571105811     0.001418896317    12.000000000000
         C           -2.760722239381     0.385511194189    -0.008179803683    12.000000000000
         H            2.180733060619     1.482153894189     0.905446896317     1.007825032230
         H            2.162351060619     1.514241894189    -0.839088103683     1.007825032230
         H            3.683723060619    -0.554299105811     0.862389896317     1.007825032230
         H            3.665186060619    -0.524741105811    -0.897631103683     1.007825032230
         H            4.421516060619     0.807665894189    -0.002974103683     1.007825032230
         H           -0.329746939381     1.638464894189     0.041592896317     1.007825032230
         H           -1.413990039381    -1.270984805811    -0.017005503683     1.007825032230
         H           -2.725860939381     1.565298894189     0.015816896317     1.007825032230

  Basis Set: AUG-CC-PVTZ
    Blend: AUG-CC-PVTZ
  Basis Set: (AUG-CC-PVTZ AUX)
    Blend: AUG-CC-PVTZ-JKFIT
	 Reference Energy          =    -381.6996389709947266 [Eh]
	 Singles Energy            =      -0.0000000000000000 [Eh]
	 Same-Spin Energy          =      -0.3760484699161887 [Eh]
	 Opposite-Spin Energy      =      -1.2204920497245941 [Eh]
	 Correlation Energy        =      -1.5965405196407829 [Eh]
	 Total Energy              =    -383.2961794906354953 [Eh]

	 ================> DF-SCS-MP2 Energies <==================
	-----------------------------------------------------------
	 SCS Same-Spin Scale       =       0.3333333333333333 [-]
	 SCS Opposite-Spin Scale   =       1.2000000000000000 [-]
	 SCS Same-Spin Energy      =      -0.1253494899720629 [Eh]
	 SCS Opposite-Spin Energy  =      -1.4645904596695130 [Eh]
	 SCS Correlation Energy    =      -1.5899399496415758 [Eh]
	 SCS Total Energy          =    -383.2895789206363020 [Eh]
	-----------------------------------------------------------

  Dipole Moment: [D]
     X:     2.5885      Y:     3.2048      Z:     0.0818     Total:     4.1203

*** Psi4 exiting successfully. Buy a developer a beer!
