                               Psi4 1.3.2 release

  ==> Input File <==

--------------------------------------------------------------------------
#psi4
#
memory 32 gb

molecule  {
0 1
  O        1.1855920    -1.3251230    -0.0110750
  O       -3.7874790    -0.1788050    -0.0307850
  C        2.2579520     0.8287430     0.0207180
  C        3.5859950     0.0918750    -0.0061980
  C        1.0665970    -0.1008810     0.0170560
  C       -0.2810060     0.5415760     0.0240110
  C       -1.3686410    -0.2491034     0.0006637
  C       -2.7329950     0.4481680    -0.0067340
  H        2.1768340     1.4746290     0.9052650
  H        2.1584520     1.5067170    -0.8392700
  H        3.6798240    -0.5618240     0.8622080
  H        3.6612870    -0.5322660    -0.8978130
  H        4.4176170     0.8001410    -0.0031560
  H       -0.2765563     1.6321929     0.0419751
  H       -1.3609630    -1.2775220    -0.0163660
  H       -2.7297600     1.5577740     0.0156350
units angstrom
no_reorient  #important for SAPT in psi4, default
symmetry c1  #important for SAPT in psi4, default
}

set PROPERTIES_ORIGIN ["COM"]
properties('MP2/aug-cc-pvtz', properties = ['dipole'])
--------------------------------------------------------------------------

    Molecular point group: c1
  Charge       = 0
  Multiplicity = 1
  Basis Set: AUG-CC-PVTZ
    Blend: AUG-CC-PVTZ
  Basis Set: (AUG-CC-PVTZ AUX)
    Blend: AUG-CC-PVTZ-JKFIT

    Orbital Energies [Eh]
    ---------------------

    Doubly Occupied:

       1A    -20.574400     2A    -20.560085     3A    -11.355396
       4A    -11.349407     5A    -11.280577     6A    -11.278933
       7A    -11.255293     8A    -11.227036     9A     -1.395000
      10A     -1.391455    11A     -1.111441    12A     -1.068098
      13A     -0.948613    14A     -0.872726    15A     -0.810171
      16A     -0.752214    17A     -0.694649    18A     -0.684635
      19A     -0.644659    20A     -0.637350    21A     -0.628351
      22A     -0.589079    23A     -0.551739    24A     -0.542275
      25A     -0.534879    26A     -0.527411    27A     -0.500803
      28A     -0.448745    29A     -0.429751    30A     -0.404837

  @DF-RHF Final Energy:  -381.69776195286227

   => Energetics <=

    Nuclear Repulsion Energy =            330.9365231218326926
    One-Electron Energy =               -1175.1685566214416667
    Two-Electron Energy =                 462.5342715467467087
    Total Energy =                       -381.6977619528622654
  Basis Set: (AUG-CC-PVTZ AUX)
    Blend: AUG-CC-PVTZ-RI
    Molecular point group: c1

    Geometry (in Angstrom), charge = 0, multiplicity = 1:

       Center              X                  Y                   Z               Mass
    ------------   -----------------  -----------------  -----------------  -----------------
         O            1.180805308943    -1.318922037237    -0.011018483754    15.994914619570
         O           -3.792265691057    -0.172604037237    -0.030728483754    15.994914619570
         C            2.253165308943     0.834943962763     0.020774516246    12.000000000000
         C            3.581208308943     0.098075962763    -0.006141483754    12.000000000000
         C            1.061810308943    -0.094680037237     0.017112516246    12.000000000000
         C           -0.285792691057     0.547776962763     0.024067516246    12.000000000000
         C           -1.373427691057    -0.242902437237     0.000720216246    12.000000000000
         C           -2.737781691057     0.454368962763    -0.006677483754    12.000000000000
         H            2.172047308943     1.480829962763     0.905321516246     1.007825032230
         H            2.153665308943     1.512917962763    -0.839213483754     1.007825032230
         H            3.675037308943    -0.555623037237     0.862264516246     1.007825032230
         H            3.656500308943    -0.526065037237    -0.897756483754     1.007825032230
         H            4.412830308943     0.806341962763    -0.003099483754     1.007825032230
         H           -0.281342991057     1.638393862763     0.042031616246     1.007825032230
         H           -1.365749691057    -1.271321037237    -0.016309483754     1.007825032230
         H           -2.734546691057     1.563974962763     0.015691516246     1.007825032230

  Basis Set: AUG-CC-PVTZ
    Blend: AUG-CC-PVTZ
  Basis Set: (AUG-CC-PVTZ AUX)
    Blend: AUG-CC-PVTZ-JKFIT
	 Reference Energy          =    -381.6977619528622654 [Eh]
	 Singles Energy            =      -0.0000000000000000 [Eh]
	 Same-Spin Energy          =      -0.3768476092821111 [Eh]
	 Opposite-Spin Energy      =      -1.2232215756100704 [Eh]
	 Correlation Energy        =      -1.6000691848921815 [Eh]
	 Total Energy              =    -383.2978311377544287 [Eh]

	 ================> DF-SCS-MP2 Energies <==================
	-----------------------------------------------------------
	 SCS Same-Spin Scale       =       0.3333333333333333 [-]
	 SCS Opposite-Spin Scale   =       1.2000000000000000 [-]
	 SCS Same-Spin Energy      =      -0.1256158697607037 [Eh]
	 SCS Opposite-Spin Energy  =      -1.4678658907320845 [Eh]
	 SCS Correlation Energy    =      -1.5934817604927882 [Eh]
	 SCS Total Energy          =    -383.2912437133550725 [Eh]
	-----------------------------------------------------------

  Dipole Moment: [D]
     X:     2.5837      Y:     3.5354      Z:     0.0896     Total:     4.3798

*** Psi4 exiting successfully. Buy a developer a beer!
