                               Psi4 1.3.2 release

  ==> Input File <==

--------------------------------------------------------------------------
#psi4
#
memory 32 gb

molecule  {
0 1
  O        1.1855920    -1.3251230    -0.0110750
  O       -3.7874790    -0.1788050    -0.0307850
  C        2.2579520     0.8287430     0.0207180
  C        3.5859950     0.0918750    -0.0061980
  C        1.0665970    -0.1008810     0.0170560
  C       -0.2810060     0.5415760     0.0240110
  C       -1.4085440    -0.1910960     0.0012370
  C       -2.7329950     0.4481680    -0.0067340
  H        2.1768340     1.4746290     0.9052650
  H        2.1584520     1.5067170    -0.8392700
  H        3.6798240    -0.5618240     0.8622080
  H        3.6612870    -0.5322660    -0.8978130
  H        4.4176170     0.8001410    -0.0031560
  H       -0.3336460     1.6309400     0.0414110
  H       -1.3565882    -1.3774131    -0.0179845
  H       -2.7297600     1.5577740     0.0156350
units angstrom
no_reorient  #important for SAPT in psi4, default
symmetry c1  #important for SAPT in psi4, default
}

set PROPERTIES_ORIGIN ["COM"]
properties('MP2/aug-cc-pvtz', properties = ['dipole'])
--------------------------------------------------------------------------

    Molecular point group: c1
  Charge       = 0
  Multiplicity = 1
  Basis Set: AUG-CC-PVTZ
    Blend: AUG-CC-PVTZ
  Basis Set: (AUG-CC-PVTZ AUX)
    Blend: AUG-CC-PVTZ-JKFIT

    Orbital Energies [Eh]
    ---------------------

    Doubly Occupied:

       1A    -20.574032     2A    -20.563721     3A    -11.353765
       4A    -11.351852     5A    -11.287473     6A    -11.281938
       7A    -11.256953     8A    -11.228190     9A     -1.395416
      10A     -1.393901    11A     -1.112764    12A     -1.069711
      13A     -0.953808    14A     -0.879300    15A     -0.792571
      16A     -0.753028    17A     -0.695312    18A     -0.685823
      19A     -0.646006    20A     -0.635477    21A     -0.627512
      22A     -0.558214    23A     -0.554578    24A     -0.543867
      25A     -0.536357    26A     -0.528746    27A     -0.501944
      28A     -0.451126    29A     -0.435898    30A     -0.404588

  @DF-RHF Final Energy:  -381.69543764548007

   => Energetics <=

    Nuclear Repulsion Energy =            330.7159941180124747
    One-Electron Energy =               -1174.7151269614187186
    Two-Electron Energy =                 462.3036951979261175
    Total Energy =                       -381.6954376454800695
  Basis Set: (AUG-CC-PVTZ AUX)
    Blend: AUG-CC-PVTZ-RI
    Molecular point group: c1

    Geometry (in Angstrom), charge = 0, multiplicity = 1:

       Center              X                  Y                   Z               Mass
    ------------   -----------------  -----------------  -----------------  -----------------
         O            1.185552759740    -1.324224495627    -0.011060249213    15.994914619570
         O           -3.787518240260    -0.177906495627    -0.030770249213    15.994914619570
         C            2.257912759740     0.829641504373     0.020732750787    12.000000000000
         C            3.585955759740     0.092773504373    -0.006183249213    12.000000000000
         C            1.066557759740    -0.099982495627     0.017070750787    12.000000000000
         C           -0.281045240260     0.542474504373     0.024025750787    12.000000000000
         C           -1.408583240260    -0.190197495627     0.001251750787    12.000000000000
         C           -2.733034240260     0.449066504373    -0.006719249213    12.000000000000
         H            2.176794759740     1.475527504373     0.905279750787     1.007825032230
         H            2.158412759740     1.507615504373    -0.839255249213     1.007825032230
         H            3.679784759740    -0.560925495627     0.862222750787     1.007825032230
         H            3.661247759740    -0.531367495627    -0.897798249213     1.007825032230
         H            4.417577759740     0.801039504373    -0.003141249213     1.007825032230
         H           -0.333685240260     1.631838504373     0.041425750787     1.007825032230
         H           -1.356627440260    -1.376514595627    -0.017969749213     1.007825032230
         H           -2.729799240260     1.558672504373     0.015649750787     1.007825032230

  Basis Set: AUG-CC-PVTZ
    Blend: AUG-CC-PVTZ
  Basis Set: (AUG-CC-PVTZ AUX)
    Blend: AUG-CC-PVTZ-JKFIT
	 Reference Energy          =    -381.6954376454800695 [Eh]
	 Singles Energy            =      -0.0000000000000000 [Eh]
	 Same-Spin Energy          =      -0.3778107493005683 [Eh]
	 Opposite-Spin Energy      =      -1.2247921403017057 [Eh]
	 Correlation Energy        =      -1.6026028896022741 [Eh]
	 Total Energy              =    -383.2980405350823503 [Eh]

	 ================> DF-SCS-MP2 Energies <==================
	-----------------------------------------------------------
	 SCS Same-Spin Scale       =       0.3333333333333333 [-]
	 SCS Opposite-Spin Scale   =       1.2000000000000000 [-]
	 SCS Same-Spin Energy      =      -0.1259369164335228 [Eh]
	 SCS Opposite-Spin Energy  =      -1.4697505683620469 [Eh]
	 SCS Correlation Energy    =      -1.5956874847955698 [Eh]
	 SCS Total Energy          =    -383.2911251302756455 [Eh]
	-----------------------------------------------------------

  Dipole Moment: [D]
     X:     2.7455      Y:     3.4959      Z:     0.0897     Total:     4.4460

*** Psi4 exiting successfully. Buy a developer a beer!
