                               Psi4 1.4a3.dev225

  ==> Input File <==

--------------------------------------------------------------------------
#psi4
#
memory 32 gb

molecule  {
0 1
  O        1.0820120     1.3681640     0.0000000
  O       -3.8882340     0.1997640    -0.0000030
  C        2.1679760    -0.7815440    -0.0000070
  C        3.4943680    -0.0370920     0.0000040
  C        0.9697220     0.1420900     0.0000000
  C       -0.3759970    -0.5069640     0.0000040
  C       -1.5077040     0.2230700     0.0000000
  C       -2.8299410    -0.4231870     0.0000020
  H        2.0818540    -1.4423830    -0.8738950
  H        2.0818510    -1.4424050     0.8738640
  H        3.5776630     0.6025590    -0.8807220
  H        3.5776700     0.6025230     0.8807550
  H        4.3292850    -0.7422630    -0.0000140
  H       -0.4236580    -1.5964830     0.0000100
  H       -1.4638710     1.3098110    -0.0000060
  H       -2.8217130    -1.5130206     0.0000108
units angstrom
no_reorient  #important for SAPT in psi4, default
symmetry c1  #important for SAPT in psi4, default
}

set PROPERTIES_ORIGIN ["COM"]
properties('MP2/aug-cc-pvtz', properties = ['dipole'])
--------------------------------------------------------------------------

    Molecular point group: c1
  Charge       = 0
  Multiplicity = 1
  Basis Set: AUG-CC-PVTZ
    Blend: AUG-CC-PVTZ
  Basis Set: (AUG-CC-PVTZ AUX)
    Blend: AUG-CC-PVTZ-JKFIT

    Orbital Energies [Eh]
    ---------------------

    Doubly Occupied:

       1A    -20.573662     2A    -20.564021     3A    -11.354268
       4A    -11.349392     5A    -11.282563     6A    -11.278190
       7A    -11.257446     8A    -11.228702     9A     -1.394794
      10A     -1.393406    11A     -1.114296    12A     -1.069645
      13A     -0.954798    14A     -0.879874    15A     -0.804265
      16A     -0.756015    17A     -0.696964    18A     -0.686051
      19A     -0.645896    20A     -0.636609    21A     -0.630254
      22A     -0.573856    23A     -0.554131    24A     -0.543640
      25A     -0.536104    26A     -0.528496    27A     -0.502198
      28A     -0.452350    29A     -0.435759    30A     -0.404202

  @DF-RHF Final Energy:  -381.70289749546788

   => Energetics <=

    Nuclear Repulsion Energy =            330.9404330208478768
    One-Electron Energy =               -1175.1229732828367105
    Two-Electron Energy =                 462.4796427665209535
    Total Energy =                       -381.7028974954678802
  Basis Set: (AUG-CC-PVTZ AUX)
    Blend: AUG-CC-PVTZ-RI
    Molecular point group: c1

    Geometry (in Angstrom), charge = 0, multiplicity = 1:

       Center              X                  Y                   Z               Mass
    ------------   -----------------  -----------------  -----------------  -----------------
         O            1.178748087569     1.330497219632     0.000000081773    15.994914619570
         O           -3.791497912431     0.162097219632    -0.000002918227    15.994914619570
         C            2.264712087569    -0.819210780368    -0.000006918227    12.000000000000
         C            3.591104087569    -0.074758780368     0.000004081773    12.000000000000
         C            1.066458087569     0.104423219632     0.000000081773    12.000000000000
         C           -0.279260912431    -0.544630780368     0.000004081773    12.000000000000
         C           -1.410967912431     0.185403219632     0.000000081773    12.000000000000
         C           -2.733204912431    -0.460853780368     0.000002081773    12.000000000000
         H            2.178590087569    -1.480049780368    -0.873894918227     1.007825032230
         H            2.178587087569    -1.480071780368     0.873864081773     1.007825032230
         H            3.674399087569     0.564892219632    -0.880721918227     1.007825032230
         H            3.674406087569     0.564856219632     0.880755081773     1.007825032230
         H            4.426021087569    -0.779929780368    -0.000013918227     1.007825032230
         H           -0.326921912431    -1.634149780368     0.000010081773     1.007825032230
         H           -1.367134912431     1.272144219632    -0.000005918227     1.007825032230
         H           -2.724976912431    -1.550687380368     0.000010881773     1.007825032230

  Basis Set: AUG-CC-PVTZ
    Blend: AUG-CC-PVTZ
  Basis Set: (AUG-CC-PVTZ AUX)
    Blend: AUG-CC-PVTZ-JKFIT
	 Reference Energy          =    -381.7028974954678802 [Eh]
	 Singles Energy            =      -0.0000000000000000 [Eh]
	 Same-Spin Energy          =      -0.3773373402121168 [Eh]
	 Opposite-Spin Energy      =      -1.2238286200749497 [Eh]
	 Correlation Energy        =      -1.6011659602870667 [Eh]
	 Total Energy              =    -383.3040634557549424 [Eh]

	 ================> DF-SCS-MP2 Energies <==================
	-----------------------------------------------------------
	 SCS Same-Spin Scale       =       0.3333333333333333 [-]
	 SCS Opposite-Spin Scale   =       1.2000000000000000 [-]
	 SCS Same-Spin Energy      =      -0.1257791134040389 [Eh]
	 SCS Opposite-Spin Energy  =      -1.4685943440899396 [Eh]
	 SCS Correlation Energy    =      -1.5943734574939785 [Eh]
	 SCS Total Energy          =    -383.2972709529618669 [Eh]
	-----------------------------------------------------------

  Dipole Moment: [D]
     X:     2.7692      Y:    -3.5235      Z:     0.0000     Total:     4.4815

*** Psi4 exiting successfully. Buy a developer a beer!
