                               Psi4 1.3.2 release

  ==> Input File <==

--------------------------------------------------------------------------
#psi4
#
memory 32 gb

molecule  {
0 1
  O        1.1213413    -1.3296622    -0.0115723
  O       -3.7874790    -0.1788050    -0.0307850
  C        2.2579520     0.8287430     0.0207180
  C        3.5859950     0.0918750    -0.0061980
  C        1.0665970    -0.1008810     0.0170560
  C       -0.3127814     0.4701905     0.0221355
  C       -1.4085440    -0.1910960     0.0012370
  C       -2.7329950     0.4481680    -0.0067340
  H        2.1768340     1.4746290     0.9052650
  H        2.1584520     1.5067170    -0.8392700
  H        3.6798240    -0.5618240     0.8622080
  H        3.6612870    -0.5322660    -0.8978130
  H        4.4176170     0.8001410    -0.0031560
  H       -0.3336460     1.6309400     0.0414110
  H       -1.3609630    -1.2775220    -0.0163660
  H       -2.7297600     1.5577740     0.0156350
units angstrom
no_reorient  #important for SAPT in psi4, default
symmetry c1  #important for SAPT in psi4, default
}

set PROPERTIES_ORIGIN ["COM"]
properties('MP2/aug-cc-pvtz', properties = ['dipole'])
--------------------------------------------------------------------------

    Molecular point group: c1
  Charge       = 0
  Multiplicity = 1
  Basis Set: AUG-CC-PVTZ
    Blend: AUG-CC-PVTZ
  Basis Set: (AUG-CC-PVTZ AUX)
    Blend: AUG-CC-PVTZ-JKFIT

    Orbital Energies [Eh]
    ---------------------

    Doubly Occupied:

       1A    -20.572056     2A    -20.564615     3A    -11.354627
       4A    -11.349799     5A    -11.275393     6A    -11.262810
       7A    -11.262644     8A    -11.232137     9A     -1.397060
      10A     -1.393147    11A     -1.122600    12A     -1.075751
      13A     -0.951320    14A     -0.882118    15A     -0.800600
      16A     -0.752974    17A     -0.697157    18A     -0.684356
      19A     -0.649095    20A     -0.639603    21A     -0.629015
      22A     -0.557260    23A     -0.554361    24A     -0.547672
      25A     -0.537322    26A     -0.531603    27A     -0.505028
      28A     -0.450480    29A     -0.435090    30A     -0.414184

  @DF-RHF Final Energy:  -381.69493572933328

   => Energetics <=

    Nuclear Repulsion Energy =            332.0457783355738570
    One-Electron Energy =               -1177.3176723992878578
    Two-Electron Energy =                 463.5769583343806630
    Total Energy =                       -381.6949357293332810
  Basis Set: (AUG-CC-PVTZ AUX)
    Blend: AUG-CC-PVTZ-RI
    Molecular point group: c1

    Geometry (in Angstrom), charge = 0, multiplicity = 1:

       Center              X                  Y                   Z               Mass
    ------------   -----------------  -----------------  -----------------  -----------------
         O            1.133915782620    -1.321369323465    -0.011300266918    15.994914619570
         O           -3.774904517380    -0.170512123465    -0.030512966918    15.994914619570
         C            2.270526482620     0.837035876535     0.020990033082    12.000000000000
         C            3.598569482620     0.100167876535    -0.005925966918    12.000000000000
         C            1.079171482620    -0.092588123465     0.017328033082    12.000000000000
         C           -0.300206917380     0.478483376535     0.022407533082    12.000000000000
         C           -1.395969517380    -0.182803123465     0.001509033082    12.000000000000
         C           -2.720420517380     0.456460876535    -0.006461966918    12.000000000000
         H            2.189408482620     1.482921876535     0.905537033082     1.007825032230
         H            2.171026482620     1.515009876535    -0.838997966918     1.007825032230
         H            3.692398482620    -0.553531123465     0.862480033082     1.007825032230
         H            3.673861482620    -0.523973123465    -0.897540966918     1.007825032230
         H            4.430191482620     0.808433876535    -0.002883966918     1.007825032230
         H           -0.321071517380     1.639232876535     0.041683033082     1.007825032230
         H           -1.348388517380    -1.269229123465    -0.016093966918     1.007825032230
         H           -2.717185517380     1.566066876535     0.015907033082     1.007825032230

  Basis Set: AUG-CC-PVTZ
    Blend: AUG-CC-PVTZ
  Basis Set: (AUG-CC-PVTZ AUX)
    Blend: AUG-CC-PVTZ-JKFIT
	 Reference Energy          =    -381.6949357293332810 [Eh]
	 Singles Energy            =      -0.0000000000000000 [Eh]
	 Same-Spin Energy          =      -0.3769527201488297 [Eh]
	 Opposite-Spin Energy      =      -1.2228322426958556 [Eh]
	 Correlation Energy        =      -1.5997849628446852 [Eh]
	 Total Energy              =    -383.2947206921779753 [Eh]

	 ================> DF-SCS-MP2 Energies <==================
	-----------------------------------------------------------
	 SCS Same-Spin Scale       =       0.3333333333333333 [-]
	 SCS Opposite-Spin Scale   =       1.2000000000000000 [-]
	 SCS Same-Spin Energy      =      -0.1256509067162765 [Eh]
	 SCS Opposite-Spin Energy  =      -1.4673986912350265 [Eh]
	 SCS Correlation Energy    =      -1.5930495979513031 [Eh]
	 SCS Total Energy          =    -383.2879853272845594 [Eh]
	-----------------------------------------------------------

  Dipole Moment: [D]
     X:     3.0619      Y:     3.4721      Z:     0.0900     Total:     4.6302

*** Psi4 exiting successfully. Buy a developer a beer!
