                               Psi4 1.3.2 release

  ==> Input File <==

--------------------------------------------------------------------------
#psi4
#
memory 32 gb

molecule  {
0 1
  O        1.1855920    -1.3251230    -0.0110750
  O       -3.7874790    -0.1788050    -0.0307850
  C        2.2579520     0.8287430     0.0207180
  C        3.5859950     0.0918750    -0.0061980
  C        1.0776046    -0.0772677     0.0174637
  C       -0.2810060     0.5415760     0.0240110
  C       -1.4085440    -0.1910960     0.0012370
  C       -2.7329950     0.4481680    -0.0067340
  H        2.1768340     1.4746290     0.9052650
  H        2.1584520     1.5067170    -0.8392700
  H        3.6798240    -0.5618240     0.8622080
  H        3.6612870    -0.5322660    -0.8978130
  H        4.4176170     0.8001410    -0.0031560
  H       -0.3146236     1.6316919     0.0414709
  H       -1.3609630    -1.2775220    -0.0163660
  H       -2.7297600     1.5577740     0.0156350
units angstrom
no_reorient  #important for SAPT in psi4, default
symmetry c1  #important for SAPT in psi4, default
}

set PROPERTIES_ORIGIN ["COM"]
properties('MP2/aug-cc-pvtz', properties = ['dipole'])
--------------------------------------------------------------------------

    Molecular point group: c1
  Charge       = 0
  Multiplicity = 1
  Basis Set: AUG-CC-PVTZ
    Blend: AUG-CC-PVTZ
  Basis Set: (AUG-CC-PVTZ AUX)
    Blend: AUG-CC-PVTZ-JKFIT

    Orbital Energies [Eh]
    ---------------------

    Doubly Occupied:

       1A    -20.574077     2A    -20.562223     3A    -11.355360
       4A    -11.351461     5A    -11.283170     6A    -11.278624
       7A    -11.258380     8A    -11.229479     9A     -1.395290
      10A     -1.379847    11A     -1.115025    12A     -1.074984
      13A     -0.957043    14A     -0.881873    15A     -0.801941
      16A     -0.755296    17A     -0.695374    18A     -0.686580
      19A     -0.648348    20A     -0.635919    21A     -0.627453
      22A     -0.571787    23A     -0.553370    24A     -0.544825
      25A     -0.534193    26A     -0.528756    27A     -0.498994
      28A     -0.451516    29A     -0.438686    30A     -0.403566

  @DF-RHF Final Energy:  -381.69926730836391

   => Energetics <=

    Nuclear Repulsion Energy =            330.9868654482878014
    One-Electron Energy =               -1175.2253847573572330
    Two-Electron Energy =                 462.5392520007055737
    Total Energy =                       -381.6992673083639147
  Basis Set: (AUG-CC-PVTZ AUX)
    Blend: AUG-CC-PVTZ-RI
    Molecular point group: c1

    Geometry (in Angstrom), charge = 0, multiplicity = 1:

       Center              X                  Y                   Z               Mass
    ------------   -----------------  -----------------  -----------------  -----------------
         O            1.184242182017    -1.327658514295    -0.011119006828    15.994914619570
         O           -3.788828817983    -0.181340514295    -0.030829006828    15.994914619570
         C            2.256602182017     0.826207485705     0.020673993172    12.000000000000
         C            3.584645182017     0.089339485705    -0.006242006828    12.000000000000
         C            1.076254782017    -0.079803214295     0.017419693172    12.000000000000
         C           -0.282355817983     0.539040485705     0.023966993172    12.000000000000
         C           -1.409893817983    -0.193631514295     0.001192993172    12.000000000000
         C           -2.734344817983     0.445632485705    -0.006778006828    12.000000000000
         H            2.175484182017     1.472093485705     0.905220993172     1.007825032230
         H            2.157102182017     1.504181485705    -0.839314006828     1.007825032230
         H            3.678474182017    -0.564359514295     0.862163993172     1.007825032230
         H            3.659937182017    -0.534801514295    -0.897857006828     1.007825032230
         H            4.416267182017     0.797605485705    -0.003200006828     1.007825032230
         H           -0.315973417983     1.629156385705     0.041426893172     1.007825032230
         H           -1.362312817983    -1.280057514295    -0.016410006828     1.007825032230
         H           -2.731109817983     1.555238485705     0.015590993172     1.007825032230

  Basis Set: AUG-CC-PVTZ
    Blend: AUG-CC-PVTZ
  Basis Set: (AUG-CC-PVTZ AUX)
    Blend: AUG-CC-PVTZ-JKFIT
	 Reference Energy          =    -381.6992673083639147 [Eh]
	 Singles Energy            =      -0.0000000000000000 [Eh]
	 Same-Spin Energy          =      -0.3781542035723666 [Eh]
	 Opposite-Spin Energy      =      -1.2253523617066520 [Eh]
	 Correlation Energy        =      -1.6035065652790186 [Eh]
	 Total Energy              =    -383.3027738736429342 [Eh]

	 ================> DF-SCS-MP2 Energies <==================
	-----------------------------------------------------------
	 SCS Same-Spin Scale       =       0.3333333333333333 [-]
	 SCS Opposite-Spin Scale   =       1.2000000000000000 [-]
	 SCS Same-Spin Energy      =      -0.1260514011907889 [Eh]
	 SCS Opposite-Spin Energy  =      -1.4704228340479824 [Eh]
	 SCS Correlation Energy    =      -1.5964742352387713 [Eh]
	 SCS Total Energy          =    -383.2957415436026736 [Eh]
	-----------------------------------------------------------

  Dipole Moment: [D]
     X:     2.8335      Y:     3.6006      Z:     0.0909     Total:     4.5827

*** Psi4 exiting successfully. Buy a developer a beer!
