                               Psi4 1.3.2 release

  ==> Input File <==

--------------------------------------------------------------------------
#psi4
#
memory 32 gb

molecule  {
0 1
  O        1.1855920    -1.3251230    -0.0110750
  O       -3.7874790    -0.1788050    -0.0307850
  C        2.2579520     0.8287430     0.0207180
  C        3.5859950     0.0918750    -0.0061980
  C        1.0580616    -0.0896562     0.0393436
  C       -0.2810060     0.5415760     0.0240110
  C       -1.4085440    -0.1910960     0.0012370
  C       -2.7329950     0.4481680    -0.0067340
  H        2.1605222     1.4657639     0.9100346
  H        2.1584520     1.5067170    -0.8392700
  H        3.6798240    -0.5618240     0.8622080
  H        3.6612870    -0.5322660    -0.8978130
  H        4.4176170     0.8001410    -0.0031560
  H       -0.3336460     1.6309400     0.0414110
  H       -1.3609630    -1.2775220    -0.0163660
  H       -2.7297600     1.5577740     0.0156350
units angstrom
no_reorient  #important for SAPT in psi4, default
symmetry c1  #important for SAPT in psi4, default
}

set PROPERTIES_ORIGIN ["COM"]
properties('MP2/aug-cc-pvtz', properties = ['dipole'])
--------------------------------------------------------------------------

    Molecular point group: c1
  Charge       = 0
  Multiplicity = 1
  Basis Set: AUG-CC-PVTZ
    Blend: AUG-CC-PVTZ
  Basis Set: (AUG-CC-PVTZ AUX)
    Blend: AUG-CC-PVTZ-JKFIT

    Orbital Energies [Eh]
    ---------------------

    Doubly Occupied:

       1A    -20.575120     2A    -20.562535     3A    -11.354028
       4A    -11.352228     5A    -11.282603     6A    -11.279501
       7A    -11.257362     8A    -11.228307     9A     -1.396233
      10A     -1.385676    11A     -1.116766    12A     -1.070182
      13A     -0.957360    14A     -0.880265    15A     -0.802449
      16A     -0.756313    17A     -0.695825    18A     -0.686159
      19A     -0.646105    20A     -0.635772    21A     -0.628619
      22A     -0.573414    23A     -0.554686    24A     -0.543922
      25A     -0.535071    26A     -0.528035    27A     -0.500431
      28A     -0.451906    29A     -0.436930    30A     -0.404715

  @DF-RHF Final Energy:  -381.70070016189709

   => Energetics <=

    Nuclear Repulsion Energy =            331.0876342638571259
    One-Electron Energy =               -1175.4196300211451671
    Two-Electron Energy =                 462.6312955953909523
    Total Energy =                       -381.7007001618970889
  Basis Set: (AUG-CC-PVTZ AUX)
    Blend: AUG-CC-PVTZ-RI
    Molecular point group: c1

    Geometry (in Angstrom), charge = 0, multiplicity = 1:

       Center              X                  Y                   Z               Mass
    ------------   -----------------  -----------------  -----------------  -----------------
         O            1.186652898969    -1.326245298589    -0.013504545051    15.994914619570
         O           -3.786418101031    -0.179927298589    -0.033214545051    15.994914619570
         C            2.259012898969     0.827620701411     0.018288454949    12.000000000000
         C            3.587055898969     0.090752701411    -0.008627545051    12.000000000000
         C            1.059122498969    -0.090778498589     0.036914054949    12.000000000000
         C           -0.279945101031     0.540453701411     0.021581454949    12.000000000000
         C           -1.407483101031    -0.192218298589    -0.001192545051    12.000000000000
         C           -2.731934101031     0.447045701411    -0.009163545051    12.000000000000
         H            2.161583098969     1.464641601411     0.907605054949     1.007825032230
         H            2.159512898969     1.505594701411    -0.841699545051     1.007825032230
         H            3.680884898969    -0.562946298589     0.859778454949     1.007825032230
         H            3.662347898969    -0.533388298589    -0.900242545051     1.007825032230
         H            4.418677898969     0.799018701411    -0.005585545051     1.007825032230
         H           -0.332585101031     1.629817701411     0.038981454949     1.007825032230
         H           -1.359902101031    -1.278644298589    -0.018795545051     1.007825032230
         H           -2.728699101031     1.556651701411     0.013205454949     1.007825032230

  Basis Set: AUG-CC-PVTZ
    Blend: AUG-CC-PVTZ
  Basis Set: (AUG-CC-PVTZ AUX)
    Blend: AUG-CC-PVTZ-JKFIT
	 Reference Energy          =    -381.7007001618970889 [Eh]
	 Singles Energy            =      -0.0000000000000000 [Eh]
	 Same-Spin Energy          =      -0.3778735078763490 [Eh]
	 Opposite-Spin Energy      =      -1.2247722544417121 [Eh]
	 Correlation Energy        =      -1.6026457623180610 [Eh]
	 Total Energy              =    -383.3033459242151366 [Eh]

	 ================> DF-SCS-MP2 Energies <==================
	-----------------------------------------------------------
	 SCS Same-Spin Scale       =       0.3333333333333333 [-]
	 SCS Opposite-Spin Scale   =       1.2000000000000000 [-]
	 SCS Same-Spin Energy      =      -0.1259578359587830 [Eh]
	 SCS Opposite-Spin Energy  =      -1.4697267053300545 [Eh]
	 SCS Correlation Energy    =      -1.5956845412888374 [Eh]
	 SCS Total Energy          =    -383.2963847031859359 [Eh]
	-----------------------------------------------------------

  Dipole Moment: [D]
     X:     2.6887      Y:     3.5429      Z:     0.1017     Total:     4.4488

*** Psi4 exiting successfully. Buy a developer a beer!
