                               Psi4 1.3.2 release

  ==> Input File <==

--------------------------------------------------------------------------
#psi4
#
memory 32 gb

molecule  {
0 1
  O        1.1855920    -1.3251230    -0.0110750
  O       -3.7874790    -0.1788050    -0.0307850
  C        2.2579520     0.8287430     0.0207180
  C        3.5859950     0.0918750    -0.0061980
  C        1.0665970    -0.1008810     0.0170560
  C       -0.2810060     0.5415760     0.0240110
  C       -1.3955812    -0.2106629     0.0010389
  C       -2.7329950     0.4481680    -0.0067340
  H        2.1768340     1.4746290     0.9052650
  H        2.1584520     1.5067170    -0.8392700
  H        3.6798240    -0.5618240     0.8622080
  H        3.6612870    -0.5322660    -0.8978130
  H        4.4176170     0.8001410    -0.0031560
  H       -0.3146244     1.6316897     0.0416044
  H       -1.3609630    -1.2775220    -0.0163660
  H       -2.7297600     1.5577740     0.0156350
units angstrom
no_reorient  #important for SAPT in psi4, default
symmetry c1  #important for SAPT in psi4, default
}

set PROPERTIES_ORIGIN ["COM"]
properties('MP2/aug-cc-pvtz', properties = ['dipole'])
--------------------------------------------------------------------------

    Molecular point group: c1
  Charge       = 0
  Multiplicity = 1
  Basis Set: AUG-CC-PVTZ
    Blend: AUG-CC-PVTZ
  Basis Set: (AUG-CC-PVTZ AUX)
    Blend: AUG-CC-PVTZ-JKFIT

    Orbital Energies [Eh]
    ---------------------

    Doubly Occupied:

       1A    -20.574163     2A    -20.562685     3A    -11.352791
       4A    -11.352371     5A    -11.281350     6A    -11.278369
       7A    -11.256414     8A    -11.227830     9A     -1.395364
      10A     -1.393280    11A     -1.113589    12A     -1.069540
      13A     -0.952525    14A     -0.876971    15A     -0.804106
      16A     -0.754800    17A     -0.696057    18A     -0.685280
      19A     -0.645593    20A     -0.635962    21A     -0.630175
      22A     -0.579898    23A     -0.553677    24A     -0.543400
      25A     -0.535943    26A     -0.528334    27A     -0.501619
      28A     -0.450790    29A     -0.433847    30A     -0.404725

  @DF-RHF Final Energy:  -381.70278208639610

   => Energetics <=

    Nuclear Repulsion Energy =            331.0638697444031209
    One-Electron Energy =               -1175.3904100076165378
    Two-Electron Energy =                 462.6237581768173754
    Total Energy =                       -381.7027820863960983
  Basis Set: (AUG-CC-PVTZ AUX)
    Blend: AUG-CC-PVTZ-RI
    Molecular point group: c1

    Geometry (in Angstrom), charge = 0, multiplicity = 1:

       Center              X                  Y                   Z               Mass
    ------------   -----------------  -----------------  -----------------  -----------------
         O            1.184032801517    -1.323034209231    -0.011055330785    15.994914619570
         O           -3.789038198483    -0.176716209231    -0.030765330785    15.994914619570
         C            2.256392801517     0.830831790769     0.020737669215    12.000000000000
         C            3.584435801517     0.093963790769    -0.006178330785    12.000000000000
         C            1.065037801517    -0.098792209231     0.017075669215    12.000000000000
         C           -0.282565198483     0.543664790769     0.024030669215    12.000000000000
         C           -1.397140398483    -0.208574109231     0.001058569215    12.000000000000
         C           -2.734554198483     0.450256790769    -0.006714330785    12.000000000000
         H            2.175274801517     1.476717790769     0.905284669215     1.007825032230
         H            2.156892801517     1.508805790769    -0.839250330785     1.007825032230
         H            3.678264801517    -0.559735209231     0.862227669215     1.007825032230
         H            3.659727801517    -0.530177209231    -0.897793330785     1.007825032230
         H            4.416057801517     0.802229790769    -0.003136330785     1.007825032230
         H           -0.316183598483     1.633778490769     0.041624069215     1.007825032230
         H           -1.362522198483    -1.275433209231    -0.016346330785     1.007825032230
         H           -2.731319198483     1.559862790769     0.015654669215     1.007825032230

  Basis Set: AUG-CC-PVTZ
    Blend: AUG-CC-PVTZ
  Basis Set: (AUG-CC-PVTZ AUX)
    Blend: AUG-CC-PVTZ-JKFIT
	 Reference Energy          =    -381.7027820863960983 [Eh]
	 Singles Energy            =      -0.0000000000000000 [Eh]
	 Same-Spin Energy          =      -0.3771731623820482 [Eh]
	 Opposite-Spin Energy      =      -1.2235097011460812 [Eh]
	 Correlation Energy        =      -1.6006828635281294 [Eh]
	 Total Energy              =    -383.3034649499242050 [Eh]

	 ================> DF-SCS-MP2 Energies <==================
	-----------------------------------------------------------
	 SCS Same-Spin Scale       =       0.3333333333333333 [-]
	 SCS Opposite-Spin Scale   =       1.2000000000000000 [-]
	 SCS Same-Spin Energy      =      -0.1257243874606827 [Eh]
	 SCS Opposite-Spin Energy  =      -1.4682116413752972 [Eh]
	 SCS Correlation Energy    =      -1.5939360288359801 [Eh]
	 SCS Total Energy          =    -383.2967181152320677 [Eh]
	-----------------------------------------------------------

  Dipole Moment: [D]
     X:     2.6916      Y:     3.5208      Z:     0.0899     Total:     4.4327

*** Psi4 exiting successfully. Buy a developer a beer!
