                               Psi4 1.4a3.dev225

  ==> Input File <==

--------------------------------------------------------------------------
#psi4
#
memory 32 gb

molecule  {
0 1
  O        1.0820120     1.3681640     0.0000000
  O       -3.8882340     0.1997640    -0.0000030
  C        2.1679760    -0.7815440    -0.0000070
  C        3.4943680    -0.0370920     0.0000040
  C        0.9855623     0.1298800    -0.0000001
  C       -0.3759970    -0.5069640     0.0000040
  C       -1.5077040     0.2230700     0.0000000
  C       -2.8299410    -0.4231870     0.0000020
  H        2.0818540    -1.4423830    -0.8738950
  H        2.0818510    -1.4424050     0.8738640
  H        3.5776630     0.6025590    -0.8807220
  H        3.5776700     0.6025230     0.8807550
  H        4.3292850    -0.7422630    -0.0000140
  H       -0.4236580    -1.5964830     0.0000100
  H       -1.4638710     1.3098110    -0.0000060
  H       -2.8215620    -1.5330200     0.0000110
units angstrom
no_reorient  #important for SAPT in psi4, default
symmetry c1  #important for SAPT in psi4, default
}

set PROPERTIES_ORIGIN ["COM"]
properties('MP2/aug-cc-pvtz', properties = ['dipole'])
--------------------------------------------------------------------------

    Molecular point group: c1
  Charge       = 0
  Multiplicity = 1
  Basis Set: AUG-CC-PVTZ
    Blend: AUG-CC-PVTZ
  Basis Set: (AUG-CC-PVTZ AUX)
    Blend: AUG-CC-PVTZ-JKFIT

    Orbital Energies [Eh]
    ---------------------

    Doubly Occupied:

       1A    -20.573369     2A    -20.563711     3A    -11.355815
       4A    -11.351179     5A    -11.283164     6A    -11.277703
       7A    -11.258547     8A    -11.229886     9A     -1.394013
      10A     -1.387168    11A     -1.113176    12A     -1.073863
      13A     -0.954452    14A     -0.880758    15A     -0.800915
      16A     -0.755556    17A     -0.695675    18A     -0.685076
      19A     -0.648296    20A     -0.636459    21A     -0.628455
      22A     -0.572121    23A     -0.553046    24A     -0.544459
      25A     -0.535217    26A     -0.529203    27A     -0.501191
      28A     -0.451352    29A     -0.437538    30A     -0.403294

  @DF-RHF Final Energy:  -381.70090660510698

   => Energetics <=

    Nuclear Repulsion Energy =            330.7570383458415222
    One-Electron Energy =               -1174.7665796864619097
    Two-Electron Energy =                 462.3086347355134649
    Total Energy =                       -381.7009066051069794
  Basis Set: (AUG-CC-PVTZ AUX)
    Blend: AUG-CC-PVTZ-RI
    Molecular point group: c1

    Geometry (in Angstrom), charge = 0, multiplicity = 1:

       Center              X                  Y                   Z               Mass
    ------------   -----------------  -----------------  -----------------  -----------------
         O            1.177050348552     1.331984700954     0.000000090683    15.994914619570
         O           -3.793195651448     0.163584700954    -0.000002909317    15.994914619570
         C            2.263014348552    -0.817723299046    -0.000006909317    12.000000000000
         C            3.589406348552    -0.073271299046     0.000004090683    12.000000000000
         C            1.080600648552     0.093700700954    -0.000000009317    12.000000000000
         C           -0.280958651448    -0.543143299046     0.000004090683    12.000000000000
         C           -1.412665651448     0.186890700954     0.000000090683    12.000000000000
         C           -2.734902651448    -0.459366299046     0.000002090683    12.000000000000
         H            2.176892348552    -1.478562299046    -0.873894909317     1.007825032230
         H            2.176889348552    -1.478584299046     0.873864090683     1.007825032230
         H            3.672701348552     0.566379700954    -0.880721909317     1.007825032230
         H            3.672708348552     0.566343700954     0.880755090683     1.007825032230
         H            4.424323348552    -0.778442299046    -0.000013909317     1.007825032230
         H           -0.328619651448    -1.632662299046     0.000010090683     1.007825032230
         H           -1.368832651448     1.273631700954    -0.000005909317     1.007825032230
         H           -2.726523651448    -1.569199299046     0.000011090683     1.007825032230

  Basis Set: AUG-CC-PVTZ
    Blend: AUG-CC-PVTZ
  Basis Set: (AUG-CC-PVTZ AUX)
    Blend: AUG-CC-PVTZ-JKFIT
	 Reference Energy          =    -381.7009066051069794 [Eh]
	 Singles Energy            =      -0.0000000000000000 [Eh]
	 Same-Spin Energy          =      -0.3777786036760077 [Eh]
	 Opposite-Spin Energy      =      -1.2247153822796966 [Eh]
	 Correlation Energy        =      -1.6024939859557041 [Eh]
	 Total Energy              =    -383.3034005910627116 [Eh]

	 ================> DF-SCS-MP2 Energies <==================
	-----------------------------------------------------------
	 SCS Same-Spin Scale       =       0.3333333333333333 [-]
	 SCS Opposite-Spin Scale   =       1.2000000000000000 [-]
	 SCS Same-Spin Energy      =      -0.1259262012253359 [Eh]
	 SCS Opposite-Spin Energy  =      -1.4696584587356358 [Eh]
	 SCS Correlation Energy    =      -1.5955846599609718 [Eh]
	 SCS Total Energy          =    -383.2964912650679707 [Eh]
	-----------------------------------------------------------

  Dipole Moment: [D]
     X:     2.8867      Y:    -3.5534      Z:     0.0000     Total:     4.5782

*** Psi4 exiting successfully. Buy a developer a beer!
