                               Psi4 1.4a3.dev225

  ==> Input File <==

--------------------------------------------------------------------------
#psi4
#
memory 32 gb

molecule  {
0 1
  O        1.0820120     1.3681640     0.0000000
  O       -3.8882340     0.1997640    -0.0000030
  C        2.1679760    -0.7815440    -0.0000070
  C        3.4943680    -0.0370920     0.0000040
  C        0.9678979     0.1221734     0.0000000
  C       -0.3759970    -0.5069640     0.0000040
  C       -1.5077040     0.2230700     0.0000000
  C       -2.8299410    -0.4231870     0.0000020
  H        2.0818540    -1.4423830    -0.8738950
  H        2.0818510    -1.4424050     0.8738640
  H        3.5776630     0.6025590    -0.8807220
  H        3.5776700     0.6025230     0.8807550
  H        4.3292850    -0.7422630    -0.0000140
  H       -0.4236580    -1.5964830     0.0000100
  H       -1.4638710     1.3098110    -0.0000060
  H       -2.8215620    -1.5330200     0.0000110
units angstrom
no_reorient  #important for SAPT in psi4, default
symmetry c1  #important for SAPT in psi4, default
}

set PROPERTIES_ORIGIN ["COM"]
properties('MP2/aug-cc-pvtz', properties = ['dipole'])
--------------------------------------------------------------------------

    Molecular point group: c1
  Charge       = 0
  Multiplicity = 1
  Basis Set: AUG-CC-PVTZ
    Blend: AUG-CC-PVTZ
  Basis Set: (AUG-CC-PVTZ AUX)
    Blend: AUG-CC-PVTZ-JKFIT

    Orbital Energies [Eh]
    ---------------------

    Doubly Occupied:

       1A    -20.575016     2A    -20.562314     3A    -11.355385
       4A    -11.352461     5A    -11.283320     6A    -11.279967
       7A    -11.258254     8A    -11.229168     9A     -1.395434
      10A     -1.380676    11A     -1.115816    12A     -1.071578
      13A     -0.957291    14A     -0.881001    15A     -0.802609
      16A     -0.756152    17A     -0.695493    18A     -0.685779
      19A     -0.646446    20A     -0.635386    21A     -0.627652
      22A     -0.572641    23A     -0.553757    24A     -0.543933
      25A     -0.534077    26A     -0.527732    27A     -0.499345
      28A     -0.451912    29A     -0.438456    30A     -0.403848

  @DF-RHF Final Energy:  -381.69953934534192

   => Energetics <=

    Nuclear Repulsion Energy =            330.7333690275453932
    One-Electron Energy =               -1174.7200192978891664
    Two-Electron Energy =                 462.2871109250017980
    Total Energy =                       -381.6995393453419183
  Basis Set: (AUG-CC-PVTZ AUX)
    Blend: AUG-CC-PVTZ-RI
    Molecular point group: c1

    Geometry (in Angstrom), charge = 0, multiplicity = 1:

       Center              X                  Y                   Z               Mass
    ------------   -----------------  -----------------  -----------------  -----------------
         O            1.178942077280     1.332810021747     0.000000079974    15.994914619570
         O           -3.791303922720     0.164410021747    -0.000002920026    15.994914619570
         C            2.264906077280    -0.816897978253    -0.000006920026    12.000000000000
         C            3.591298077280    -0.072445978253     0.000004079974    12.000000000000
         C            1.064827977280     0.086819421747     0.000000079974    12.000000000000
         C           -0.279066922720    -0.542317978253     0.000004079974    12.000000000000
         C           -1.410773922720     0.187716021747     0.000000079974    12.000000000000
         C           -2.733010922720    -0.458540978253     0.000002079974    12.000000000000
         H            2.178784077280    -1.477736978253    -0.873894920026     1.007825032230
         H            2.178781077280    -1.477758978253     0.873864079974     1.007825032230
         H            3.674593077280     0.567205021747    -0.880721920026     1.007825032230
         H            3.674600077280     0.567169021747     0.880755079974     1.007825032230
         H            4.426215077280    -0.777616978253    -0.000013920026     1.007825032230
         H           -0.326727922720    -1.631836978253     0.000010079974     1.007825032230
         H           -1.366940922720     1.274457021747    -0.000005920026     1.007825032230
         H           -2.724631922720    -1.568373978253     0.000011079974     1.007825032230

  Basis Set: AUG-CC-PVTZ
    Blend: AUG-CC-PVTZ
  Basis Set: (AUG-CC-PVTZ AUX)
    Blend: AUG-CC-PVTZ-JKFIT
	 Reference Energy          =    -381.6995393453419183 [Eh]
	 Singles Energy            =      -0.0000000000000000 [Eh]
	 Same-Spin Energy          =      -0.3780998895792541 [Eh]
	 Opposite-Spin Energy      =      -1.2253903221582649 [Eh]
	 Correlation Energy        =      -1.6034902117375189 [Eh]
	 Total Energy              =    -383.3030295570794124 [Eh]

	 ================> DF-SCS-MP2 Energies <==================
	-----------------------------------------------------------
	 SCS Same-Spin Scale       =       0.3333333333333333 [-]
	 SCS Opposite-Spin Scale   =       1.2000000000000000 [-]
	 SCS Same-Spin Energy      =      -0.1260332965264180 [Eh]
	 SCS Opposite-Spin Energy  =      -1.4704683865899180 [Eh]
	 SCS Correlation Energy    =      -1.5965016831163359 [Eh]
	 SCS Total Energy          =    -383.2960410284582622 [Eh]
	-----------------------------------------------------------

  Dipole Moment: [D]
     X:     2.7596      Y:    -3.5682      Z:     0.0000     Total:     4.5108

*** Psi4 exiting successfully. Buy a developer a beer!
