                               Psi4 1.4a3.dev225

  ==> Input File <==

--------------------------------------------------------------------------
#psi4
#
memory 32 gb

molecule  {
0 1
  O        1.0820120     1.3681640     0.0000000
  O       -3.8882340     0.1997640    -0.0000030
  C        2.1679760    -0.7815440    -0.0000070
  C        3.4943680    -0.0370920     0.0000040
  C        0.9697220     0.1420900     0.0000000
  C       -0.3759970    -0.5069640     0.0000040
  C       -1.5077040     0.2230700     0.0000000
  C       -2.8299410    -0.4231870     0.0000020
  H        2.0818540    -1.4423830    -0.8738950
  H        2.0818510    -1.4424050     0.8738640
  H        3.5776630     0.6025590    -0.8807220
  H        3.5776700     0.6025230     0.8807550
  H        4.3292850    -0.7422630    -0.0000140
  H       -0.4236580    -1.5964830     0.0000100
  H       -1.4646770     1.2898272    -0.0000059
  H       -2.8215620    -1.5330200     0.0000110
units angstrom
no_reorient  #important for SAPT in psi4, default
symmetry c1  #important for SAPT in psi4, default
}

set PROPERTIES_ORIGIN ["COM"]
properties('MP2/aug-cc-pvtz', properties = ['dipole'])
--------------------------------------------------------------------------

    Molecular point group: c1
  Charge       = 0
  Multiplicity = 1
  Basis Set: AUG-CC-PVTZ
    Blend: AUG-CC-PVTZ
  Basis Set: (AUG-CC-PVTZ AUX)
    Blend: AUG-CC-PVTZ-JKFIT

    Orbital Energies [Eh]
    ---------------------

    Doubly Occupied:

       1A    -20.574084     2A    -20.564200     3A    -11.354391
       4A    -11.351599     5A    -11.282680     6A    -11.276573
       7A    -11.257519     8A    -11.228762     9A     -1.395036
      10A     -1.393600    11A     -1.114852    12A     -1.069826
      13A     -0.954744    14A     -0.879087    15A     -0.803624
      16A     -0.756737    17A     -0.696531    18A     -0.685515
      19A     -0.645974    20A     -0.637389    21A     -0.630080
      22A     -0.576612    23A     -0.554363    24A     -0.543692
      25A     -0.536305    26A     -0.528560    27A     -0.502288
      28A     -0.451689    29A     -0.435759    30A     -0.404401

  @DF-RHF Final Energy:  -381.70278362235143

   => Energetics <=

    Nuclear Repulsion Energy =            330.9411391049336544
    One-Electron Energy =               -1175.1149003187656490
    Two-Electron Energy =                 462.4709775914805618
    Total Energy =                       -381.7027836223514328
  Basis Set: (AUG-CC-PVTZ AUX)
    Blend: AUG-CC-PVTZ-RI
    Molecular point group: c1

    Geometry (in Angstrom), charge = 0, multiplicity = 1:

       Center              X                  Y                   Z               Mass
    ------------   -----------------  -----------------  -----------------  -----------------
         O            1.178753978788     1.330856837625     0.000000079074    15.994914619570
         O           -3.791492021212     0.162456837625    -0.000002920926    15.994914619570
         C            2.264717978788    -0.818851162375    -0.000006920926    12.000000000000
         C            3.591109978788    -0.074399162375     0.000004079074    12.000000000000
         C            1.066463978788     0.104782837625     0.000000079074    12.000000000000
         C           -0.279255021212    -0.544271162375     0.000004079074    12.000000000000
         C           -1.410962021212     0.185762837625     0.000000079074    12.000000000000
         C           -2.733199021212    -0.460494162375     0.000002079074    12.000000000000
         H            2.178595978788    -1.479690162375    -0.873894920926     1.007825032230
         H            2.178592978788    -1.479712162375     0.873864079074     1.007825032230
         H            3.674404978788     0.565251837625    -0.880721920926     1.007825032230
         H            3.674411978788     0.565215837625     0.880755079074     1.007825032230
         H            4.426026978788    -0.779570162375    -0.000013920926     1.007825032230
         H           -0.326916021212    -1.633790162375     0.000010079074     1.007825032230
         H           -1.367935021212     1.252520037625    -0.000005820926     1.007825032230
         H           -2.724820021212    -1.570327162375     0.000011079074     1.007825032230

  Basis Set: AUG-CC-PVTZ
    Blend: AUG-CC-PVTZ
  Basis Set: (AUG-CC-PVTZ AUX)
    Blend: AUG-CC-PVTZ-JKFIT
	 Reference Energy          =    -381.7027836223514328 [Eh]
	 Singles Energy            =      -0.0000000000000000 [Eh]
	 Same-Spin Energy          =      -0.3773572399815748 [Eh]
	 Opposite-Spin Energy      =      -1.2238564345523688 [Eh]
	 Correlation Energy        =      -1.6012136745339436 [Eh]
	 Total Energy              =    -383.3039972968853704 [Eh]

	 ================> DF-SCS-MP2 Energies <==================
	-----------------------------------------------------------
	 SCS Same-Spin Scale       =       0.3333333333333333 [-]
	 SCS Opposite-Spin Scale   =       1.2000000000000000 [-]
	 SCS Same-Spin Energy      =      -0.1257857466605249 [Eh]
	 SCS Opposite-Spin Energy  =      -1.4686277214628425 [Eh]
	 SCS Correlation Energy    =      -1.5944134681233675 [Eh]
	 SCS Total Energy          =    -383.2971970904748105 [Eh]
	-----------------------------------------------------------

  Dipole Moment: [D]
     X:     2.7723      Y:    -3.5073      Z:     0.0000     Total:     4.4707

*** Psi4 exiting successfully. Buy a developer a beer!
