                               Psi4 1.3.2 release

  ==> Input File <==

--------------------------------------------------------------------------
#psi4
#
memory 32 gb

molecule  {
0 1
  O        1.1855920    -1.3251230    -0.0110750
  O       -3.7532080    -0.2331385    -0.0311678
  C        2.2579520     0.8287430     0.0207180
  C        3.5859950     0.0918750    -0.0061980
  C        1.0665970    -0.1008810     0.0170560
  C       -0.2810060     0.5415760     0.0240110
  C       -1.4438020    -0.2595272    -0.0003070
  C       -2.7329950     0.4481680    -0.0067340
  H        2.1768340     1.4746290     0.9052650
  H        2.1584520     1.5067170    -0.8392700
  H        3.6798240    -0.5618240     0.8622080
  H        3.6612870    -0.5322660    -0.8978130
  H        4.4176170     0.8001410    -0.0031560
  H       -0.3336460     1.6309400     0.0414110
  H       -1.3609630    -1.2775220    -0.0163660
  H       -2.7297600     1.5577740     0.0156350
units angstrom
no_reorient  #important for SAPT in psi4, default
symmetry c1  #important for SAPT in psi4, default
}

set PROPERTIES_ORIGIN ["COM"]
properties('MP2/aug-cc-pvtz', properties = ['dipole'])
--------------------------------------------------------------------------

    Molecular point group: c1
  Charge       = 0
  Multiplicity = 1
  Basis Set: AUG-CC-PVTZ
    Blend: AUG-CC-PVTZ
  Basis Set: (AUG-CC-PVTZ AUX)
    Blend: AUG-CC-PVTZ-JKFIT

    Orbital Energies [Eh]
    ---------------------

    Doubly Occupied:

       1A    -20.571649     2A    -20.561590     3A    -11.351728
       4A    -11.351593     5A    -11.288503     6A    -11.282047
       7A    -11.255529     8A    -11.227200     9A     -1.396242
      10A     -1.392282    11A     -1.101944    12A     -1.067088
      13A     -0.954202    14A     -0.874563    15A     -0.813457
      16A     -0.751598    17A     -0.696589    18A     -0.681400
      19A     -0.644637    20A     -0.641344    21A     -0.623805
      22A     -0.587358    23A     -0.552798    24A     -0.541754
      25A     -0.535780    26A     -0.527586    27A     -0.500615
      28A     -0.452277    29A     -0.433249    30A     -0.389258

  @DF-RHF Final Energy:  -381.69038665890366

   => Energetics <=

    Nuclear Repulsion Energy =            330.8139230226171321
    One-Electron Energy =               -1174.9092875032476968
    Two-Electron Energy =                 462.4049778217269022
    Total Energy =                       -381.6903866589036625
  Basis Set: (AUG-CC-PVTZ AUX)
    Blend: AUG-CC-PVTZ-RI
    Molecular point group: c1

    Geometry (in Angstrom), charge = 0, multiplicity = 1:

       Center              X                  Y                   Z               Mass
    ------------   -----------------  -----------------  -----------------  -----------------
         O            1.184475971968    -1.310038624338    -0.010854812449    15.994914619570
         O           -3.754324028032    -0.218054124338    -0.030947612449    15.994914619570
         C            2.256835971968     0.843827375662     0.020938187551    12.000000000000
         C            3.584878971968     0.106959375662    -0.005977812449    12.000000000000
         C            1.065480971968    -0.085796624338     0.017276187551    12.000000000000
         C           -0.282122028032     0.556660375662     0.024231187551    12.000000000000
         C           -1.444918028032    -0.244442824338    -0.000086812449    12.000000000000
         C           -2.734111028032     0.463252375662    -0.006513812449    12.000000000000
         H            2.175717971968     1.489713375662     0.905485187551     1.007825032230
         H            2.157335971968     1.521801375662    -0.839049812449     1.007825032230
         H            3.678707971968    -0.546739624338     0.862428187551     1.007825032230
         H            3.660170971968    -0.517181624338    -0.897592812449     1.007825032230
         H            4.416500971968     0.815225375662    -0.002935812449     1.007825032230
         H           -0.334762028032     1.646024375662     0.041631187551     1.007825032230
         H           -1.362079028032    -1.262437624338    -0.016145812449     1.007825032230
         H           -2.730876028032     1.572858375662     0.015855187551     1.007825032230

  Basis Set: AUG-CC-PVTZ
    Blend: AUG-CC-PVTZ
  Basis Set: (AUG-CC-PVTZ AUX)
    Blend: AUG-CC-PVTZ-JKFIT
	 Reference Energy          =    -381.6903866589036625 [Eh]
	 Singles Energy            =      -0.0000000000000000 [Eh]
	 Same-Spin Energy          =      -0.3781191201429471 [Eh]
	 Opposite-Spin Energy      =      -1.2255479503536866 [Eh]
	 Correlation Energy        =      -1.6036670704966336 [Eh]
	 Total Energy              =    -383.2940537294002752 [Eh]

	 ================> DF-SCS-MP2 Energies <==================
	-----------------------------------------------------------
	 SCS Same-Spin Scale       =       0.3333333333333333 [-]
	 SCS Opposite-Spin Scale   =       1.2000000000000000 [-]
	 SCS Same-Spin Energy      =      -0.1260397067143157 [Eh]
	 SCS Opposite-Spin Energy  =      -1.4706575404244238 [Eh]
	 SCS Correlation Energy    =      -1.5966972471387395 [Eh]
	 SCS Total Energy          =    -383.2870839060424260 [Eh]
	-----------------------------------------------------------

  Dipole Moment: [D]
     X:     2.6050      Y:     3.6318      Z:     0.0908     Total:     4.4704

*** Psi4 exiting successfully. Buy a developer a beer!
