                               Psi4 1.4a3.dev225

  ==> Input File <==

--------------------------------------------------------------------------
#psi4
#
memory 32 gb

molecule  {
0 1
  O        1.0820120     1.3681640     0.0000000
  O       -3.8882340     0.1997640    -0.0000030
  C        2.1679760    -0.7815440    -0.0000070
  C        3.4943680    -0.0370920     0.0000040
  C        0.9651618     0.0922984     0.0000000
  C       -0.3759970    -0.5069640     0.0000040
  C       -1.5077040     0.2230700     0.0000000
  C       -2.8299410    -0.4231870     0.0000020
  H        2.0818540    -1.4423830    -0.8738950
  H        2.0818510    -1.4424050     0.8738640
  H        3.5776630     0.6025590    -0.8807220
  H        3.5776700     0.6025230     0.8807550
  H        4.3292850    -0.7422630    -0.0000140
  H       -0.4236580    -1.5964830     0.0000100
  H       -1.4638710     1.3098110    -0.0000060
  H       -2.8215620    -1.5330200     0.0000110
units angstrom
no_reorient  #important for SAPT in psi4, default
symmetry c1  #important for SAPT in psi4, default
}

set PROPERTIES_ORIGIN ["COM"]
properties('MP2/aug-cc-pvtz', properties = ['dipole'])
--------------------------------------------------------------------------

    Molecular point group: c1
  Charge       = 0
  Multiplicity = 1
  Basis Set: AUG-CC-PVTZ
    Blend: AUG-CC-PVTZ
  Basis Set: (AUG-CC-PVTZ AUX)
    Blend: AUG-CC-PVTZ-JKFIT

    Orbital Energies [Eh]
    ---------------------

    Doubly Occupied:

       1A    -20.576405     2A    -20.559554     3A    -11.356880
       4A    -11.353602     5A    -11.284211     6A    -11.282096
       7A    -11.259315     8A    -11.229808     9A     -1.396625
      10A     -1.361894    11A     -1.118018    12A     -1.074457
      13A     -0.961414    14A     -0.883927    15A     -0.804521
      16A     -0.756292    17A     -0.694834    18A     -0.686299
      19A     -0.647427    20A     -0.635309    21A     -0.623190
      22A     -0.570259    23A     -0.553726    24A     -0.544917
      25A     -0.531689    26A     -0.525958    27A     -0.494105
      28A     -0.452143    29A     -0.441633    30A     -0.402673

  @DF-RHF Final Energy:  -381.69272519114668

   => Energetics <=

    Nuclear Repulsion Energy =            330.5723512334471366
    One-Electron Energy =               -1174.4037916280979061
    Two-Electron Energy =                 462.1387152035041481
    Total Energy =                       -381.6927251911466783
  Basis Set: (AUG-CC-PVTZ AUX)
    Blend: AUG-CC-PVTZ-RI
    Molecular point group: c1

    Geometry (in Angstrom), charge = 0, multiplicity = 1:

       Center              X                  Y                   Z               Mass
    ------------   -----------------  -----------------  -----------------  -----------------
         O            1.179235093685     1.336009416902     0.000000079974    15.994914619570
         O           -3.791010906315     0.167609416902    -0.000002920026    15.994914619570
         C            2.265199093685    -0.813698583098    -0.000006920026    12.000000000000
         C            3.591591093685    -0.069246583098     0.000004079974    12.000000000000
         C            1.062384893685     0.060143816902     0.000000079974    12.000000000000
         C           -0.278773906315    -0.539118583098     0.000004079974    12.000000000000
         C           -1.410480906315     0.190915416902     0.000000079974    12.000000000000
         C           -2.732717906315    -0.455341583098     0.000002079974    12.000000000000
         H            2.179077093685    -1.474537583098    -0.873894920026     1.007825032230
         H            2.179074093685    -1.474559583098     0.873864079974     1.007825032230
         H            3.674886093685     0.570404416902    -0.880721920026     1.007825032230
         H            3.674893093685     0.570368416902     0.880755079974     1.007825032230
         H            4.426508093685    -0.774417583098    -0.000013920026     1.007825032230
         H           -0.326434906315    -1.628637583098     0.000010079974     1.007825032230
         H           -1.366647906315     1.277656416902    -0.000005920026     1.007825032230
         H           -2.724338906315    -1.565174583098     0.000011079974     1.007825032230

  Basis Set: AUG-CC-PVTZ
    Blend: AUG-CC-PVTZ
  Basis Set: (AUG-CC-PVTZ AUX)
    Blend: AUG-CC-PVTZ-JKFIT
	 Reference Energy          =    -381.6927251911466783 [Eh]
	 Singles Energy            =      -0.0000000000000000 [Eh]
	 Same-Spin Energy          =      -0.3791864766654388 [Eh]
	 Opposite-Spin Energy      =      -1.2276000783682797 [Eh]
	 Correlation Energy        =      -1.6067865550337184 [Eh]
	 Total Energy              =    -383.2995117461803716 [Eh]

	 ================> DF-SCS-MP2 Energies <==================
	-----------------------------------------------------------
	 SCS Same-Spin Scale       =       0.3333333333333333 [-]
	 SCS Opposite-Spin Scale   =       1.2000000000000000 [-]
	 SCS Same-Spin Energy      =      -0.1263954922218129 [Eh]
	 SCS Opposite-Spin Energy  =      -1.4731200940419356 [Eh]
	 SCS Correlation Energy    =      -1.5995155862637485 [Eh]
	 SCS Total Energy          =    -383.2922407774104272 [Eh]
	-----------------------------------------------------------

  Dipole Moment: [D]
     X:     2.7504      Y:    -3.6549      Z:     0.0000     Total:     4.5742

*** Psi4 exiting successfully. Buy a developer a beer!
