                               Psi4 1.3.2 release

  ==> Input File <==

--------------------------------------------------------------------------
#psi4
#
memory 32 gb

molecule  {
0 1
  O        1.1855920    -1.3251230    -0.0110750
  O       -3.7874790    -0.1788050    -0.0307850
  C        2.2579520     0.8287430     0.0207180
  C        3.5859950     0.0918750    -0.0061980
  C        1.0665970    -0.1008810     0.0170560
  C       -0.1907402     0.4985426     0.0235451
  C       -1.4085440    -0.1910960     0.0012370
  C       -2.7329950     0.4481680    -0.0067340
  H        2.1768340     1.4746290     0.9052650
  H        2.1584520     1.5067170    -0.8392700
  H        3.6798240    -0.5618240     0.8622080
  H        3.6612870    -0.5322660    -0.8978130
  H        4.4176170     0.8001410    -0.0031560
  H       -0.3336460     1.6309400     0.0414110
  H       -1.3609630    -1.2775220    -0.0163660
  H       -2.7297600     1.5577740     0.0156350
units angstrom
no_reorient  #important for SAPT in psi4, default
symmetry c1  #important for SAPT in psi4, default
}

set PROPERTIES_ORIGIN ["COM"]
properties('MP2/aug-cc-pvtz', properties = ['dipole'])
--------------------------------------------------------------------------

    Molecular point group: c1
  Charge       = 0
  Multiplicity = 1
  Basis Set: AUG-CC-PVTZ
    Blend: AUG-CC-PVTZ
  Basis Set: (AUG-CC-PVTZ AUX)
    Blend: AUG-CC-PVTZ-JKFIT

    Orbital Energies [Eh]
    ---------------------

    Doubly Occupied:

       1A    -20.580676     2A    -20.560425     3A    -11.357374
       4A    -11.344465     5A    -11.292083     6A    -11.286379
       7A    -11.254191     8A    -11.226338     9A     -1.400862
      10A     -1.394837    11A     -1.113020    12A     -1.067164
      13A     -0.971090    14A     -0.880144    15A     -0.804829
      16A     -0.757011    17A     -0.698081    18A     -0.683434
      19A     -0.645630    20A     -0.642209    21A     -0.632105
      22A     -0.562223    23A     -0.557536    24A     -0.538997
      25A     -0.535863    26A     -0.527765    27A     -0.500950
      28A     -0.455564    29A     -0.441601    30A     -0.393802

  @DF-RHF Final Energy:  -381.68590782983688

   => Energetics <=

    Nuclear Repulsion Energy =            331.7873254444285749
    One-Electron Energy =               -1176.7331629632974455
    Two-Electron Energy =                 463.2599296890319920
    Total Energy =                       -381.6859078298368786
  Basis Set: (AUG-CC-PVTZ AUX)
    Blend: AUG-CC-PVTZ-RI
    Molecular point group: c1

    Geometry (in Angstrom), charge = 0, multiplicity = 1:

       Center              X                  Y                   Z               Mass
    ------------   -----------------  -----------------  -----------------  -----------------
         O            1.175925297204    -1.320514374831    -0.011024911869    15.994914619570
         O           -3.797145702796    -0.174196374831    -0.030734911869    15.994914619570
         C            2.248285297204     0.833351625169     0.020768088131    12.000000000000
         C            3.576328297204     0.096483625169    -0.006147911869    12.000000000000
         C            1.056930297204    -0.096272374831     0.017106088131    12.000000000000
         C           -0.200406902796     0.503151225169     0.023595188131    12.000000000000
         C           -1.418210702796    -0.186487374831     0.001287088131    12.000000000000
         C           -2.742661702796     0.452776625169    -0.006683911869    12.000000000000
         H            2.167167297204     1.479237625169     0.905315088131     1.007825032230
         H            2.148785297204     1.511325625169    -0.839219911869     1.007825032230
         H            3.670157297204    -0.557215374831     0.862258088131     1.007825032230
         H            3.651620297204    -0.527657374831    -0.897762911869     1.007825032230
         H            4.407950297204     0.804749625169    -0.003105911869     1.007825032230
         H           -0.343312702796     1.635548625169     0.041461088131     1.007825032230
         H           -1.370629702796    -1.272913374831    -0.016315911869     1.007825032230
         H           -2.739426702796     1.562382625169     0.015685088131     1.007825032230

  Basis Set: AUG-CC-PVTZ
    Blend: AUG-CC-PVTZ
  Basis Set: (AUG-CC-PVTZ AUX)
    Blend: AUG-CC-PVTZ-JKFIT
	 Reference Energy          =    -381.6859078298368786 [Eh]
	 Singles Energy            =      -0.0000000000000000 [Eh]
	 Same-Spin Energy          =      -0.3794385466481707 [Eh]
	 Opposite-Spin Energy      =      -1.2274895700658468 [Eh]
	 Correlation Energy        =      -1.6069281167140175 [Eh]
	 Total Energy              =    -383.2928359465508947 [Eh]

	 ================> DF-SCS-MP2 Energies <==================
	-----------------------------------------------------------
	 SCS Same-Spin Scale       =       0.3333333333333333 [-]
	 SCS Opposite-Spin Scale   =       1.2000000000000000 [-]
	 SCS Same-Spin Energy      =      -0.1264795155493902 [Eh]
	 SCS Opposite-Spin Energy  =      -1.4729874840790160 [Eh]
	 SCS Correlation Energy    =      -1.5994669996284063 [Eh]
	 SCS Total Energy          =    -383.2853748294652974 [Eh]
	-----------------------------------------------------------

  Dipole Moment: [D]
     X:     2.4922      Y:     3.5093      Z:     0.0889     Total:     4.3051

*** Psi4 exiting successfully. Buy a developer a beer!
