                               Psi4 1.4a3.dev225

  ==> Input File <==

--------------------------------------------------------------------------
#psi4
#
memory 32 gb

molecule  {
0 1
  O        1.0820120     1.3681640     0.0000000
  O       -3.8882340     0.1997640    -0.0000030
  C        2.1679760    -0.7815440    -0.0000070
  C        3.4943680    -0.0370920     0.0000040
  C        0.9697220     0.1420900     0.0000000
  C       -0.3759970    -0.5069640     0.0000040
  C       -1.4656875     0.1959663     0.0000001
  C       -2.8299410    -0.4231870     0.0000020
  H        2.0818540    -1.4423830    -0.8738950
  H        2.0818510    -1.4424050     0.8738640
  H        3.5776630     0.6025590    -0.8807220
  H        3.5776700     0.6025230     0.8807550
  H        4.3292850    -0.7422630    -0.0000140
  H       -0.4236580    -1.5964830     0.0000100
  H       -1.4638710     1.3098110    -0.0000060
  H       -2.8215620    -1.5330200     0.0000110
units angstrom
no_reorient  #important for SAPT in psi4, default
symmetry c1  #important for SAPT in psi4, default
}

set PROPERTIES_ORIGIN ["COM"]
properties('MP2/aug-cc-pvtz', properties = ['dipole'])
--------------------------------------------------------------------------

    Molecular point group: c1
  Charge       = 0
  Multiplicity = 1
  Basis Set: AUG-CC-PVTZ
    Blend: AUG-CC-PVTZ
  Basis Set: (AUG-CC-PVTZ AUX)
    Blend: AUG-CC-PVTZ-JKFIT

    Orbital Energies [Eh]
    ---------------------

    Doubly Occupied:

       1A    -20.576677     2A    -20.563615     3A    -11.354354
       4A    -11.353779     5A    -11.275383     6A    -11.273200
       7A    -11.257156     8A    -11.228468     9A     -1.395442
      10A     -1.393363    11A     -1.122906    12A     -1.070011
      13A     -0.950664    14A     -0.879500    15A     -0.797816
      16A     -0.757193    17A     -0.696204    18A     -0.687212
      19A     -0.645783    20A     -0.637260    21A     -0.630429
      22A     -0.566556    23A     -0.555150    24A     -0.543845
      25A     -0.536091    26A     -0.528233    27A     -0.502248
      28A     -0.450636    29A     -0.433780    30A     -0.415286

  @DF-RHF Final Energy:  -381.70093032257728

   => Energetics <=

    Nuclear Repulsion Energy =            331.2948628495784646
    One-Electron Energy =               -1175.8351064955304537
    Two-Electron Energy =                 462.8393133233746539
    Total Energy =                       -381.7009303225772783
  Basis Set: (AUG-CC-PVTZ AUX)
    Blend: AUG-CC-PVTZ-RI
    Molecular point group: c1

    Geometry (in Angstrom), charge = 0, multiplicity = 1:

       Center              X                  Y                   Z               Mass
    ------------   -----------------  -----------------  -----------------  -----------------
         O            1.174247067968     1.333579707870     0.000000069265    15.994914619570
         O           -3.795998932032     0.165179707870    -0.000002930735    15.994914619570
         C            2.260211067968    -0.816128292130    -0.000006930735    12.000000000000
         C            3.586603067968    -0.071676292130     0.000004069265    12.000000000000
         C            1.061957067968     0.107505707870     0.000000069265    12.000000000000
         C           -0.283761932032    -0.541548292130     0.000004069265    12.000000000000
         C           -1.373452432032     0.161382007870     0.000000169265    12.000000000000
         C           -2.737705932032    -0.457771292130     0.000002069265    12.000000000000
         H            2.174089067968    -1.476967292130    -0.873894930735     1.007825032230
         H            2.174086067968    -1.476989292130     0.873864069265     1.007825032230
         H            3.669898067968     0.567974707870    -0.880721930735     1.007825032230
         H            3.669905067968     0.567938707870     0.880755069265     1.007825032230
         H            4.421520067968    -0.776847292130    -0.000013930735     1.007825032230
         H           -0.331422932032    -1.631067292130     0.000010069265     1.007825032230
         H           -1.371635932032     1.275226707870    -0.000005930735     1.007825032230
         H           -2.729326932032    -1.567604292130     0.000011069265     1.007825032230

  Basis Set: AUG-CC-PVTZ
    Blend: AUG-CC-PVTZ
  Basis Set: (AUG-CC-PVTZ AUX)
    Blend: AUG-CC-PVTZ-JKFIT
	 Reference Energy          =    -381.7009303225772783 [Eh]
	 Singles Energy            =      -0.0000000000000000 [Eh]
	 Same-Spin Energy          =      -0.3769185235641191 [Eh]
	 Opposite-Spin Energy      =      -1.2229105002208784 [Eh]
	 Correlation Energy        =      -1.5998290237849977 [Eh]
	 Total Energy              =    -383.3007593463622698 [Eh]

	 ================> DF-SCS-MP2 Energies <==================
	-----------------------------------------------------------
	 SCS Same-Spin Scale       =       0.3333333333333333 [-]
	 SCS Opposite-Spin Scale   =       1.2000000000000000 [-]
	 SCS Same-Spin Energy      =      -0.1256395078547064 [Eh]
	 SCS Opposite-Spin Energy  =      -1.4674926002650541 [Eh]
	 SCS Correlation Energy    =      -1.5931321081197605 [Eh]
	 SCS Total Energy          =    -383.2940624306970108 [Eh]
	-----------------------------------------------------------

  Dipole Moment: [D]
     X:     2.6986      Y:    -3.5060      Z:     0.0000     Total:     4.4243

*** Psi4 exiting successfully. Buy a developer a beer!
