                               Psi4 1.3.2 release

  ==> Input File <==

--------------------------------------------------------------------------
#psi4
#
memory 32 gb

molecule  {
0 1
  O        1.1855920    -1.3251230    -0.0110750
  O       -3.7874790    -0.1788050    -0.0307850
  C        2.2579520     0.8287430     0.0207180
  C        3.5859950     0.0918750    -0.0061980
  C        1.0665970    -0.1008810     0.0170560
  C       -0.2939677     0.5611445     0.0240997
  C       -1.4085440    -0.1910960     0.0012370
  C       -2.7216400     0.4711837    -0.0063089
  H        2.1768340     1.4746290     0.9052650
  H        2.1584520     1.5067170    -0.8392700
  H        3.6798240    -0.5618240     0.8622080
  H        3.6612870    -0.5322660    -0.8978130
  H        4.4176170     0.8001410    -0.0031560
  H       -0.3336460     1.6309400     0.0414110
  H       -1.3609630    -1.2775220    -0.0163660
  H       -2.7297600     1.5577740     0.0156350
units angstrom
no_reorient  #important for SAPT in psi4, default
symmetry c1  #important for SAPT in psi4, default
}

set PROPERTIES_ORIGIN ["COM"]
properties('MP2/aug-cc-pvtz', properties = ['dipole'])
--------------------------------------------------------------------------

    Molecular point group: c1
  Charge       = 0
  Multiplicity = 1
  Basis Set: AUG-CC-PVTZ
    Blend: AUG-CC-PVTZ
  Basis Set: (AUG-CC-PVTZ AUX)
    Blend: AUG-CC-PVTZ-JKFIT

    Orbital Energies [Eh]
    ---------------------

    Doubly Occupied:

       1A    -20.572206     2A    -20.565008     3A    -11.355589
       4A    -11.351308     5A    -11.282196     6A    -11.278467
       7A    -11.257277     8A    -11.228481     9A     -1.394645
      10A     -1.380198    11A     -1.115423    12A     -1.070666
      13A     -0.953051    14A     -0.879814    15A     -0.806260
      16A     -0.756270    17A     -0.697894    18A     -0.684548
      19A     -0.646206    20A     -0.635883    21A     -0.623810
      22A     -0.579840    23A     -0.550485    24A     -0.544103
      25A     -0.531940    26A     -0.528936    27A     -0.502119
      28A     -0.453499    29A     -0.434486    30A     -0.404087

  @DF-RHF Final Energy:  -381.69934166150364

   => Energetics <=

    Nuclear Repulsion Energy =            330.6886237964421298
    One-Electron Energy =               -1174.6465363709614849
    Two-Electron Energy =                 462.2585709130157170
    Total Energy =                       -381.6993416615036381
  Basis Set: (AUG-CC-PVTZ AUX)
    Blend: AUG-CC-PVTZ-RI
    Molecular point group: c1

    Geometry (in Angstrom), charge = 0, multiplicity = 1:

       Center              X                  Y                   Z               Mass
    ------------   -----------------  -----------------  -----------------  -----------------
         O            1.185764173567    -1.329683396909    -0.011129830612    15.994914619570
         O           -3.787306826433    -0.183365396909    -0.030839830612    15.994914619570
         C            2.258124173567     0.824182603091     0.020663169388    12.000000000000
         C            3.586167173567     0.087314603091    -0.006252830612    12.000000000000
         C            1.066769173567    -0.105441396909     0.017001169388    12.000000000000
         C           -0.293795526433     0.556584103091     0.024044869388    12.000000000000
         C           -1.408371826433    -0.195656396909     0.001182169388    12.000000000000
         C           -2.721467826433     0.466623303091    -0.006363730612    12.000000000000
         H            2.177006173567     1.470068603091     0.905210169388     1.007825032230
         H            2.158624173567     1.502156603091    -0.839324830612     1.007825032230
         H            3.679996173567    -0.566384396909     0.862153169388     1.007825032230
         H            3.661459173567    -0.536826396909    -0.897867830612     1.007825032230
         H            4.417789173567     0.795580603091    -0.003210830612     1.007825032230
         H           -0.333473826433     1.626379603091     0.041356169388     1.007825032230
         H           -1.360790826433    -1.282082396909    -0.016420830612     1.007825032230
         H           -2.729587826433     1.553213603091     0.015580169388     1.007825032230

  Basis Set: AUG-CC-PVTZ
    Blend: AUG-CC-PVTZ
  Basis Set: (AUG-CC-PVTZ AUX)
    Blend: AUG-CC-PVTZ-JKFIT
	 Reference Energy          =    -381.6993416615036381 [Eh]
	 Singles Energy            =      -0.0000000000000000 [Eh]
	 Same-Spin Energy          =      -0.3778193984196928 [Eh]
	 Opposite-Spin Energy      =      -1.2250041674828371 [Eh]
	 Correlation Energy        =      -1.6028235659025301 [Eh]
	 Total Energy              =    -383.3021652274061921 [Eh]

	 ================> DF-SCS-MP2 Energies <==================
	-----------------------------------------------------------
	 SCS Same-Spin Scale       =       0.3333333333333333 [-]
	 SCS Opposite-Spin Scale   =       1.2000000000000000 [-]
	 SCS Same-Spin Energy      =      -0.1259397994732309 [Eh]
	 SCS Opposite-Spin Energy  =      -1.4700050009794046 [Eh]
	 SCS Correlation Energy    =      -1.5959448004526355 [Eh]
	 SCS Total Energy          =    -383.2952864619562661 [Eh]
	-----------------------------------------------------------

  Dipole Moment: [D]
     X:     2.8316      Y:     3.5936      Z:     0.0925     Total:     4.5761

*** Psi4 exiting successfully. Buy a developer a beer!
