                               Psi4 1.3.2 release

  ==> Input File <==

--------------------------------------------------------------------------
#psi4
#
memory 32 gb

molecule  {
0 1
  O        1.1855920    -1.3251230    -0.0110750
  O       -3.7874790    -0.1788050    -0.0307850
  C        2.2579520     0.8287430     0.0207180
  C        3.4985669     0.1403847    -0.0044261
  C        1.0665970    -0.1008810     0.0170560
  C       -0.2810060     0.5415760     0.0240110
  C       -1.4085440    -0.1910960     0.0012370
  C       -2.7329950     0.4481680    -0.0067340
  H        2.1768340     1.4746290     0.9052650
  H        2.1584520     1.5067170    -0.8392700
  H        3.6798240    -0.5618240     0.8622080
  H        3.6612870    -0.5322660    -0.8978130
  H        4.4176170     0.8001410    -0.0031560
  H       -0.3336460     1.6309400     0.0414110
  H       -1.3609630    -1.2775220    -0.0163660
  H       -2.7297600     1.5577740     0.0156350
units angstrom
no_reorient  #important for SAPT in psi4, default
symmetry c1  #important for SAPT in psi4, default
}

set PROPERTIES_ORIGIN ["COM"]
properties('MP2/aug-cc-pvtz', properties = ['dipole'])
--------------------------------------------------------------------------

    Molecular point group: c1
  Charge       = 0
  Multiplicity = 1
  Basis Set: AUG-CC-PVTZ
    Blend: AUG-CC-PVTZ
  Basis Set: (AUG-CC-PVTZ AUX)
    Blend: AUG-CC-PVTZ-JKFIT

    Orbital Energies [Eh]
    ---------------------

    Doubly Occupied:

       1A    -20.574280     2A    -20.565176     3A    -11.354463
       4A    -11.351602     5A    -11.282621     6A    -11.278289
       7A    -11.253644     8A    -11.232402     9A     -1.396274
      10A     -1.394953    11A     -1.116873    12A     -1.087837
      13A     -0.955115    14A     -0.872526    15A     -0.800989
      16A     -0.757709    17A     -0.699422    18A     -0.687510
      19A     -0.651616    20A     -0.638599    21A     -0.632734
      22A     -0.574071    23A     -0.569816    24A     -0.553558
      25A     -0.531177    26A     -0.513272    27A     -0.487342
      28A     -0.451927    29A     -0.435941    30A     -0.404944

  @DF-RHF Final Energy:  -381.69092704832940

   => Energetics <=

    Nuclear Repulsion Energy =            332.5643224530196562
    One-Electron Energy =               -1178.2971242483422429
    Two-Electron Energy =                 464.0418747469931304
    Total Energy =                       -381.6909270483293994
  Basis Set: (AUG-CC-PVTZ AUX)
    Blend: AUG-CC-PVTZ-RI
    Molecular point group: c1

    Geometry (in Angstrom), charge = 0, multiplicity = 1:

       Center              X                  Y                   Z               Mass
    ------------   -----------------  -----------------  -----------------  -----------------
         O            1.194955021143    -1.330317974850    -0.011264563969    15.994914619570
         O           -3.778115978857    -0.183999974850    -0.030974563969    15.994914619570
         C            2.267315021143     0.823548025150     0.020528436031    12.000000000000
         C            3.507929921143     0.135189725150    -0.004615663969    12.000000000000
         C            1.075960021143    -0.106075974850     0.016866436031    12.000000000000
         C           -0.271642978857     0.536381025150     0.023821436031    12.000000000000
         C           -1.399180978857    -0.196290974850     0.001047436031    12.000000000000
         C           -2.723631978857     0.442973025150    -0.006923563969    12.000000000000
         H            2.186197021143     1.469434025150     0.905075436031     1.007825032230
         H            2.167815021143     1.501522025150    -0.839459563969     1.007825032230
         H            3.689187021143    -0.567018974850     0.862018436031     1.007825032230
         H            3.670650021143    -0.537460974850    -0.898002563969     1.007825032230
         H            4.426980021143     0.794946025150    -0.003345563969     1.007825032230
         H           -0.324282978857     1.625745025150     0.041221436031     1.007825032230
         H           -1.351599978857    -1.282716974850    -0.016555563969     1.007825032230
         H           -2.720396978857     1.552579025150     0.015445436031     1.007825032230

  Basis Set: AUG-CC-PVTZ
    Blend: AUG-CC-PVTZ
  Basis Set: (AUG-CC-PVTZ AUX)
    Blend: AUG-CC-PVTZ-JKFIT
	 Reference Energy          =    -381.6909270483293994 [Eh]
	 Singles Energy            =      -0.0000000000000000 [Eh]
	 Same-Spin Energy          =      -0.3784846840091877 [Eh]
	 Opposite-Spin Energy      =      -1.2251773137232718 [Eh]
	 Correlation Energy        =      -1.6036619977324595 [Eh]
	 Total Energy              =    -383.2945890460618443 [Eh]

	 ================> DF-SCS-MP2 Energies <==================
	-----------------------------------------------------------
	 SCS Same-Spin Scale       =       0.3333333333333333 [-]
	 SCS Opposite-Spin Scale   =       1.2000000000000000 [-]
	 SCS Same-Spin Energy      =      -0.1261615613363959 [Eh]
	 SCS Opposite-Spin Energy  =      -1.4702127764679260 [Eh]
	 SCS Correlation Energy    =      -1.5963743378043218 [Eh]
	 SCS Total Energy          =    -383.2873013861337199 [Eh]
	-----------------------------------------------------------

  Dipole Moment: [D]
     X:     2.7309      Y:     3.5104      Z:     0.0903     Total:     4.4485

*** Psi4 exiting successfully. Buy a developer a beer!
