                               Psi4 1.3.2 release

  ==> Input File <==

--------------------------------------------------------------------------
#psi4
#
memory 32 gb

molecule  {
0 1
  O        1.1855920    -1.3251230    -0.0110750
  O       -3.7874790    -0.1788050    -0.0307850
  C        2.2579520     0.8287430     0.0207180
  C        3.5859950     0.0918750    -0.0061980
  C        1.0665970    -0.1008810     0.0170560
  C       -0.3209092     0.5995831     0.0245996
  C       -1.4085440    -0.1910960     0.0012370
  C       -2.7329950     0.4481680    -0.0067340
  H        2.1768340     1.4746290     0.9052650
  H        2.1584520     1.5067170    -0.8392700
  H        3.6798240    -0.5618240     0.8622080
  H        3.6612870    -0.5322660    -0.8978130
  H        4.4176170     0.8001410    -0.0031560
  H       -0.3336460     1.6309400     0.0414110
  H       -1.4178923    -1.2785142    -0.0169177
  H       -2.7297600     1.5577740     0.0156350
units angstrom
no_reorient  #important for SAPT in psi4, default
symmetry c1  #important for SAPT in psi4, default
}

set PROPERTIES_ORIGIN ["COM"]
properties('MP2/aug-cc-pvtz', properties = ['dipole'])
--------------------------------------------------------------------------

    Molecular point group: c1
  Charge       = 0
  Multiplicity = 1
  Basis Set: AUG-CC-PVTZ
    Blend: AUG-CC-PVTZ
  Basis Set: (AUG-CC-PVTZ AUX)
    Blend: AUG-CC-PVTZ-JKFIT

    Orbital Energies [Eh]
    ---------------------

    Doubly Occupied:

       1A    -20.570701     2A    -20.565756     3A    -11.358112
       4A    -11.347291     5A    -11.282624     6A    -11.277581
       7A    -11.257145     8A    -11.228351     9A     -1.393966
      10A     -1.392310    11A     -1.113931    12A     -1.070266
      13A     -0.948615    14A     -0.877724    15A     -0.803078
      16A     -0.756157    17A     -0.697994    18A     -0.685617
      19A     -0.645704    20A     -0.635176    21A     -0.626230
      22A     -0.588843    23A     -0.552521    24A     -0.543611
      25A     -0.535317    26A     -0.528414    27A     -0.501962
      28A     -0.449148    29A     -0.429567    30A     -0.406062

  @DF-RHF Final Energy:  -381.69773113353864

   => Energetics <=

    Nuclear Repulsion Energy =            330.4334765147092980
    One-Electron Energy =               -1174.1228670227403654
    Two-Electron Energy =                 461.9916593744923716
    Total Energy =                       -381.6977311335386389
  Basis Set: (AUG-CC-PVTZ AUX)
    Blend: AUG-CC-PVTZ-RI
    Molecular point group: c1

    Geometry (in Angstrom), charge = 0, multiplicity = 1:

       Center              X                  Y                   Z               Mass
    ------------   -----------------  -----------------  -----------------  -----------------
         O            1.190377485175    -1.331326153223    -0.011132879032    15.994914619570
         O           -3.782693514825    -0.185008153223    -0.030842879032    15.994914619570
         C            2.262737485175     0.822539846777     0.020660120968    12.000000000000
         C            3.590780485175     0.085671846777    -0.006255879032    12.000000000000
         C            1.071382485175    -0.107084153223     0.016998120968    12.000000000000
         C           -0.316123714825     0.593379946777     0.024541720968    12.000000000000
         C           -1.403758514825    -0.197299153223     0.001179120968    12.000000000000
         C           -2.728209514825     0.441964846777    -0.006791879032    12.000000000000
         H            2.181619485175     1.468425846777     0.905207120968     1.007825032230
         H            2.163237485175     1.500513846777    -0.839327879032     1.007825032230
         H            3.684609485175    -0.568027153223     0.862150120968     1.007825032230
         H            3.666072485175    -0.538469153223    -0.897870879032     1.007825032230
         H            4.422402485175     0.793937846777    -0.003213879032     1.007825032230
         H           -0.328860514825     1.624736846777     0.041353120968     1.007825032230
         H           -1.413106814825    -1.284717353223    -0.016975579032     1.007825032230
         H           -2.724974514825     1.551570846777     0.015577120968     1.007825032230

  Basis Set: AUG-CC-PVTZ
    Blend: AUG-CC-PVTZ
  Basis Set: (AUG-CC-PVTZ AUX)
    Blend: AUG-CC-PVTZ-JKFIT
	 Reference Energy          =    -381.6977311335386389 [Eh]
	 Singles Energy            =      -0.0000000000000000 [Eh]
	 Same-Spin Energy          =      -0.3770613386369526 [Eh]
	 Opposite-Spin Energy      =      -1.2234971209325081 [Eh]
	 Correlation Energy        =      -1.6005584595694606 [Eh]
	 Total Energy              =    -383.2982895931081089 [Eh]

	 ================> DF-SCS-MP2 Energies <==================
	-----------------------------------------------------------
	 SCS Same-Spin Scale       =       0.3333333333333333 [-]
	 SCS Opposite-Spin Scale   =       1.2000000000000000 [-]
	 SCS Same-Spin Energy      =      -0.1256871128789842 [Eh]
	 SCS Opposite-Spin Energy  =      -1.4681965451190095 [Eh]
	 SCS Correlation Energy    =      -1.5938836579979938 [Eh]
	 SCS Total Energy          =    -383.2916147915366309 [Eh]
	-----------------------------------------------------------

  Dipole Moment: [D]
     X:     2.8498      Y:     3.5131      Z:     0.0908     Total:     4.5245

*** Psi4 exiting successfully. Buy a developer a beer!
