                               Psi4 1.3.2 release

  ==> Input File <==

--------------------------------------------------------------------------
#psi4
#
memory 32 gb

molecule  {
0 1
  O        1.1855920    -1.3251230    -0.0110750
  O       -3.7874790    -0.1788050    -0.0307850
  C        2.2579520     0.8287430     0.0207180
  C        3.5859950     0.0918750    -0.0061980
  C        1.0665970    -0.1008810     0.0170560
  C       -0.2939689     0.5611428     0.0242142
  C       -1.4085440    -0.1910960     0.0012370
  C       -2.7329950     0.4481680    -0.0067340
  H        2.1768340     1.4746290     0.9052650
  H        2.1584520     1.5067170    -0.8392700
  H        3.6798240    -0.5618240     0.8622080
  H        3.6612870    -0.5322660    -0.8978130
  H        4.4176170     0.8001410    -0.0031560
  H       -0.3336460     1.6309400     0.0414110
  H       -1.3799326    -1.2781839    -0.0165553
  H       -2.7297600     1.5577740     0.0156350
units angstrom
no_reorient  #important for SAPT in psi4, default
symmetry c1  #important for SAPT in psi4, default
}

set PROPERTIES_ORIGIN ["COM"]
properties('MP2/aug-cc-pvtz', properties = ['dipole'])
--------------------------------------------------------------------------

    Molecular point group: c1
  Charge       = 0
  Multiplicity = 1
  Basis Set: AUG-CC-PVTZ
    Blend: AUG-CC-PVTZ
  Basis Set: (AUG-CC-PVTZ AUX)
    Blend: AUG-CC-PVTZ-JKFIT

    Orbital Energies [Eh]
    ---------------------

    Doubly Occupied:

       1A    -20.572889     2A    -20.564600     3A    -11.355382
       4A    -11.349970     5A    -11.282277     6A    -11.277702
       7A    -11.257061     8A    -11.228297     9A     -1.394893
      10A     -1.393613    11A     -1.114471    12A     -1.070317
      13A     -0.952588    14A     -0.878586    15A     -0.801388
      16A     -0.756535    17A     -0.696561    18A     -0.686034
      19A     -0.645970    20A     -0.636207    21A     -0.629012
      22A     -0.579299    23A     -0.553937    24A     -0.543991
      25A     -0.536074    26A     -0.528739    27A     -0.502024
      28A     -0.450768    29A     -0.433868    30A     -0.405149

  @DF-RHF Final Energy:  -381.70268985011768

   => Energetics <=

    Nuclear Repulsion Energy =            330.8968572697555715
    One-Electron Energy =               -1175.0426916658720984
    Two-Electron Energy =                 462.4431445459987913
    Total Energy =                       -381.7026898501176788
  Basis Set: (AUG-CC-PVTZ AUX)
    Blend: AUG-CC-PVTZ-RI
    Molecular point group: c1

    Geometry (in Angstrom), charge = 0, multiplicity = 1:

       Center              X                  Y                   Z               Mass
    ------------   -----------------  -----------------  -----------------  -----------------
         O            1.187150956866    -1.327212447545    -0.011094865004    15.994914619570
         O           -3.785920043134    -0.180894447545    -0.030804865004    15.994914619570
         C            2.259510956866     0.826653552455     0.020698134996    12.000000000000
         C            3.587553956866     0.089785552455    -0.006217865004    12.000000000000
         C            1.068155956866    -0.102970447545     0.017036134996    12.000000000000
         C           -0.292409943134     0.559053352455     0.024194334996    12.000000000000
         C           -1.406985043134    -0.193185447545     0.001217134996    12.000000000000
         C           -2.731436043134     0.446078552455    -0.006753865004    12.000000000000
         H            2.178392956866     1.472539552455     0.905245134996     1.007825032230
         H            2.160010956866     1.504627552455    -0.839289865004     1.007825032230
         H            3.681382956866    -0.563913447545     0.862188134996     1.007825032230
         H            3.662845956866    -0.534355447545    -0.897832865004     1.007825032230
         H            4.419175956866     0.798051552455    -0.003175865004     1.007825032230
         H           -0.332087043134     1.628850552455     0.041391134996     1.007825032230
         H           -1.378373643134    -1.280273347545    -0.016575165004     1.007825032230
         H           -2.728201043134     1.555684552455     0.015615134996     1.007825032230

  Basis Set: AUG-CC-PVTZ
    Blend: AUG-CC-PVTZ
  Basis Set: (AUG-CC-PVTZ AUX)
    Blend: AUG-CC-PVTZ-JKFIT
	 Reference Energy          =    -381.7026898501176788 [Eh]
	 Singles Energy            =      -0.0000000000000000 [Eh]
	 Same-Spin Energy          =      -0.3772465273633128 [Eh]
	 Opposite-Spin Energy      =      -1.2236025720564072 [Eh]
	 Correlation Energy        =      -1.6008490994197200 [Eh]
	 Total Energy              =    -383.3035389495374261 [Eh]

	 ================> DF-SCS-MP2 Energies <==================
	-----------------------------------------------------------
	 SCS Same-Spin Scale       =       0.3333333333333333 [-]
	 SCS Opposite-Spin Scale   =       1.2000000000000000 [-]
	 SCS Same-Spin Energy      =      -0.1257488424544376 [Eh]
	 SCS Opposite-Spin Energy  =      -1.4683230864676886 [Eh]
	 SCS Correlation Energy    =      -1.5940719289221261 [Eh]
	 SCS Total Energy          =    -383.2967617790397981 [Eh]
	-----------------------------------------------------------

  Dipole Moment: [D]
     X:     2.7819      Y:     3.5157      Z:     0.0904     Total:     4.4842

*** Psi4 exiting successfully. Buy a developer a beer!
