                               Psi4 1.3.2 release

  ==> Input File <==

--------------------------------------------------------------------------
#psi4
#
memory 32 gb

molecule  {
0 1
  O        1.1855920    -1.3251230    -0.0110750
  O       -3.7874790    -0.1788050    -0.0307850
  C        2.2579520     0.8287430     0.0207180
  C        3.5859950     0.0918750    -0.0061980
  C        1.0665970    -0.1008810     0.0170560
  C       -0.2810060     0.5415760     0.0240110
  C       -1.4085440    -0.1910960     0.0012370
  C       -2.7329950     0.4481680    -0.0067340
  H        2.1768340     1.4746290     0.9052650
  H        2.1584520     1.5067170    -0.8392700
  H        3.6798240    -0.5618240     0.8622080
  H        3.6612870    -0.5322660    -0.8978130
  H        4.4176170     0.8001410    -0.0031560
  H       -0.3336460     1.6309400     0.0414110
  H       -1.3609630    -1.2775220    -0.0163660
  H       -2.7291770     1.7577325     0.0196660
units angstrom
no_reorient  #important for SAPT in psi4, default
symmetry c1  #important for SAPT in psi4, default
}

set PROPERTIES_ORIGIN ["COM"]
properties('MP2/aug-cc-pvtz', properties = ['dipole'])
--------------------------------------------------------------------------

    Molecular point group: c1
  Charge       = 0
  Multiplicity = 1
  Basis Set: AUG-CC-PVTZ
    Blend: AUG-CC-PVTZ
  Basis Set: (AUG-CC-PVTZ AUX)
    Blend: AUG-CC-PVTZ-JKFIT

    Orbital Energies [Eh]
    ---------------------

    Doubly Occupied:

       1A    -20.579855     2A    -20.565454     3A    -11.372536
       4A    -11.355042     5A    -11.284207     6A    -11.281569
       7A    -11.257714     8A    -11.228802     9A     -1.399220
      10A     -1.395725    11A     -1.115710    12A     -1.070969
      13A     -0.953819    14A     -0.875761    15A     -0.780146
      16A     -0.757464    17A     -0.694852    18A     -0.676298
      19A     -0.646794    20A     -0.639153    21A     -0.621816
      22A     -0.574217    23A     -0.557657    24A     -0.544454
      25A     -0.538617    26A     -0.529412    27A     -0.502855
      28A     -0.444203    29A     -0.434015    30A     -0.406774

  @DF-RHF Final Energy:  -381.68231900593196

   => Energetics <=

    Nuclear Repulsion Energy =            330.3463986336700486
    One-Electron Energy =               -1173.8872136752065671
    Two-Electron Energy =                 461.8584960356045030
    Total Energy =                       -381.6823190059319586
  Basis Set: (AUG-CC-PVTZ AUX)
    Blend: AUG-CC-PVTZ-RI
    Molecular point group: c1

    Geometry (in Angstrom), charge = 0, multiplicity = 1:

       Center              X                  Y                   Z               Mass
    ------------   -----------------  -----------------  -----------------  -----------------
         O            1.185586864052    -1.326921411117    -0.011111062100    15.994914619570
         O           -3.787484135948    -0.180603411117    -0.030821062100    15.994914619570
         C            2.257946864052     0.826944588883     0.020681937900    12.000000000000
         C            3.585989864052     0.090076588883    -0.006234062100    12.000000000000
         C            1.066591864052    -0.102679411117     0.017019937900    12.000000000000
         C           -0.281011135948     0.539777588883     0.023974937900    12.000000000000
         C           -1.408549135948    -0.192894411117     0.001200937900    12.000000000000
         C           -2.733000135948     0.446369588883    -0.006770062100    12.000000000000
         H            2.176828864052     1.472830588883     0.905228937900     1.007825032230
         H            2.158446864052     1.504918588883    -0.839306062100     1.007825032230
         H            3.679818864052    -0.563622411117     0.862171937900     1.007825032230
         H            3.661281864052    -0.534064411117    -0.897849062100     1.007825032230
         H            4.417611864052     0.798342588883    -0.003192062100     1.007825032230
         H           -0.333651135948     1.629141588883     0.041374937900     1.007825032230
         H           -1.360968135948    -1.279320411117    -0.016402062100     1.007825032230
         H           -2.729182135948     1.755934088883     0.019629937900     1.007825032230

  Basis Set: AUG-CC-PVTZ
    Blend: AUG-CC-PVTZ
  Basis Set: (AUG-CC-PVTZ AUX)
    Blend: AUG-CC-PVTZ-JKFIT
	 Reference Energy          =    -381.6823190059319586 [Eh]
	 Singles Energy            =      -0.0000000000000000 [Eh]
	 Same-Spin Energy          =      -0.3785521999697513 [Eh]
	 Opposite-Spin Energy      =      -1.2265696047362677 [Eh]
	 Correlation Energy        =      -1.6051218047060192 [Eh]
	 Total Energy              =    -383.2874408106379747 [Eh]

	 ================> DF-SCS-MP2 Energies <==================
	-----------------------------------------------------------
	 SCS Same-Spin Scale       =       0.3333333333333333 [-]
	 SCS Opposite-Spin Scale   =       1.2000000000000000 [-]
	 SCS Same-Spin Energy      =      -0.1261840666565838 [Eh]
	 SCS Opposite-Spin Energy  =      -1.4718835256835212 [Eh]
	 SCS Correlation Energy    =      -1.5980675923401049 [Eh]
	 SCS Total Energy          =    -383.2803865982720595 [Eh]
	-----------------------------------------------------------

  Dipole Moment: [D]
     X:     2.7793      Y:     3.2363      Z:     0.0852     Total:     4.2668

*** Psi4 exiting successfully. Buy a developer a beer!
