                               Psi4 1.3.2 release

  ==> Input File <==

--------------------------------------------------------------------------
#psi4
#
memory 32 gb

molecule  {
0 1
  O        1.1855920    -1.3251230    -0.0110750
  O       -3.7874790    -0.1788050    -0.0307850
  C        2.2579520     0.8287430     0.0207180
  C        3.5859950     0.0918750    -0.0061980
  C        1.0665970    -0.1008810     0.0170560
  C       -0.2810060     0.5415760     0.0240110
  C       -1.4085440    -0.1910960     0.0012370
  C       -2.7329950     0.4481680    -0.0067340
  H        2.1768340     1.4746290     0.9052650
  H        2.1584520     1.5067170    -0.8392700
  H        3.6798240    -0.5618240     0.8622080
  H        3.6612870    -0.5322660    -0.8978130
  H        4.4176170     0.8001410    -0.0031560
  H       -0.3336460     1.6309400     0.0414110
  H       -1.3653378    -1.1776309    -0.0147475
  H       -2.7297600     1.5577740     0.0156350
units angstrom
no_reorient  #important for SAPT in psi4, default
symmetry c1  #important for SAPT in psi4, default
}

set PROPERTIES_ORIGIN ["COM"]
properties('MP2/aug-cc-pvtz', properties = ['dipole'])
--------------------------------------------------------------------------

    Molecular point group: c1
  Charge       = 0
  Multiplicity = 1
  Basis Set: AUG-CC-PVTZ
    Blend: AUG-CC-PVTZ
  Basis Set: (AUG-CC-PVTZ AUX)
    Blend: AUG-CC-PVTZ-JKFIT

    Orbital Energies [Eh]
    ---------------------

    Doubly Occupied:

       1A    -20.574026     2A    -20.564442     3A    -11.354133
       4A    -11.350963     5A    -11.282302     6A    -11.267887
       7A    -11.257140     8A    -11.228366     9A     -1.395855
      10A     -1.394416    11A     -1.118228    12A     -1.071214
      13A     -0.956469    14A     -0.879194    15A     -0.814545
      16A     -0.759210    17A     -0.698143    18A     -0.686012
      19A     -0.646255    20A     -0.641427    21A     -0.631502
      22A     -0.585756    23A     -0.554889    24A     -0.544009
      25A     -0.536695    26A     -0.528961    27A     -0.502235
      28A     -0.451952    29A     -0.435746    30A     -0.404993

  @DF-RHF Final Energy:  -381.69717988724102

   => Energetics <=

    Nuclear Repulsion Energy =            331.6119232407336881
    One-Electron Energy =               -1176.3842799452929739
    Two-Electron Energy =                 463.0751768173183223
    Total Energy =                       -381.6971798872410204
  Basis Set: (AUG-CC-PVTZ AUX)
    Blend: AUG-CC-PVTZ-RI
    Molecular point group: c1

    Geometry (in Angstrom), charge = 0, multiplicity = 1:

       Center              X                  Y                   Z               Mass
    ------------   -----------------  -----------------  -----------------  -----------------
         O            1.185631455633    -1.326021382165    -0.011089363527    15.994914619570
         O           -3.787439544367    -0.179703382165    -0.030799363527    15.994914619570
         C            2.257991455633     0.827844617835     0.020703636473    12.000000000000
         C            3.586034455633     0.090976617835    -0.006212363527    12.000000000000
         C            1.066636455633    -0.101779382165     0.017041636473    12.000000000000
         C           -0.280966544367     0.540677617835     0.023996636473    12.000000000000
         C           -1.408504544367    -0.191994382165     0.001222636473    12.000000000000
         C           -2.732955544367     0.447269617835    -0.006748363527    12.000000000000
         H            2.176873455633     1.473730617835     0.905250636473     1.007825032230
         H            2.158491455633     1.505818617835    -0.839284363527     1.007825032230
         H            3.679863455633    -0.562722382165     0.862193636473     1.007825032230
         H            3.661326455633    -0.533164382165    -0.897827363527     1.007825032230
         H            4.417656455633     0.799242617835    -0.003170363527     1.007825032230
         H           -0.333606544367     1.630041617835     0.041396636473     1.007825032230
         H           -1.365298344367    -1.178529282165    -0.014761863527     1.007825032230
         H           -2.729720544367     1.556875617835     0.015620636473     1.007825032230

  Basis Set: AUG-CC-PVTZ
    Blend: AUG-CC-PVTZ
  Basis Set: (AUG-CC-PVTZ AUX)
    Blend: AUG-CC-PVTZ-JKFIT
	 Reference Energy          =    -381.6971798872410204 [Eh]
	 Singles Energy            =      -0.0000000000000000 [Eh]
	 Same-Spin Energy          =      -0.3771208963646443 [Eh]
	 Opposite-Spin Energy      =      -1.2232727356095690 [Eh]
	 Correlation Energy        =      -1.6003936319742134 [Eh]
	 Total Energy              =    -383.2975735192152342 [Eh]

	 ================> DF-SCS-MP2 Energies <==================
	-----------------------------------------------------------
	 SCS Same-Spin Scale       =       0.3333333333333333 [-]
	 SCS Opposite-Spin Scale   =       1.2000000000000000 [-]
	 SCS Same-Spin Energy      =      -0.1257069654548814 [Eh]
	 SCS Opposite-Spin Energy  =      -1.4679272827314827 [Eh]
	 SCS Correlation Energy    =      -1.5936342481863641 [Eh]
	 SCS Total Energy          =    -383.2908141354274107 [Eh]
	-----------------------------------------------------------

  Dipole Moment: [D]
     X:     2.7555      Y:     3.5359      Z:     0.0906     Total:     4.4837

*** Psi4 exiting successfully. Buy a developer a beer!
