                               Psi4 1.4a3.dev225

  ==> Input File <==

--------------------------------------------------------------------------
#psi4
#
memory 32 gb

molecule  {
0 1
  O        1.0820120     1.3681640     0.0000000
  O       -3.8882340     0.1997640    -0.0000030
  C        2.1679760    -0.7815440    -0.0000070
  C        3.4943680    -0.0370920     0.0000040
  C        0.9697220     0.1420900     0.0000000
  C       -0.3759970    -0.5069640     0.0000040
  C       -1.5077040     0.2230700     0.0000000
  C       -2.8730301    -0.3978231     0.0000018
  H        2.0818540    -1.4423830    -0.8738950
  H        2.0818510    -1.4424050     0.8738640
  H        3.5776630     0.6025590    -0.8807220
  H        3.5776700     0.6025230     0.8807550
  H        4.3292850    -0.7422630    -0.0000140
  H       -0.4236580    -1.5964830     0.0000100
  H       -1.4638710     1.3098110    -0.0000060
  H       -2.8215620    -1.5330200     0.0000110
units angstrom
no_reorient  #important for SAPT in psi4, default
symmetry c1  #important for SAPT in psi4, default
}

set PROPERTIES_ORIGIN ["COM"]
properties('MP2/aug-cc-pvtz', properties = ['dipole'])
--------------------------------------------------------------------------

    Molecular point group: c1
  Charge       = 0
  Multiplicity = 1
  Basis Set: AUG-CC-PVTZ
    Blend: AUG-CC-PVTZ
  Basis Set: (AUG-CC-PVTZ AUX)
    Blend: AUG-CC-PVTZ-JKFIT

    Orbital Energies [Eh]
    ---------------------

    Doubly Occupied:

       1A    -20.577210     2A    -20.561632     3A    -11.352487
       4A    -11.350339     5A    -11.279312     6A    -11.276841
       7A    -11.255971     8A    -11.227560     9A     -1.430700
      10A     -1.391691    11A     -1.108601    12A     -1.067223
      13A     -0.949288    14A     -0.874877    15A     -0.795840
      16A     -0.754338    17A     -0.695587    18A     -0.688336
      19A     -0.646922    20A     -0.644436    21A     -0.632224
      22A     -0.571957    23A     -0.569642    24A     -0.542446
      25A     -0.539775    26A     -0.527204    27A     -0.501040
      28A     -0.446136    29A     -0.431760    30A     -0.404604

  @DF-RHF Final Energy:  -381.70442269390691

   => Energetics <=

    Nuclear Repulsion Energy =            331.0939844051279124
    One-Electron Energy =               -1175.4048546789153988
    Two-Electron Energy =                 462.6064475798805802
    Total Energy =                       -381.7044226939069063
  Basis Set: (AUG-CC-PVTZ AUX)
    Blend: AUG-CC-PVTZ-RI
    Molecular point group: c1

    Geometry (in Angstrom), charge = 0, multiplicity = 1:

       Center              X                  Y                   Z               Mass
    ------------   -----------------  -----------------  -----------------  -----------------
         O            1.183361258571     1.327960809620     0.000000101392    15.994914619570
         O           -3.786884741429     0.159560809620    -0.000002898608    15.994914619570
         C            2.269325258571    -0.821747190380    -0.000006898608    12.000000000000
         C            3.595717258571    -0.077295190380     0.000004101392    12.000000000000
         C            1.071071258571     0.101886809620     0.000000101392    12.000000000000
         C           -0.274647741429    -0.547167190380     0.000004101392    12.000000000000
         C           -1.406354741429     0.182866809620     0.000000101392    12.000000000000
         C           -2.771680841429    -0.438026290380     0.000001901392    12.000000000000
         H            2.183203258571    -1.482586190380    -0.873894898608     1.007825032230
         H            2.183200258571    -1.482608190380     0.873864101392     1.007825032230
         H            3.679012258571     0.562355809620    -0.880721898608     1.007825032230
         H            3.679019258571     0.562319809620     0.880755101392     1.007825032230
         H            4.430634258571    -0.782466190380    -0.000013898608     1.007825032230
         H           -0.322308741429    -1.636686190380     0.000010101392     1.007825032230
         H           -1.362521741429     1.269607809620    -0.000005898608     1.007825032230
         H           -2.720212741429    -1.573223190380     0.000011101392     1.007825032230

  Basis Set: AUG-CC-PVTZ
    Blend: AUG-CC-PVTZ
  Basis Set: (AUG-CC-PVTZ AUX)
    Blend: AUG-CC-PVTZ-JKFIT
	 Reference Energy          =    -381.7044226939069063 [Eh]
	 Singles Energy            =      -0.0000000000000000 [Eh]
	 Same-Spin Energy          =      -0.3759576182965682 [Eh]
	 Opposite-Spin Energy      =      -1.2207014547079833 [Eh]
	 Correlation Energy        =      -1.5966590730045516 [Eh]
	 Total Energy              =    -383.3010817669114658 [Eh]

	 ================> DF-SCS-MP2 Energies <==================
	-----------------------------------------------------------
	 SCS Same-Spin Scale       =       0.3333333333333333 [-]
	 SCS Opposite-Spin Scale   =       1.2000000000000000 [-]
	 SCS Same-Spin Energy      =      -0.1253192060988561 [Eh]
	 SCS Opposite-Spin Energy  =      -1.4648417456495799 [Eh]
	 SCS Correlation Energy    =      -1.5901609517484361 [Eh]
	 SCS Total Energy          =    -383.2945836456553366 [Eh]
	-----------------------------------------------------------

  Dipole Moment: [D]
     X:     2.4938      Y:    -3.3836      Z:     0.0000     Total:     4.2033

*** Psi4 exiting successfully. Buy a developer a beer!
