                               Psi4 1.3.2 release

  ==> Input File <==

--------------------------------------------------------------------------
#psi4
#
memory 32 gb

molecule  {
0 1
  O        1.1855920    -1.3251230    -0.0110750
  O       -3.7874790    -0.1788050    -0.0307850
  C        2.2579520     0.8287430     0.0207180
  C        3.5859950     0.0918750    -0.0061980
  C        1.0665970    -0.1008810     0.0170560
  C       -0.2810060     0.5415760     0.0240110
  C       -1.4923841    -0.2455751    -0.0004564
  C       -2.7329950     0.4481680    -0.0067340
  H        2.1768340     1.4746290     0.9052650
  H        2.1584520     1.5067170    -0.8392700
  H        3.6798240    -0.5618240     0.8622080
  H        3.6612870    -0.5322660    -0.8978130
  H        4.4176170     0.8001410    -0.0031560
  H       -0.3336460     1.6309400     0.0414110
  H       -1.3609630    -1.2775220    -0.0163660
  H       -2.7297600     1.5577740     0.0156350
units angstrom
no_reorient  #important for SAPT in psi4, default
symmetry c1  #important for SAPT in psi4, default
}

set PROPERTIES_ORIGIN ["COM"]
properties('MP2/aug-cc-pvtz', properties = ['dipole'])
--------------------------------------------------------------------------

    Molecular point group: c1
  Charge       = 0
  Multiplicity = 1
  Basis Set: AUG-CC-PVTZ
    Blend: AUG-CC-PVTZ
  Basis Set: (AUG-CC-PVTZ AUX)
    Blend: AUG-CC-PVTZ-JKFIT

    Orbital Energies [Eh]
    ---------------------

    Doubly Occupied:

       1A    -20.568606     2A    -20.565391     3A    -11.355190
       4A    -11.345948     5A    -11.297414     6A    -11.285447
       7A    -11.257808     8A    -11.228873     9A     -1.395815
      10A     -1.394135    11A     -1.102385    12A     -1.069382
      13A     -0.961979    14A     -0.878089    15A     -0.809464
      16A     -0.753578    17A     -0.698617    18A     -0.682451
      19A     -0.646588    20A     -0.645165    21A     -0.622904
      22A     -0.580587    23A     -0.554040    24A     -0.542666
      25A     -0.537177    26A     -0.529443    27A     -0.502365
      28A     -0.452544    29A     -0.437882    30A     -0.384606

  @DF-RHF Final Energy:  -381.68474431808619

   => Energetics <=

    Nuclear Repulsion Energy =            330.3816824497663447
    One-Electron Energy =               -1173.9597708096187034
    Two-Electron Energy =                 461.8933440417661700
    Total Energy =                       -381.6847443180861887
  Basis Set: (AUG-CC-PVTZ AUX)
    Blend: AUG-CC-PVTZ-RI
    Molecular point group: c1

    Geometry (in Angstrom), charge = 0, multiplicity = 1:

       Center              X                  Y                   Z               Mass
    ------------   -----------------  -----------------  -----------------  -----------------
         O            1.194570772447    -1.319288623630    -0.010893455550    15.994914619570
         O           -3.778500227553    -0.172970623630    -0.030603455550    15.994914619570
         C            2.266930772447     0.834577376370     0.020899544450    12.000000000000
         C            3.594973772447     0.097709376370    -0.006016455550    12.000000000000
         C            1.075575772447    -0.095046623630     0.017237544450    12.000000000000
         C           -0.272027227553     0.547410376370     0.024192544450    12.000000000000
         C           -1.483405327553    -0.239740723630    -0.000274855550    12.000000000000
         C           -2.724016227553     0.454002376370    -0.006552455550    12.000000000000
         H            2.185812772447     1.480463376370     0.905446544450     1.007825032230
         H            2.167430772447     1.512551376370    -0.839088455550     1.007825032230
         H            3.688802772447    -0.555989623630     0.862389544450     1.007825032230
         H            3.670265772447    -0.526431623630    -0.897631455550     1.007825032230
         H            4.426595772447     0.805975376370    -0.002974455550     1.007825032230
         H           -0.324667227553     1.636774376370     0.041592544450     1.007825032230
         H           -1.351984227553    -1.271687623630    -0.016184455550     1.007825032230
         H           -2.720781227553     1.563608376370     0.015816544450     1.007825032230

  Basis Set: AUG-CC-PVTZ
    Blend: AUG-CC-PVTZ
  Basis Set: (AUG-CC-PVTZ AUX)
    Blend: AUG-CC-PVTZ-JKFIT
	 Reference Energy          =    -381.6847443180861887 [Eh]
	 Singles Energy            =      -0.0000000000000000 [Eh]
	 Same-Spin Energy          =      -0.3791624222879327 [Eh]
	 Opposite-Spin Energy      =      -1.2273976335663284 [Eh]
	 Correlation Energy        =      -1.6065600558542612 [Eh]
	 Total Energy              =    -383.2913043739404770 [Eh]

	 ================> DF-SCS-MP2 Energies <==================
	-----------------------------------------------------------
	 SCS Same-Spin Scale       =       0.3333333333333333 [-]
	 SCS Opposite-Spin Scale   =       1.2000000000000000 [-]
	 SCS Same-Spin Energy      =      -0.1263874740959776 [Eh]
	 SCS Opposite-Spin Energy  =      -1.4728771602795940 [Eh]
	 SCS Correlation Energy    =      -1.5992646343755716 [Eh]
	 SCS Total Energy          =    -383.2840089524617611 [Eh]
	-----------------------------------------------------------

  Dipole Moment: [D]
     X:     2.8694      Y:     3.5092      Z:     0.0911     Total:     4.5339

*** Psi4 exiting successfully. Buy a developer a beer!
