                               Psi4 1.3.2 release

  ==> Input File <==

--------------------------------------------------------------------------
#psi4
#
memory 32 gb

molecule  {
0 1
  O        1.2495115    -1.3171992    -0.0117862
  O       -3.7874790    -0.1788050    -0.0307850
  C        2.3049602     0.7651415     0.0186928
  C        3.5859950     0.0918750    -0.0061980
  C        1.0665970    -0.1008810     0.0170560
  C       -0.2810060     0.5415760     0.0240110
  C       -1.4085440    -0.1910960     0.0012370
  C       -2.7329950     0.4481680    -0.0067340
  H        2.1768340     1.4746290     0.9052650
  H        2.1584520     1.5067170    -0.8392700
  H        3.6798240    -0.5618240     0.8622080
  H        3.6612870    -0.5322660    -0.8978130
  H        4.4176170     0.8001410    -0.0031560
  H       -0.3336460     1.6309400     0.0414110
  H       -1.3609630    -1.2775220    -0.0163660
  H       -2.7297600     1.5577740     0.0156350
units angstrom
no_reorient  #important for SAPT in psi4, default
symmetry c1  #important for SAPT in psi4, default
}

set PROPERTIES_ORIGIN ["COM"]
properties('MP2/aug-cc-pvtz', properties = ['dipole'])
--------------------------------------------------------------------------

    Molecular point group: c1
  Charge       = 0
  Multiplicity = 1
  Basis Set: AUG-CC-PVTZ
    Blend: AUG-CC-PVTZ
  Basis Set: (AUG-CC-PVTZ AUX)
    Blend: AUG-CC-PVTZ-JKFIT

    Orbital Energies [Eh]
    ---------------------

    Doubly Occupied:

       1A    -20.576363     2A    -20.561044     3A    -11.353628
       4A    -11.353178     5A    -11.287247     6A    -11.281579
       7A    -11.258993     8A    -11.223207     9A     -1.397504
      10A     -1.393806    11A     -1.117528    12A     -1.077160
      13A     -0.958743    14A     -0.877952    15A     -0.802251
      16A     -0.753320    17A     -0.697150    18A     -0.688830
      19A     -0.639823    20A     -0.639302    21A     -0.630594
      22A     -0.576653    23A     -0.562879    24A     -0.556094
      25A     -0.535958    26A     -0.524818    27A     -0.483129
      28A     -0.452827    29A     -0.433482    30A     -0.407890

  @DF-RHF Final Energy:  -381.69359359150525

   => Energetics <=

    Nuclear Repulsion Energy =            331.5174459945128547
    One-Electron Energy =               -1176.2162150246244892
    Two-Electron Energy =                 463.0051754386063863
    Total Energy =                       -381.6935935915052482
  Basis Set: (AUG-CC-PVTZ AUX)
    Blend: AUG-CC-PVTZ-RI
    Molecular point group: c1

    Geometry (in Angstrom), charge = 0, multiplicity = 1:

       Center              X                  Y                   Z               Mass
    ------------   -----------------  -----------------  -----------------  -----------------
         O            1.235353187810    -1.311518963121    -0.011467601999    15.994914619570
         O           -3.801637312190    -0.173124763121    -0.030466401999    15.994914619570
         C            2.290801887810     0.770821736879     0.019011398001    12.000000000000
         C            3.571836687810     0.097555236879    -0.005879401999    12.000000000000
         C            1.052438687810    -0.095200763121     0.017374598001    12.000000000000
         C           -0.295164312190     0.547256236879     0.024329598001    12.000000000000
         C           -1.422702312190    -0.185415763121     0.001555598001    12.000000000000
         C           -2.747153312190     0.453848236879    -0.006415401999    12.000000000000
         H            2.162675687810     1.480309236879     0.905583598001     1.007825032230
         H            2.144293687810     1.512397236879    -0.838951401999     1.007825032230
         H            3.665665687810    -0.556143763121     0.862526598001     1.007825032230
         H            3.647128687810    -0.526585763121    -0.897494401999     1.007825032230
         H            4.403458687810     0.805821236879    -0.002837401999     1.007825032230
         H           -0.347804312190     1.636620236879     0.041729598001     1.007825032230
         H           -1.375121312190    -1.271841763121    -0.016047401999     1.007825032230
         H           -2.743918312190     1.563454236879     0.015953598001     1.007825032230

  Basis Set: AUG-CC-PVTZ
    Blend: AUG-CC-PVTZ
  Basis Set: (AUG-CC-PVTZ AUX)
    Blend: AUG-CC-PVTZ-JKFIT
	 Reference Energy          =    -381.6935935915052482 [Eh]
	 Singles Energy            =      -0.0000000000000000 [Eh]
	 Same-Spin Energy          =      -0.3782033063233210 [Eh]
	 Opposite-Spin Energy      =      -1.2247705673469689 [Eh]
	 Correlation Energy        =      -1.6029738736702899 [Eh]
	 Total Energy              =    -383.2965674651755421 [Eh]

	 ================> DF-SCS-MP2 Energies <==================
	-----------------------------------------------------------
	 SCS Same-Spin Scale       =       0.3333333333333333 [-]
	 SCS Opposite-Spin Scale   =       1.2000000000000000 [-]
	 SCS Same-Spin Energy      =      -0.1260677687744403 [Eh]
	 SCS Opposite-Spin Energy  =      -1.4697246808163626 [Eh]
	 SCS Correlation Energy    =      -1.5957924495908029 [Eh]
	 SCS Total Energy          =    -383.2893860410960656 [Eh]
	-----------------------------------------------------------

  Dipole Moment: [D]
     X:     2.5713      Y:     3.4875      Z:     0.0895     Total:     4.3338

*** Psi4 exiting successfully. Buy a developer a beer!
