                               Psi4 1.3.2 release

  ==> Input File <==

--------------------------------------------------------------------------
#psi4
#
memory 32 gb

molecule  {
0 1
  O        1.1855920    -1.3251230    -0.0110750
  O       -3.7874790    -0.1788050    -0.0307850
  C        2.2579520     0.8287430     0.0207180
  C        3.5859950     0.0918750    -0.0061980
  C        1.0472535     0.0981288     0.0216289
  C       -0.2810060     0.5415760     0.0240110
  C       -1.4085440    -0.1910960     0.0012370
  C       -2.7329950     0.4481680    -0.0067340
  H        2.1768340     1.4746290     0.9052650
  H        2.1584520     1.5067170    -0.8392700
  H        3.6798240    -0.5618240     0.8622080
  H        3.6612870    -0.5322660    -0.8978130
  H        4.4176170     0.8001410    -0.0031560
  H       -0.3336460     1.6309400     0.0414110
  H       -1.3609630    -1.2775220    -0.0163660
  H       -2.7297600     1.5577740     0.0156350
units angstrom
no_reorient  #important for SAPT in psi4, default
symmetry c1  #important for SAPT in psi4, default
}

set PROPERTIES_ORIGIN ["COM"]
properties('MP2/aug-cc-pvtz', properties = ['dipole'])
--------------------------------------------------------------------------

    Molecular point group: c1
  Charge       = 0
  Multiplicity = 1
  Basis Set: AUG-CC-PVTZ
    Blend: AUG-CC-PVTZ
  Basis Set: (AUG-CC-PVTZ AUX)
    Blend: AUG-CC-PVTZ-JKFIT

    Orbital Energies [Eh]
    ---------------------

    Doubly Occupied:

       1A    -20.583421     2A    -20.543415     3A    -11.362468
       4A    -11.358847     5A    -11.294060     6A    -11.285389
       7A    -11.263545     8A    -11.232464     9A     -1.403359
      10A     -1.286932    11A     -1.127164    12A     -1.089549
      13A     -0.980485    14A     -0.899965    15A     -0.814772
      16A     -0.757923    17A     -0.696553    18A     -0.690542
      19A     -0.654923    20A     -0.641054    21A     -0.609195
      22A     -0.562721    23A     -0.557842    24A     -0.549142
      25A     -0.530633    26A     -0.501124    27A     -0.470100
      28A     -0.456772    29A     -0.437965    30A     -0.388950

  @DF-RHF Final Energy:  -381.62948325365750

   => Energetics <=

    Nuclear Repulsion Energy =            330.2678312110929255
    One-Electron Energy =               -1173.7320823241377639
    Two-Electron Energy =                 461.8347678593873411
    Total Energy =                       -381.6294832536574972
  Basis Set: (AUG-CC-PVTZ AUX)
    Blend: AUG-CC-PVTZ-RI
    Molecular point group: c1

    Geometry (in Angstrom), charge = 0, multiplicity = 1:

       Center              X                  Y                   Z               Mass
    ------------   -----------------  -----------------  -----------------  -----------------
         O            1.187663655809    -1.346435440648    -0.011564530691    15.994914619570
         O           -3.785407344191    -0.200117440648    -0.031274530691    15.994914619570
         C            2.260023655809     0.807430559352     0.020228469309    12.000000000000
         C            3.588066655809     0.070562559352    -0.006687530691    12.000000000000
         C            1.049325155809     0.076816359352     0.021139369309    12.000000000000
         C           -0.278934344191     0.520263559352     0.023521469309    12.000000000000
         C           -1.406472344191    -0.212408440648     0.000747469309    12.000000000000
         C           -2.730923344191     0.426855559352    -0.007223530691    12.000000000000
         H            2.178905655809     1.453316559352     0.904775469309     1.007825032230
         H            2.160523655809     1.485404559352    -0.839759530691     1.007825032230
         H            3.681895655809    -0.583136440648     0.861718469309     1.007825032230
         H            3.663358655809    -0.553578440648    -0.898302530691     1.007825032230
         H            4.419688655809     0.778828559352    -0.003645530691     1.007825032230
         H           -0.331574344191     1.609627559352     0.040921469309     1.007825032230
         H           -1.358891344191    -1.298834440648    -0.016855530691     1.007825032230
         H           -2.727688344191     1.536461559352     0.015145469309     1.007825032230

  Basis Set: AUG-CC-PVTZ
    Blend: AUG-CC-PVTZ
  Basis Set: (AUG-CC-PVTZ AUX)
    Blend: AUG-CC-PVTZ-JKFIT
	 Reference Energy          =    -381.6294832536574972 [Eh]
	 Singles Energy            =      -0.0000000000000000 [Eh]
	 Same-Spin Energy          =      -0.3857700662758413 [Eh]
	 Opposite-Spin Energy      =      -1.2402860293169826 [Eh]
	 Correlation Energy        =      -1.6260560955928238 [Eh]
	 Total Energy              =    -383.2555393492503413 [Eh]

	 ================> DF-SCS-MP2 Energies <==================
	-----------------------------------------------------------
	 SCS Same-Spin Scale       =       0.3333333333333333 [-]
	 SCS Opposite-Spin Scale   =       1.2000000000000000 [-]
	 SCS Same-Spin Energy      =      -0.1285900220919471 [Eh]
	 SCS Opposite-Spin Energy  =      -1.4883432351803791 [Eh]
	 SCS Correlation Energy    =      -1.6169332572723263 [Eh]
	 SCS Total Energy          =    -383.2464165109298051 [Eh]
	-----------------------------------------------------------

  Dipole Moment: [D]
     X:     2.8777      Y:     3.9128      Z:     0.0918     Total:     4.8580

*** Psi4 exiting successfully. Buy a developer a beer!
