                               Psi4 1.4a3.dev225

  ==> Input File <==

--------------------------------------------------------------------------
#psi4
#
memory 32 gb

molecule  {
0 1
  O        1.0820120     1.3681640     0.0000000
  O       -3.8882340     0.1997640    -0.0000030
  C        2.1679760    -0.7815440    -0.0000070
  C        3.4943680    -0.0370920     0.0000040
  C        0.9697220     0.1420900     0.0000000
  C       -0.3759970    -0.5069640     0.0000040
  C       -1.5077040     0.2230700     0.0000000
  C       -2.8299410    -0.4231870     0.0000020
  H        2.0818540    -1.4423830    -0.8738950
  H        2.0818510    -1.4424050     0.8738640
  H        3.5776630     0.6025590    -0.8807220
  H        3.5776700     0.6025230     0.8807550
  H        4.3292850    -0.7422630    -0.0000140
  H       -0.4227839    -1.5765021     0.0000099
  H       -1.4638710     1.3098110    -0.0000060
  H       -2.8215620    -1.5330200     0.0000110
units angstrom
no_reorient  #important for SAPT in psi4, default
symmetry c1  #important for SAPT in psi4, default
}

set PROPERTIES_ORIGIN ["COM"]
properties('MP2/aug-cc-pvtz', properties = ['dipole'])
--------------------------------------------------------------------------

    Molecular point group: c1
  Charge       = 0
  Multiplicity = 1
  Basis Set: AUG-CC-PVTZ
    Blend: AUG-CC-PVTZ
  Basis Set: (AUG-CC-PVTZ AUX)
    Blend: AUG-CC-PVTZ-JKFIT

    Orbital Energies [Eh]
    ---------------------

    Doubly Occupied:

       1A    -20.574096     2A    -20.563945     3A    -11.354108
       4A    -11.351691     5A    -11.280602     6A    -11.278212
       7A    -11.257521     8A    -11.228757     9A     -1.394951
      10A     -1.393422    11A     -1.114999    12A     -1.069676
      13A     -0.954797    14A     -0.879341    15A     -0.802161
      16A     -0.757366    17A     -0.697418    18A     -0.686062
      19A     -0.645953    20A     -0.636682    21A     -0.629766
      22A     -0.575623    23A     -0.554288    24A     -0.543762
      25A     -0.536224    26A     -0.528534    27A     -0.502228
      28A     -0.451608    29A     -0.435694    30A     -0.404268

  @DF-RHF Final Energy:  -381.70278743282654

   => Energetics <=

    Nuclear Repulsion Energy =            330.9468066023570145
    One-Electron Energy =               -1175.1316778521397737
    Two-Electron Energy =                 462.4820838169562194
    Total Energy =                       -381.7027874328265398
  Basis Set: (AUG-CC-PVTZ AUX)
    Blend: AUG-CC-PVTZ-RI
    Molecular point group: c1

    Geometry (in Angstrom), charge = 0, multiplicity = 1:

       Center              X                  Y                   Z               Mass
    ------------   -----------------  -----------------  -----------------  -----------------
         O            1.178738867587     1.330497386025     0.000000080873    15.994914619570
         O           -3.791507132413     0.162097386025    -0.000002919127    15.994914619570
         C            2.264702867587    -0.819210613975    -0.000006919127    12.000000000000
         C            3.591094867587    -0.074758613975     0.000004080873    12.000000000000
         C            1.066448867587     0.104423386025     0.000000080873    12.000000000000
         C           -0.279270132413    -0.544630613975     0.000004080873    12.000000000000
         C           -1.410977132413     0.185403386025     0.000000080873    12.000000000000
         C           -2.733214132413    -0.460853613975     0.000002080873    12.000000000000
         H            2.178580867587    -1.480049613975    -0.873894919127     1.007825032230
         H            2.178577867587    -1.480071613975     0.873864080873     1.007825032230
         H            3.674389867587     0.564892386025    -0.880721919127     1.007825032230
         H            3.674396867587     0.564856386025     0.880755080873     1.007825032230
         H            4.426011867587    -0.779929613975    -0.000013919127     1.007825032230
         H           -0.326057032413    -1.614168713975     0.000009980873     1.007825032230
         H           -1.367144132413     1.272144386025    -0.000005919127     1.007825032230
         H           -2.724835132413    -1.570686613975     0.000011080873     1.007825032230

  Basis Set: AUG-CC-PVTZ
    Blend: AUG-CC-PVTZ
  Basis Set: (AUG-CC-PVTZ AUX)
    Blend: AUG-CC-PVTZ-JKFIT
	 Reference Energy          =    -381.7027874328265398 [Eh]
	 Singles Energy            =      -0.0000000000000000 [Eh]
	 Same-Spin Energy          =      -0.3773725566975733 [Eh]
	 Opposite-Spin Energy      =      -1.2238650475568440 [Eh]
	 Correlation Energy        =      -1.6012376042544174 [Eh]
	 Total Energy              =    -383.3040250370809758 [Eh]

	 ================> DF-SCS-MP2 Energies <==================
	-----------------------------------------------------------
	 SCS Same-Spin Scale       =       0.3333333333333333 [-]
	 SCS Opposite-Spin Scale   =       1.2000000000000000 [-]
	 SCS Same-Spin Energy      =      -0.1257908522325244 [Eh]
	 SCS Opposite-Spin Energy  =      -1.4686380570682127 [Eh]
	 SCS Correlation Energy    =      -1.5944289093007371 [Eh]
	 SCS Total Energy          =    -383.2972163421272853 [Eh]
	-----------------------------------------------------------

  Dipole Moment: [D]
     X:     2.7692      Y:    -3.5083      Z:     0.0000     Total:     4.4695

*** Psi4 exiting successfully. Buy a developer a beer!
