                               Psi4 1.3.2 release

  ==> Input File <==

--------------------------------------------------------------------------
#psi4
#
memory 32 gb

molecule  {
0 1
  O        1.1855920    -1.3251230    -0.0110750
  O       -3.7982662    -0.1603065    -0.0305296
  C        2.2579520     0.8287430     0.0207180
  C        3.5859950     0.0918750    -0.0061980
  C        1.0665970    -0.1008810     0.0170560
  C       -0.2810060     0.5415760     0.0240110
  C       -1.4085440    -0.1910960     0.0012370
  C       -2.7329950     0.4481680    -0.0067340
  H        2.1768340     1.4746290     0.9052650
  H        2.1584520     1.5067170    -0.8392700
  H        3.6798240    -0.5618240     0.8622080
  H        3.6612870    -0.5322660    -0.8978130
  H        4.4176170     0.8001410    -0.0031560
  H       -0.3336460     1.6309400     0.0414110
  H       -1.3609630    -1.2775220    -0.0163660
  H       -2.7491286     1.5576657     0.0154228
units angstrom
no_reorient  #important for SAPT in psi4, default
symmetry c1  #important for SAPT in psi4, default
}

set PROPERTIES_ORIGIN ["COM"]
properties('MP2/aug-cc-pvtz', properties = ['dipole'])
--------------------------------------------------------------------------

    Molecular point group: c1
  Charge       = 0
  Multiplicity = 1
  Basis Set: AUG-CC-PVTZ
    Blend: AUG-CC-PVTZ
  Basis Set: (AUG-CC-PVTZ AUX)
    Blend: AUG-CC-PVTZ-JKFIT

    Orbital Energies [Eh]
    ---------------------

    Doubly Occupied:

       1A    -20.573346     2A    -20.564479     3A    -11.354307
       4A    -11.350801     5A    -11.282941     6A    -11.278921
       7A    -11.257284     8A    -11.228462     9A     -1.395486
      10A     -1.394193    11A     -1.115335    12A     -1.070616
      13A     -0.954993    14A     -0.879159    15A     -0.800962
      16A     -0.756634    17A     -0.697373    18A     -0.685890
      19A     -0.646360    20A     -0.637507    21A     -0.629417
      22A     -0.574358    23A     -0.554569    24A     -0.544133
      25A     -0.536486    26A     -0.529058    27A     -0.502324
      28A     -0.450921    29A     -0.436138    30A     -0.405234

  @DF-RHF Final Energy:  -381.70290972092329

   => Energetics <=

    Nuclear Repulsion Energy =            331.0129151135695338
    One-Electron Energy =               -1175.2562740831945121
    Two-Electron Energy =                 462.5404492487016910
    Total Energy =                       -381.7029097209232873
  Basis Set: (AUG-CC-PVTZ AUX)
    Blend: AUG-CC-PVTZ-RI
    Molecular point group: c1

    Geometry (in Angstrom), charge = 0, multiplicity = 1:

       Center              X                  Y                   Z               Mass
    ------------   -----------------  -----------------  -----------------  -----------------
         O            1.187306131236    -1.327762531647    -0.011109354846    15.994914619570
         O           -3.796552068764    -0.162946031647    -0.030563954846    15.994914619570
         C            2.259666131236     0.826103468353     0.020683645154    12.000000000000
         C            3.587709131236     0.089235468353    -0.006232354846    12.000000000000
         C            1.068311131236    -0.103520531647     0.017021645154    12.000000000000
         C           -0.279291868764     0.538936468353     0.023976645154    12.000000000000
         C           -1.406829868764    -0.193735531647     0.001202645154    12.000000000000
         C           -2.731280868764     0.445528468353    -0.006768354846    12.000000000000
         H            2.178548131236     1.471989468353     0.905230645154     1.007825032230
         H            2.160166131236     1.504077468353    -0.839304354846     1.007825032230
         H            3.681538131236    -0.564463531647     0.862173645154     1.007825032230
         H            3.663001131236    -0.534905531647    -0.897847354846     1.007825032230
         H            4.419331131236     0.797501468353    -0.003190354846     1.007825032230
         H           -0.331931868764     1.628300468353     0.041376645154     1.007825032230
         H           -1.359248868764    -1.280161531647    -0.016400354846     1.007825032230
         H           -2.747414468764     1.555026168353     0.015388445154     1.007825032230

  Basis Set: AUG-CC-PVTZ
    Blend: AUG-CC-PVTZ
  Basis Set: (AUG-CC-PVTZ AUX)
    Blend: AUG-CC-PVTZ-JKFIT
	 Reference Energy          =    -381.7029097209232873 [Eh]
	 Singles Energy            =      -0.0000000000000000 [Eh]
	 Same-Spin Energy          =      -0.3773799844332423 [Eh]
	 Opposite-Spin Energy      =      -1.2238015768063393 [Eh]
	 Correlation Energy        =      -1.6011815612395814 [Eh]
	 Total Energy              =    -383.3040912821628581 [Eh]

	 ================> DF-SCS-MP2 Energies <==================
	-----------------------------------------------------------
	 SCS Same-Spin Scale       =       0.3333333333333333 [-]
	 SCS Opposite-Spin Scale   =       1.2000000000000000 [-]
	 SCS Same-Spin Energy      =      -0.1257933281444141 [Eh]
	 SCS Opposite-Spin Energy  =      -1.4685618921676071 [Eh]
	 SCS Correlation Energy    =      -1.5943552203120213 [Eh]
	 SCS Total Energy          =    -383.2972649412353121 [Eh]
	-----------------------------------------------------------

  Dipole Moment: [D]
     X:     2.7874      Y:     3.4809      Z:     0.0898     Total:     4.4603

*** Psi4 exiting successfully. Buy a developer a beer!
