                               Psi4 1.3.2 release

  ==> Input File <==

--------------------------------------------------------------------------
#psi4
#
memory 32 gb

molecule  {
0 1
  O        1.1855920    -1.3251230    -0.0110750
  O       -3.7874790    -0.1788050    -0.0307850
  C        2.2579520     0.8287430     0.0207180
  C        3.5859950     0.0918750    -0.0061980
  C        1.0665970    -0.1008810     0.0170560
  C       -0.2810060     0.5415760     0.0240110
  C       -1.4085440    -0.1910960     0.0012370
  C       -2.6470573     0.4992647    -0.0047739
  H        2.1768340     1.4746290     0.9052650
  H        2.1584520     1.5067170    -0.8392700
  H        3.6798240    -0.5618240     0.8622080
  H        3.6612870    -0.5322660    -0.8978130
  H        4.4176170     0.8001410    -0.0031560
  H       -0.3336460     1.6309400     0.0414110
  H       -1.3609630    -1.2775220    -0.0163660
  H       -2.7297600     1.5577740     0.0156350
units angstrom
no_reorient  #important for SAPT in psi4, default
symmetry c1  #important for SAPT in psi4, default
}

set PROPERTIES_ORIGIN ["COM"]
properties('MP2/aug-cc-pvtz', properties = ['dipole'])
--------------------------------------------------------------------------

    Molecular point group: c1
  Charge       = 0
  Multiplicity = 1
  Basis Set: AUG-CC-PVTZ
    Blend: AUG-CC-PVTZ
  Basis Set: (AUG-CC-PVTZ AUX)
    Blend: AUG-CC-PVTZ-JKFIT

    Orbital Energies [Eh]
    ---------------------

    Doubly Occupied:

       1A    -20.569164     2A    -20.568036     3A    -11.357609
       4A    -11.353681     5A    -11.289487     6A    -11.280202
       7A    -11.260047     8A    -11.230615     9A     -1.399133
      10A     -1.333402    11A     -1.127066    12A     -1.074964
      13A     -0.964829    14A     -0.886396    15A     -0.813107
      16A     -0.760175    17A     -0.703116    18A     -0.685313
      19A     -0.649136    20A     -0.639874    21A     -0.599603
      22A     -0.579303    23A     -0.551038    24A     -0.545934
      25A     -0.531434    26A     -0.516710    27A     -0.502606
      28A     -0.456130    29A     -0.440695    30A     -0.399726

  @DF-RHF Final Energy:  -381.67663174192887

   => Energetics <=

    Nuclear Repulsion Energy =            330.8583295033706690
    One-Electron Energy =               -1174.9328648587161297
    Two-Electron Energy =                 462.3979036134165881
    Total Energy =                       -381.6766317419288725
  Basis Set: (AUG-CC-PVTZ AUX)
    Blend: AUG-CC-PVTZ-RI
    Molecular point group: c1

    Geometry (in Angstrom), charge = 0, multiplicity = 1:

       Center              X                  Y                   Z               Mass
    ------------   -----------------  -----------------  -----------------  -----------------
         O            1.176388805227    -1.330595023730    -0.011284718820    15.994914619570
         O           -3.796682194773    -0.184277023730    -0.030994718820    15.994914619570
         C            2.248748805227     0.823270976270     0.020508281180    12.000000000000
         C            3.576791805227     0.086402976270    -0.006407718820    12.000000000000
         C            1.057393805227    -0.106353023730     0.016846281180    12.000000000000
         C           -0.290209194773     0.536103976270     0.023801281180    12.000000000000
         C           -1.417747194773    -0.196568023730     0.001027281180    12.000000000000
         C           -2.656260494773     0.493792676270    -0.004983618820    12.000000000000
         H            2.167630805227     1.469156976270     0.905055281180     1.007825032230
         H            2.149248805227     1.501244976270    -0.839479718820     1.007825032230
         H            3.670620805227    -0.567296023730     0.861998281180     1.007825032230
         H            3.652083805227    -0.537738023730    -0.898022718820     1.007825032230
         H            4.408413805227     0.794668976270    -0.003365718820     1.007825032230
         H           -0.342849194773     1.625467976270     0.041201281180     1.007825032230
         H           -1.370166194773    -1.282994023730    -0.016575718820     1.007825032230
         H           -2.738963194773     1.552301976270     0.015425281180     1.007825032230

  Basis Set: AUG-CC-PVTZ
    Blend: AUG-CC-PVTZ
  Basis Set: (AUG-CC-PVTZ AUX)
    Blend: AUG-CC-PVTZ-JKFIT
	 Reference Energy          =    -381.6766317419288725 [Eh]
	 Singles Energy            =      -0.0000000000000000 [Eh]
	 Same-Spin Energy          =      -0.3810689714413616 [Eh]
	 Opposite-Spin Energy      =      -1.2317687825387476 [Eh]
	 Correlation Energy        =      -1.6128377539801091 [Eh]
	 Total Energy              =    -383.2894694959089747 [Eh]

	 ================> DF-SCS-MP2 Energies <==================
	-----------------------------------------------------------
	 SCS Same-Spin Scale       =       0.3333333333333333 [-]
	 SCS Opposite-Spin Scale   =       1.2000000000000000 [-]
	 SCS Same-Spin Energy      =      -0.1270229904804538 [Eh]
	 SCS Opposite-Spin Energy  =      -1.4781225390464969 [Eh]
	 SCS Correlation Energy    =      -1.6051455295269508 [Eh]
	 SCS Total Energy          =    -383.2817772714558373 [Eh]
	-----------------------------------------------------------

  Dipole Moment: [D]
     X:     3.1387      Y:     3.6581      Z:     0.0979     Total:     4.8210

*** Psi4 exiting successfully. Buy a developer a beer!
