                               Psi4 1.3.2 release

  ==> Input File <==

--------------------------------------------------------------------------
#psi4
#
memory 32 gb

molecule  {
0 1
  O        1.1855920    -1.3251230    -0.0110750
  O       -3.7874790    -0.1788050    -0.0307850
  C        2.2579520     0.8287430     0.0207180
  C        3.5455937     0.0233801    -0.0069685
  C        1.1168757    -0.1619427     0.0154572
  C       -0.2810060     0.5415760     0.0240110
  C       -1.4085440    -0.1910960     0.0012370
  C       -2.7329950     0.4481680    -0.0067340
  H        2.1768340     1.4746290     0.9052650
  H        2.1584520     1.5067170    -0.8392700
  H        3.6798240    -0.5618240     0.8622080
  H        3.6612870    -0.5322660    -0.8978130
  H        4.4176170     0.8001410    -0.0031560
  H       -0.3336460     1.6309400     0.0414110
  H       -1.3609630    -1.2775220    -0.0163660
  H       -2.7297600     1.5577740     0.0156350
units angstrom
no_reorient  #important for SAPT in psi4, default
symmetry c1  #important for SAPT in psi4, default
}

set PROPERTIES_ORIGIN ["COM"]
properties('MP2/aug-cc-pvtz', properties = ['dipole'])
--------------------------------------------------------------------------

    Molecular point group: c1
  Charge       = 0
  Multiplicity = 1
  Basis Set: AUG-CC-PVTZ
    Blend: AUG-CC-PVTZ
  Basis Set: (AUG-CC-PVTZ AUX)
    Blend: AUG-CC-PVTZ-JKFIT

    Orbital Energies [Eh]
    ---------------------

    Doubly Occupied:

       1A    -20.571722     2A    -20.567524     3A    -11.351790
       4A    -11.345986     5A    -11.277983     6A    -11.268458
       7A    -11.257677     8A    -11.230597     9A     -1.443261
      10A     -1.389480    11A     -1.104559    12A     -1.073273
      13A     -0.941716    14A     -0.874552    15A     -0.794430
      16A     -0.756548    17A     -0.700943    18A     -0.682289
      19A     -0.657376    20A     -0.650619    21A     -0.628024
      22A     -0.572240    23A     -0.570563    24A     -0.542882
      25A     -0.541410    26A     -0.521007    27A     -0.518440
      28A     -0.447842    29A     -0.421958    30A     -0.401767

  @DF-RHF Final Energy:  -381.69438578231552

   => Energetics <=

    Nuclear Repulsion Energy =            331.9915374463049034
    One-Electron Energy =               -1177.1580153219574640
    Two-Electron Energy =                 463.4720920933370962
    Total Energy =                       -381.6943857823155213
  Basis Set: (AUG-CC-PVTZ AUX)
    Blend: AUG-CC-PVTZ-RI
    Molecular point group: c1

    Geometry (in Angstrom), charge = 0, multiplicity = 1:

       Center              X                  Y                   Z               Mass
    ------------   -----------------  -----------------  -----------------  -----------------
         O            1.184534310006    -1.311248369581    -0.010821071577    15.994914619570
         O           -3.788536689994    -0.164930369581    -0.030531071577    15.994914619570
         C            2.256894310006     0.842617630419     0.020971928423    12.000000000000
         C            3.544536010006     0.037254730419    -0.006714571577    12.000000000000
         C            1.115818010006    -0.148068069581     0.015711128423    12.000000000000
         C           -0.282063689994     0.555450630419     0.024264928423    12.000000000000
         C           -1.409601689994    -0.177221369581     0.001490928423    12.000000000000
         C           -2.734052689994     0.462042630419    -0.006480071577    12.000000000000
         H            2.175776310006     1.488503630419     0.905518928423     1.007825032230
         H            2.157394310006     1.520591630419    -0.839016071577     1.007825032230
         H            3.678766310006    -0.547949369581     0.862461928423     1.007825032230
         H            3.660229310006    -0.518391369581    -0.897559071577     1.007825032230
         H            4.416559310006     0.814015630419    -0.002902071577     1.007825032230
         H           -0.334703689994     1.644814630419     0.041664928423     1.007825032230
         H           -1.362020689994    -1.263647369581    -0.016112071577     1.007825032230
         H           -2.730817689994     1.571648630419     0.015888928423     1.007825032230

  Basis Set: AUG-CC-PVTZ
    Blend: AUG-CC-PVTZ
  Basis Set: (AUG-CC-PVTZ AUX)
    Blend: AUG-CC-PVTZ-JKFIT
	 Reference Energy          =    -381.6943857823155213 [Eh]
	 Singles Energy            =      -0.0000000000000000 [Eh]
	 Same-Spin Energy          =      -0.3757292920945801 [Eh]
	 Opposite-Spin Energy      =      -1.2202502695045321 [Eh]
	 Correlation Energy        =      -1.5959795615991121 [Eh]
	 Total Energy              =    -383.2903653439146296 [Eh]

	 ================> DF-SCS-MP2 Energies <==================
	-----------------------------------------------------------
	 SCS Same-Spin Scale       =       0.3333333333333333 [-]
	 SCS Opposite-Spin Scale   =       1.2000000000000000 [-]
	 SCS Same-Spin Energy      =      -0.1252430973648600 [Eh]
	 SCS Opposite-Spin Energy  =      -1.4643003234054384 [Eh]
	 SCS Correlation Energy    =      -1.5895434207702983 [Eh]
	 SCS Total Energy          =    -383.2839292030858473 [Eh]
	-----------------------------------------------------------

  Dipole Moment: [D]
     X:     3.1474      Y:     3.2676      Z:     0.0880     Total:     4.5377

*** Psi4 exiting successfully. Buy a developer a beer!
