                               Psi4 1.3.2 release

  ==> Input File <==

--------------------------------------------------------------------------
#psi4
#
memory 32 gb

molecule  {
0 1
  O        1.1855920    -1.3251230    -0.0110750
  O       -3.7874790    -0.1788050    -0.0307850
  C        2.2579520     0.8287430     0.0207180
  C        3.5859950     0.0918750    -0.0061980
  C        1.0665970    -0.1008810     0.0170560
  C       -0.2810060     0.5415760     0.0240110
  C       -1.4141698    -0.2026269     0.0009166
  C       -2.7329950     0.4481680    -0.0067340
  H        2.1768340     1.4746290     0.9052650
  H        2.1584520     1.5067170    -0.8392700
  H        3.6798240    -0.5618240     0.8622080
  H        3.6612870    -0.5322660    -0.8978130
  H        4.4176170     0.8001410    -0.0031560
  H       -0.3336460     1.6309400     0.0414110
  H       -1.3609630    -1.2775220    -0.0163660
  H       -2.7394439     1.5577630     0.0154825
units angstrom
no_reorient  #important for SAPT in psi4, default
symmetry c1  #important for SAPT in psi4, default
}

set PROPERTIES_ORIGIN ["COM"]
properties('MP2/aug-cc-pvtz', properties = ['dipole'])
--------------------------------------------------------------------------

    Molecular point group: c1
  Charge       = 0
  Multiplicity = 1
  Basis Set: AUG-CC-PVTZ
    Blend: AUG-CC-PVTZ
  Basis Set: (AUG-CC-PVTZ AUX)
    Blend: AUG-CC-PVTZ-JKFIT

    Orbital Energies [Eh]
    ---------------------

    Doubly Occupied:

       1A    -20.573251     2A    -20.563872     3A    -11.353743
       4A    -11.351034     5A    -11.283686     6A    -11.279071
       7A    -11.256920     8A    -11.228198     9A     -1.395429
      10A     -1.394000    11A     -1.112807    12A     -1.070010
      13A     -0.954805    14A     -0.878371    15A     -0.802878
      16A     -0.755735    17A     -0.696877    18A     -0.685115
      19A     -0.646004    20A     -0.637430    21A     -0.629099
      22A     -0.576836    23A     -0.554236    24A     -0.543703
      25A     -0.536377    26A     -0.528757    27A     -0.501972
      28A     -0.451545    29A     -0.435678    30A     -0.402376

  @DF-RHF Final Energy:  -381.70242971987136

   => Energetics <=

    Nuclear Repulsion Energy =            331.0137735215953398
    One-Electron Energy =               -1175.2727756086028421
    Two-Electron Energy =                 462.5565723671361411
    Total Energy =                       -381.7024297198713612
  Basis Set: (AUG-CC-PVTZ AUX)
    Blend: AUG-CC-PVTZ-RI
    Molecular point group: c1

    Geometry (in Angstrom), charge = 0, multiplicity = 1:

       Center              X                  Y                   Z               Mass
    ------------   -----------------  -----------------  -----------------  -----------------
         O            1.186281689137    -1.323887964459    -0.011039122241    15.994914619570
         O           -3.786789310863    -0.177569964459    -0.030749122241    15.994914619570
         C            2.258641689137     0.829978035541     0.020753877759    12.000000000000
         C            3.586684689137     0.093110035541    -0.006162122241    12.000000000000
         C            1.067286689137    -0.099645964459     0.017091877759    12.000000000000
         C           -0.280316310863     0.542811035541     0.024046877759    12.000000000000
         C           -1.413480110863    -0.201391864459     0.000952477759    12.000000000000
         C           -2.732305310863     0.449403035541    -0.006698122241    12.000000000000
         H            2.177523689137     1.475864035541     0.905300877759     1.007825032230
         H            2.159141689137     1.507952035541    -0.839234122241     1.007825032230
         H            3.680513689137    -0.560588964459     0.862243877759     1.007825032230
         H            3.661976689137    -0.531030964459    -0.897777122241     1.007825032230
         H            4.418306689137     0.801376035541    -0.003120122241     1.007825032230
         H           -0.332956310863     1.632175035541     0.041446877759     1.007825032230
         H           -1.360273310863    -1.276286964459    -0.016330122241     1.007825032230
         H           -2.738754210863     1.558998035541     0.015518377759     1.007825032230

  Basis Set: AUG-CC-PVTZ
    Blend: AUG-CC-PVTZ
  Basis Set: (AUG-CC-PVTZ AUX)
    Blend: AUG-CC-PVTZ-JKFIT
	 Reference Energy          =    -381.7024297198713612 [Eh]
	 Singles Energy            =      -0.0000000000000000 [Eh]
	 Same-Spin Energy          =      -0.3774726591902151 [Eh]
	 Opposite-Spin Energy      =      -1.2240034069270673 [Eh]
	 Correlation Energy        =      -1.6014760661172824 [Eh]
	 Total Energy              =    -383.3039057859886611 [Eh]

	 ================> DF-SCS-MP2 Energies <==================
	-----------------------------------------------------------
	 SCS Same-Spin Scale       =       0.3333333333333333 [-]
	 SCS Opposite-Spin Scale   =       1.2000000000000000 [-]
	 SCS Same-Spin Energy      =      -0.1258242197300717 [Eh]
	 SCS Opposite-Spin Energy  =      -1.4688040883124807 [Eh]
	 SCS Correlation Energy    =      -1.5946283080425523 [Eh]
	 SCS Total Energy          =    -383.2970580279139199 [Eh]
	-----------------------------------------------------------

  Dipole Moment: [D]
     X:     2.7466      Y:     3.5167      Z:     0.0902     Total:     4.4631

*** Psi4 exiting successfully. Buy a developer a beer!
