                               Psi4 1.4a3.dev225

  ==> Input File <==

--------------------------------------------------------------------------
#psi4
#
memory 32 gb

molecule  {
0 1
  O        1.0820120     1.3681640     0.0000000
  O       -3.8882340     0.1997640    -0.0000030
  C        2.1679760    -0.7815440    -0.0000070
  C        3.4943680    -0.0370920     0.0000040
  C        0.9697220     0.1420900     0.0000000
  C       -0.3759970    -0.5069640     0.0000040
  C       -1.5077040     0.2230700     0.0000000
  C       -2.8299410    -0.4231870     0.0000020
  H        2.0818540    -1.4423830    -0.8738950
  H        2.0818510    -1.4424050     0.8738640
  H        3.5776630     0.6025590    -0.8807220
  H        3.5776700     0.6025230     0.8807550
  H        4.3292850    -0.7422630    -0.0000140
  H       -0.4236580    -1.5964830     0.0000100
  H       -1.4658861     1.2598516    -0.0000057
  H       -2.8215620    -1.5330200     0.0000110
units angstrom
no_reorient  #important for SAPT in psi4, default
symmetry c1  #important for SAPT in psi4, default
}

set PROPERTIES_ORIGIN ["COM"]
properties('MP2/aug-cc-pvtz', properties = ['dipole'])
--------------------------------------------------------------------------

    Molecular point group: c1
  Charge       = 0
  Multiplicity = 1
  Basis Set: AUG-CC-PVTZ
    Blend: AUG-CC-PVTZ
  Basis Set: (AUG-CC-PVTZ AUX)
    Blend: AUG-CC-PVTZ-JKFIT

    Orbital Energies [Eh]
    ---------------------

    Doubly Occupied:

       1A    -20.574083     2A    -20.564313     3A    -11.354451
       4A    -11.351477     5A    -11.282695     6A    -11.273590
       7A    -11.257551     8A    -11.228791     9A     -1.395105
      10A     -1.393677    11A     -1.115784    12A     -1.070073
      13A     -0.955200    14A     -0.879078    15A     -0.807390
      16A     -0.757632    17A     -0.696974    18A     -0.685554
      19A     -0.646014    20A     -0.638572    21A     -0.630571
      22A     -0.580389    23A     -0.554412    24A     -0.543713
      25A     -0.536356    26A     -0.528595    27A     -0.502334
      28A     -0.451796    29A     -0.435740    30A     -0.404477

  @DF-RHF Final Energy:  -381.70189283424543

   => Energetics <=

    Nuclear Repulsion Energy =            331.0804428349561590
    One-Electron Energy =               -1175.3718955059416658
    Two-Electron Energy =                 462.5895598367401362
    Total Energy =                       -381.7018928342454274
  Basis Set: (AUG-CC-PVTZ AUX)
    Blend: AUG-CC-PVTZ-RI
    Molecular point group: c1

    Geometry (in Angstrom), charge = 0, multiplicity = 1:

       Center              X                  Y                   Z               Mass
    ------------   -----------------  -----------------  -----------------  -----------------
         O            1.178764853709     1.331126444988     0.000000077276    15.994914619570
         O           -3.791481146291     0.162726444988    -0.000002922724    15.994914619570
         C            2.264728853709    -0.818581555012    -0.000006922724    12.000000000000
         C            3.591120853709    -0.074129555012     0.000004077276    12.000000000000
         C            1.066474853709     0.105052444988     0.000000077276    12.000000000000
         C           -0.279244146291    -0.544001555012     0.000004077276    12.000000000000
         C           -1.410951146291     0.186032444988     0.000000077276    12.000000000000
         C           -2.733188146291    -0.460224555012     0.000002077276    12.000000000000
         H            2.178606853709    -1.479420555012    -0.873894922724     1.007825032230
         H            2.178603853709    -1.479442555012     0.873864077276     1.007825032230
         H            3.674415853709     0.565521444988    -0.880721922724     1.007825032230
         H            3.674422853709     0.565485444988     0.880755077276     1.007825032230
         H            4.426037853709    -0.779300555012    -0.000013922724     1.007825032230
         H           -0.326905146291    -1.633520555012     0.000010077276     1.007825032230
         H           -1.369133246291     1.222814044988    -0.000005622724     1.007825032230
         H           -2.724809146291    -1.570057555012     0.000011077276     1.007825032230

  Basis Set: AUG-CC-PVTZ
    Blend: AUG-CC-PVTZ
  Basis Set: (AUG-CC-PVTZ AUX)
    Blend: AUG-CC-PVTZ-JKFIT
	 Reference Energy          =    -381.7018928342454274 [Eh]
	 Singles Energy            =      -0.0000000000000000 [Eh]
	 Same-Spin Energy          =      -0.3772629032436271 [Eh]
	 Opposite-Spin Energy      =      -1.2236704626577954 [Eh]
	 Correlation Energy        =      -1.6009333659014224 [Eh]
	 Total Energy              =    -383.3028262001468534 [Eh]

	 ================> DF-SCS-MP2 Energies <==================
	-----------------------------------------------------------
	 SCS Same-Spin Scale       =       0.3333333333333333 [-]
	 SCS Opposite-Spin Scale   =       1.2000000000000000 [-]
	 SCS Same-Spin Energy      =      -0.1257543010812090 [Eh]
	 SCS Opposite-Spin Energy  =      -1.4684045551893545 [Eh]
	 SCS Correlation Energy    =      -1.5941588562705635 [Eh]
	 SCS Total Energy          =    -383.2960516905159807 [Eh]
	-----------------------------------------------------------

  Dipole Moment: [D]
     X:     2.7741      Y:    -3.5140      Z:     0.0000     Total:     4.4770

*** Psi4 exiting successfully. Buy a developer a beer!
