                               Psi4 1.3.2 release

  ==> Input File <==

--------------------------------------------------------------------------
#psi4
#
memory 32 gb

molecule  {
0 1
  O        1.1855920    -1.3251230    -0.0110750
  O       -3.7874790    -0.1788050    -0.0307850
  C        2.2579520     0.8287430     0.0207180
  C        3.5859950     0.0918750    -0.0061980
  C        1.0665970    -0.1008810     0.0170560
  C       -0.2810060     0.5415760     0.0240110
  C       -1.4085440    -0.1910960     0.0012370
  C       -2.7216416     0.4711819    -0.0061864
  H        2.1768340     1.4746290     0.9052650
  H        2.1584520     1.5067170    -0.8392700
  H        3.6798240    -0.5618240     0.8622080
  H        3.6612870    -0.5322660    -0.8978130
  H        4.4176170     0.8001410    -0.0031560
  H       -0.3336460     1.6309400     0.0414110
  H       -1.3420089    -1.2765307    -0.0160814
  H       -2.7297600     1.5577740     0.0156350
units angstrom
no_reorient  #important for SAPT in psi4, default
symmetry c1  #important for SAPT in psi4, default
}

set PROPERTIES_ORIGIN ["COM"]
properties('MP2/aug-cc-pvtz', properties = ['dipole'])
--------------------------------------------------------------------------

    Molecular point group: c1
  Charge       = 0
  Multiplicity = 1
  Basis Set: AUG-CC-PVTZ
    Blend: AUG-CC-PVTZ
  Basis Set: (AUG-CC-PVTZ AUX)
    Blend: AUG-CC-PVTZ-JKFIT

    Orbital Energies [Eh]
    ---------------------

    Doubly Occupied:

       1A    -20.573388     2A    -20.564480     3A    -11.354148
       4A    -11.352693     5A    -11.282137     6A    -11.278687
       7A    -11.257249     8A    -11.228454     9A     -1.395023
      10A     -1.381134    11A     -1.115849    12A     -1.070712
      13A     -0.955331    14A     -0.880535    15A     -0.806096
      16A     -0.755894    17A     -0.697908    18A     -0.684764
      19A     -0.646355    20A     -0.636267    21A     -0.625346
      22A     -0.574057    23A     -0.551308    24A     -0.544078
      25A     -0.532337    26A     -0.529047    27A     -0.502179
      28A     -0.454392    29A     -0.436413    30A     -0.403695

  @DF-RHF Final Energy:  -381.69954718101036

   => Energetics <=

    Nuclear Repulsion Energy =            330.9299912351832518
    One-Electron Energy =               -1175.1191704016346193
    Two-Electron Energy =                 462.4896319854410081
    Total Energy =                       -381.6995471810103595
  Basis Set: (AUG-CC-PVTZ AUX)
    Blend: AUG-CC-PVTZ-RI
    Molecular point group: c1

    Geometry (in Angstrom), charge = 0, multiplicity = 1:

       Center              X                  Y                   Z               Mass
    ------------   -----------------  -----------------  -----------------  -----------------
         O            1.184205763659    -1.327596476134    -0.011136010103    15.994914619570
         O           -3.788865236341    -0.181278476134    -0.030846010103    15.994914619570
         C            2.256565763659     0.826269523866     0.020656989897    12.000000000000
         C            3.584608763659     0.089401523866    -0.006259010103    12.000000000000
         C            1.065210763659    -0.103354476134     0.016994989897    12.000000000000
         C           -0.282392236341     0.539102523866     0.023949989897    12.000000000000
         C           -1.409930236341    -0.193569476134     0.001175989897    12.000000000000
         C           -2.723027836341     0.468708423866    -0.006247410103    12.000000000000
         H            2.175447763659     1.472155523866     0.905203989897     1.007825032230
         H            2.157065763659     1.504243523866    -0.839331010103     1.007825032230
         H            3.678437763659    -0.564297476134     0.862146989897     1.007825032230
         H            3.659900763659    -0.534739476134    -0.897874010103     1.007825032230
         H            4.416230763659     0.797667523866    -0.003217010103     1.007825032230
         H           -0.335032236341     1.628466523866     0.041349989897     1.007825032230
         H           -1.343395136341    -1.279004176134    -0.016142410103     1.007825032230
         H           -2.731146236341     1.555300523866     0.015573989897     1.007825032230

  Basis Set: AUG-CC-PVTZ
    Blend: AUG-CC-PVTZ
  Basis Set: (AUG-CC-PVTZ AUX)
    Blend: AUG-CC-PVTZ-JKFIT
	 Reference Energy          =    -381.6995471810103595 [Eh]
	 Singles Energy            =      -0.0000000000000000 [Eh]
	 Same-Spin Energy          =      -0.3779952139130807 [Eh]
	 Opposite-Spin Energy      =      -1.2252416231520686 [Eh]
	 Correlation Energy        =      -1.6032368370651493 [Eh]
	 Total Energy              =    -383.3027840180754993 [Eh]

	 ================> DF-SCS-MP2 Energies <==================
	-----------------------------------------------------------
	 SCS Same-Spin Scale       =       0.3333333333333333 [-]
	 SCS Opposite-Spin Scale   =       1.2000000000000000 [-]
	 SCS Same-Spin Energy      =      -0.1259984046376935 [Eh]
	 SCS Opposite-Spin Energy  =      -1.4702899477824822 [Eh]
	 SCS Correlation Energy    =      -1.5962883524201759 [Eh]
	 SCS Total Energy          =    -383.2958355334305338 [Eh]
	-----------------------------------------------------------

  Dipole Moment: [D]
     X:     2.7988      Y:     3.5913      Z:     0.0923     Total:     4.5540

*** Psi4 exiting successfully. Buy a developer a beer!
