                               Psi4 1.3.2 release

  ==> Input File <==

--------------------------------------------------------------------------
#psi4
#
memory 32 gb

molecule  {
0 1
  O        1.1855920    -1.3251230    -0.0110750
  O       -3.7874790    -0.1788050    -0.0307850
  C        2.2579520     0.8287430     0.0207180
  C        3.5859950     0.0918750    -0.0061980
  C        1.0721523    -0.0890983     0.0172596
  C       -0.2810060     0.5415760     0.0240110
  C       -1.4085440    -0.1910960     0.0012370
  C       -2.7329950     0.4481680    -0.0067340
  H        2.1768340     1.4746290     0.9052650
  H        2.1584520     1.5067170    -0.8392700
  H        3.6798240    -0.5618240     0.8622080
  H        3.6612870    -0.5322660    -0.8978130
  H        4.4176170     0.8001410    -0.0031560
  H       -0.3241364     1.6313574     0.0414416
  H       -1.3609630    -1.2775220    -0.0163660
  H       -2.7297600     1.5577740     0.0156350
units angstrom
no_reorient  #important for SAPT in psi4, default
symmetry c1  #important for SAPT in psi4, default
}

set PROPERTIES_ORIGIN ["COM"]
properties('MP2/aug-cc-pvtz', properties = ['dipole'])
--------------------------------------------------------------------------

    Molecular point group: c1
  Charge       = 0
  Multiplicity = 1
  Basis Set: AUG-CC-PVTZ
    Blend: AUG-CC-PVTZ
  Basis Set: (AUG-CC-PVTZ AUX)
    Blend: AUG-CC-PVTZ-JKFIT

    Orbital Energies [Eh]
    ---------------------

    Doubly Occupied:

       1A    -20.574047     2A    -20.563150     3A    -11.354641
       4A    -11.351405     5A    -11.282680     6A    -11.278271
       7A    -11.257731     8A    -11.228875     9A     -1.395295
      10A     -1.387103    11A     -1.114936    12A     -1.072669
      13A     -0.955927    14A     -0.880545    15A     -0.801593
      16A     -0.755795    17A     -0.695988    18A     -0.686178
      19A     -0.647205    20A     -0.636450    21A     -0.628819
      22A     -0.572764    23A     -0.553954    24A     -0.544349
      25A     -0.535249    26A     -0.528847    27A     -0.500704
      28A     -0.451582    29A     -0.437351    30A     -0.404156

  @DF-RHF Final Energy:  -381.70141050278795

   => Energetics <=

    Nuclear Repulsion Energy =            331.0607570387214196
    One-Electron Energy =               -1175.3678187524465102
    Two-Electron Energy =                 462.6056512109370829
    Total Energy =                       -381.7014105027879509
  Basis Set: (AUG-CC-PVTZ AUX)
    Blend: AUG-CC-PVTZ-RI
    Molecular point group: c1

    Geometry (in Angstrom), charge = 0, multiplicity = 1:

       Center              X                  Y                   Z               Mass
    ------------   -----------------  -----------------  -----------------  -----------------
         O            1.184911643967    -1.326388534536    -0.011096885672    15.994914619570
         O           -3.788159356033    -0.180070534536    -0.030806885672    15.994914619570
         C            2.257271643967     0.827477465464     0.020696114328    12.000000000000
         C            3.585314643967     0.090609465464    -0.006219885672    12.000000000000
         C            1.071471943967    -0.090363834536     0.017237714328    12.000000000000
         C           -0.281686356033     0.540310465464     0.023989114328    12.000000000000
         C           -1.409224356033    -0.192361534536     0.001215114328    12.000000000000
         C           -2.733675356033     0.446902465464    -0.006755885672    12.000000000000
         H            2.176153643967     1.473363465464     0.905243114328     1.007825032230
         H            2.157771643967     1.505451465464    -0.839291885672     1.007825032230
         H            3.679143643967    -0.563089534536     0.862186114328     1.007825032230
         H            3.660606643967    -0.533531534536    -0.897834885672     1.007825032230
         H            4.416936643967     0.798875465464    -0.003177885672     1.007825032230
         H           -0.324816756033     1.630091865464     0.041419714328     1.007825032230
         H           -1.361643356033    -1.278787534536    -0.016387885672     1.007825032230
         H           -2.730440356033     1.556508465464     0.015613114328     1.007825032230

  Basis Set: AUG-CC-PVTZ
    Blend: AUG-CC-PVTZ
  Basis Set: (AUG-CC-PVTZ AUX)
    Blend: AUG-CC-PVTZ-JKFIT
	 Reference Energy          =    -381.7014105027879509 [Eh]
	 Singles Energy            =      -0.0000000000000000 [Eh]
	 Same-Spin Energy          =      -0.3777737555283124 [Eh]
	 Opposite-Spin Energy      =      -1.2245691961985312 [Eh]
	 Correlation Energy        =      -1.6023429517268437 [Eh]
	 Total Energy              =    -383.3037534545147764 [Eh]

	 ================> DF-SCS-MP2 Energies <==================
	-----------------------------------------------------------
	 SCS Same-Spin Scale       =       0.3333333333333333 [-]
	 SCS Opposite-Spin Scale   =       1.2000000000000000 [-]
	 SCS Same-Spin Energy      =      -0.1259245851761041 [Eh]
	 SCS Opposite-Spin Energy  =      -1.4694830354382373 [Eh]
	 SCS Correlation Energy    =      -1.5954076206143415 [Eh]
	 SCS Total Energy          =    -383.2968181234023177 [Eh]
	-----------------------------------------------------------

  Dipole Moment: [D]
     X:     2.7916      Y:     3.5579      Z:     0.0905     Total:     4.5233

*** Psi4 exiting successfully. Buy a developer a beer!
