                               Psi4 1.3.2 release

  ==> Input File <==

--------------------------------------------------------------------------
#psi4
#
memory 32 gb

molecule  {
0 1
  O        1.1855920    -1.3251230    -0.0110750
  O       -3.7874790    -0.1788050    -0.0307850
  C        2.2579520     0.8287430     0.0207180
  C        3.5859950     0.0918750    -0.0061980
  C        1.0665970    -0.1008810     0.0170560
  C       -0.2810060     0.5415760     0.0240110
  C       -1.4085440    -0.1910960     0.0012370
  C       -2.5611196     0.5503613    -0.0028138
  H        2.1768340     1.4746290     0.9052650
  H        2.1584520     1.5067170    -0.8392700
  H        3.6798240    -0.5618240     0.8622080
  H        3.6612870    -0.5322660    -0.8978130
  H        4.4176170     0.8001410    -0.0031560
  H       -0.3336460     1.6309400     0.0414110
  H       -1.3609630    -1.2775220    -0.0163660
  H       -2.7297600     1.5577740     0.0156350
units angstrom
no_reorient  #important for SAPT in psi4, default
symmetry c1  #important for SAPT in psi4, default
}

set PROPERTIES_ORIGIN ["COM"]
properties('MP2/aug-cc-pvtz', properties = ['dipole'])
--------------------------------------------------------------------------

    Molecular point group: c1
  Charge       = 0
  Multiplicity = 1
  Basis Set: AUG-CC-PVTZ
    Blend: AUG-CC-PVTZ
  Basis Set: (AUG-CC-PVTZ AUX)
    Blend: AUG-CC-PVTZ-JKFIT

    Orbital Energies [Eh]
    ---------------------

    Doubly Occupied:

       1A    -20.574690     2A    -20.560518     3A    -11.361466
       4A    -11.355292     5A    -11.297680     6A    -11.282061
       7A    -11.263209     8A    -11.233082     9A     -1.404034
      10A     -1.284550    11A     -1.139649    12A     -1.079389
      13A     -0.973844    14A     -0.892158    15A     -0.825346
      16A     -0.764358    17A     -0.714095    18A     -0.687316
      19A     -0.652327    20A     -0.647011    21A     -0.593556
      22A     -0.560605    23A     -0.554200    24A     -0.544631
      25A     -0.533625    26A     -0.512283    27A     -0.496480
      28A     -0.452986    29A     -0.442709    30A     -0.388218

  @DF-RHF Final Energy:  -381.62902515546159

   => Energetics <=

    Nuclear Repulsion Energy =            330.7954322607558311
    One-Electron Energy =               -1174.7061784255765815
    Two-Electron Energy =                 462.2817210093591029
    Total Energy =                       -381.6290251554615907
  Basis Set: (AUG-CC-PVTZ AUX)
    Blend: AUG-CC-PVTZ-RI
    Molecular point group: c1

    Geometry (in Angstrom), charge = 0, multiplicity = 1:

       Center              X                  Y                   Z               Mass
    ------------   -----------------  -----------------  -----------------  -----------------
         O            1.167185502767    -1.336067097854    -0.011494631270    15.994914619570
         O           -3.805885497233    -0.189749097854    -0.031204631270    15.994914619570
         C            2.239545502767     0.817798902146     0.020298368730    12.000000000000
         C            3.567588502767     0.080930902146    -0.006617631270    12.000000000000
         C            1.048190502767    -0.111825097854     0.016636368730    12.000000000000
         C           -0.299412497233     0.530631902146     0.023591368730    12.000000000000
         C           -1.426950497233    -0.202040097854     0.000817368730    12.000000000000
         C           -2.579526097233     0.539417202146    -0.003233431270    12.000000000000
         H            2.158427502767     1.463684902146     0.904845368730     1.007825032230
         H            2.140045502767     1.495772902146    -0.839689631270     1.007825032230
         H            3.661417502767    -0.572768097854     0.861788368730     1.007825032230
         H            3.642880502767    -0.543210097854    -0.898232631270     1.007825032230
         H            4.399210502767     0.789196902146    -0.003575631270     1.007825032230
         H           -0.352052497233     1.619995902146     0.040991368730     1.007825032230
         H           -1.379369497233    -1.288466097854    -0.016785631270     1.007825032230
         H           -2.748166497233     1.546829902146     0.015215368730     1.007825032230

  Basis Set: AUG-CC-PVTZ
    Blend: AUG-CC-PVTZ
  Basis Set: (AUG-CC-PVTZ AUX)
    Blend: AUG-CC-PVTZ-JKFIT
	 Reference Energy          =    -381.6290251554615907 [Eh]
	 Singles Energy            =      -0.0000000000000000 [Eh]
	 Same-Spin Energy          =      -0.3856564286026240 [Eh]
	 Opposite-Spin Energy      =      -1.2414246559467621 [Eh]
	 Correlation Energy        =      -1.6270810845493862 [Eh]
	 Total Energy              =    -383.2561062400109790 [Eh]

	 ================> DF-SCS-MP2 Energies <==================
	-----------------------------------------------------------
	 SCS Same-Spin Scale       =       0.3333333333333333 [-]
	 SCS Opposite-Spin Scale   =       1.2000000000000000 [-]
	 SCS Same-Spin Energy      =      -0.1285521428675413 [Eh]
	 SCS Opposite-Spin Energy  =      -1.4897095871361146 [Eh]
	 SCS Correlation Energy    =      -1.6182617300036559 [Eh]
	 SCS Total Energy          =    -383.2472868854652575 [Eh]
	-----------------------------------------------------------

  Dipole Moment: [D]
     X:     3.2395      Y:     3.6813      Z:     0.1005     Total:     4.9047

*** Psi4 exiting successfully. Buy a developer a beer!
