                               Psi4 1.3.2 release

  ==> Input File <==

--------------------------------------------------------------------------
#psi4
#
memory 32 gb

molecule  {
0 1
  O        1.1855920    -1.3251230    -0.0110750
  O       -3.7874790    -0.1788050    -0.0307850
  C        2.2579520     0.8287430     0.0207180
  C        3.5859950     0.0918750    -0.0061980
  C        1.0665970    -0.1008810     0.0170560
  C       -0.2810060     0.5415760     0.0240110
  C       -1.4085440    -0.1910960     0.0012370
  C       -2.7273685     0.4596997    -0.0064605
  H        2.1768340     1.4746290     0.9052650
  H        2.1584520     1.5067170    -0.8392700
  H        3.6798240    -0.5618240     0.8622080
  H        3.6612870    -0.5322660    -0.8978130
  H        4.4176170     0.8001410    -0.0031560
  H       -0.3336460     1.6309400     0.0414110
  H       -1.3514838    -1.2770677    -0.0162243
  H       -2.7297600     1.5577740     0.0156350
units angstrom
no_reorient  #important for SAPT in psi4, default
symmetry c1  #important for SAPT in psi4, default
}

set PROPERTIES_ORIGIN ["COM"]
properties('MP2/aug-cc-pvtz', properties = ['dipole'])
--------------------------------------------------------------------------

    Molecular point group: c1
  Charge       = 0
  Multiplicity = 1
  Basis Set: AUG-CC-PVTZ
    Blend: AUG-CC-PVTZ
  Basis Set: (AUG-CC-PVTZ AUX)
    Blend: AUG-CC-PVTZ-JKFIT

    Orbital Energies [Eh]
    ---------------------

    Doubly Occupied:

       1A    -20.573691     2A    -20.564263     3A    -11.354032
       4A    -11.352009     5A    -11.282161     6A    -11.278292
       7A    -11.257134     8A    -11.228357     9A     -1.394831
      10A     -1.388074    11A     -1.115366    12A     -1.070527
      13A     -0.955061    14A     -0.879827    15A     -0.803676
      16A     -0.756094    17A     -0.697203    18A     -0.685318
      19A     -0.646231    20A     -0.636437    21A     -0.627996
      22A     -0.573850    23A     -0.552749    24A     -0.544007
      25A     -0.534616    26A     -0.528941    27A     -0.502135
      28A     -0.453070    29A     -0.436140    30A     -0.404220

  @DF-RHF Final Energy:  -381.70155210473649

   => Energetics <=

    Nuclear Repulsion Energy =            331.0324659101202656
    One-Electron Energy =               -1175.3154187210520831
    Two-Electron Energy =                 462.5814007061953816
    Total Energy =                       -381.7015521047364928
  Basis Set: (AUG-CC-PVTZ AUX)
    Blend: AUG-CC-PVTZ-RI
    Molecular point group: c1

    Geometry (in Angstrom), charge = 0, multiplicity = 1:

       Center              X                  Y                   Z               Mass
    ------------   -----------------  -----------------  -----------------  -----------------
         O            1.184904292390    -1.326361986149    -0.011105370712    15.994914619570
         O           -3.788166707610    -0.180043986149    -0.030815370712    15.994914619570
         C            2.257264292390     0.827504013851     0.020687629288    12.000000000000
         C            3.585307292390     0.090636013851    -0.006228370712    12.000000000000
         C            1.065909292390    -0.102119986149     0.017025629288    12.000000000000
         C           -0.281693707610     0.540337013851     0.023980629288    12.000000000000
         C           -1.409231707610    -0.192334986149     0.001206629288    12.000000000000
         C           -2.728056207610     0.458460713851    -0.006490870712    12.000000000000
         H            2.176146292390     1.473390013851     0.905234629288     1.007825032230
         H            2.157764292390     1.505478013851    -0.839300370712     1.007825032230
         H            3.679136292390    -0.563062986149     0.862177629288     1.007825032230
         H            3.660599292390    -0.533504986149    -0.897843370712     1.007825032230
         H            4.416929292390     0.798902013851    -0.003186370712     1.007825032230
         H           -0.334333707610     1.629701013851     0.041380629288     1.007825032230
         H           -1.352171507610    -1.278306686149    -0.016254670712     1.007825032230
         H           -2.730447707610     1.556535013851     0.015604629288     1.007825032230

  Basis Set: AUG-CC-PVTZ
    Blend: AUG-CC-PVTZ
  Basis Set: (AUG-CC-PVTZ AUX)
    Blend: AUG-CC-PVTZ-JKFIT
	 Reference Energy          =    -381.7015521047364928 [Eh]
	 Singles Energy            =      -0.0000000000000000 [Eh]
	 Same-Spin Energy          =      -0.3776972812911301 [Eh]
	 Opposite-Spin Energy      =      -1.2245139251955091 [Eh]
	 Correlation Energy        =      -1.6022112064866392 [Eh]
	 Total Energy              =    -383.3037633112231219 [Eh]

	 ================> DF-SCS-MP2 Energies <==================
	-----------------------------------------------------------
	 SCS Same-Spin Scale       =       0.3333333333333333 [-]
	 SCS Opposite-Spin Scale   =       1.2000000000000000 [-]
	 SCS Same-Spin Energy      =      -0.1258990937637100 [Eh]
	 SCS Opposite-Spin Energy  =      -1.4694167102346107 [Eh]
	 SCS Correlation Energy    =      -1.5953158039983206 [Eh]
	 SCS Total Energy          =    -383.2968679087348391 [Eh]
	-----------------------------------------------------------

  Dipole Moment: [D]
     X:     2.7743      Y:     3.5538      Z:     0.0912     Total:     4.5094

*** Psi4 exiting successfully. Buy a developer a beer!
