                               Psi4 1.3.2 release

  ==> Input File <==

--------------------------------------------------------------------------
#psi4
#
memory 32 gb

molecule  {
0 1
  O        1.1855920    -1.3251230    -0.0110750
  O       -3.7874790    -0.1788050    -0.0307850
  C        2.2579520     0.8287430     0.0207180
  C        3.5859950     0.0918750    -0.0061980
  C        1.0665970    -0.1008810     0.0170560
  C       -0.2810060     0.5415760     0.0240110
  C       -1.4085440    -0.1910960     0.0012370
  C       -2.7385206     0.4365876    -0.0070069
  H        2.1768340     1.4746290     0.9052650
  H        2.1584520     1.5067170    -0.8392700
  H        3.6798240    -0.5618240     0.8622080
  H        3.6612870    -0.5322660    -0.8978130
  H        4.4176170     0.8001410    -0.0031560
  H       -0.3336460     1.6309400     0.0414110
  H       -1.3704458    -1.2778936    -0.0165063
  H       -2.7297600     1.5577740     0.0156350
units angstrom
no_reorient  #important for SAPT in psi4, default
symmetry c1  #important for SAPT in psi4, default
}

set PROPERTIES_ORIGIN ["COM"]
properties('MP2/aug-cc-pvtz', properties = ['dipole'])
--------------------------------------------------------------------------

    Molecular point group: c1
  Charge       = 0
  Multiplicity = 1
  Basis Set: AUG-CC-PVTZ
    Blend: AUG-CC-PVTZ
  Basis Set: (AUG-CC-PVTZ AUX)
    Blend: AUG-CC-PVTZ-JKFIT

    Orbital Energies [Eh]
    ---------------------

    Doubly Occupied:

       1A    -20.574405     2A    -20.563879     3A    -11.353838
       4A    -11.350738     5A    -11.282298     6A    -11.277611
       7A    -11.256929     8A    -11.228182     9A     -1.402478
      10A     -1.394312    11A     -1.114480    12A     -1.070191
      13A     -0.954647    14A     -0.878692    15A     -0.798865
      16A     -0.756567    17A     -0.696265    18A     -0.686466
      19A     -0.646008    20A     -0.638760    21A     -0.631161
      22A     -0.573590    23A     -0.557271    24A     -0.543871
      25A     -0.538017    26A     -0.528749    27A     -0.502025
      28A     -0.450030    29A     -0.435404    30A     -0.405206

  @DF-RHF Final Energy:  -381.70388060520429

   => Energetics <=

    Nuclear Repulsion Energy =            331.2461564919345278
    One-Electron Energy =               -1175.7182073122471593
    Two-Electron Energy =                 462.7681702151083982
    Total Energy =                       -381.7038806052042901
  Basis Set: (AUG-CC-PVTZ AUX)
    Blend: AUG-CC-PVTZ-RI
    Molecular point group: c1

    Geometry (in Angstrom), charge = 0, multiplicity = 1:

       Center              X                  Y                   Z               Mass
    ------------   -----------------  -----------------  -----------------  -----------------
         O            1.186269149707    -1.323879420050    -0.011044318875    15.994914619570
         O           -3.786801850293    -0.177561420050    -0.030754318875    15.994914619570
         C            2.258629149707     0.829986579950     0.020748681125    12.000000000000
         C            3.586672149707     0.093118579950    -0.006167318875    12.000000000000
         C            1.067274149707    -0.099637420050     0.017086681125    12.000000000000
         C           -0.280328850293     0.542819579950     0.024041681125    12.000000000000
         C           -1.407866850293    -0.189852420050     0.001267681125    12.000000000000
         C           -2.737843450293     0.437831179950    -0.006976218875    12.000000000000
         H            2.177511149707     1.475872579950     0.905295681125     1.007825032230
         H            2.159129149707     1.507960579950    -0.839239318875     1.007825032230
         H            3.680501149707    -0.560580420050     0.862238681125     1.007825032230
         H            3.661964149707    -0.531022420050    -0.897782318875     1.007825032230
         H            4.418294149707     0.801384579950    -0.003125318875     1.007825032230
         H           -0.332968850293     1.632183579950     0.041441681125     1.007825032230
         H           -1.369768650293    -1.276650020050    -0.016475618875     1.007825032230
         H           -2.729082850293     1.559017579950     0.015665681125     1.007825032230

  Basis Set: AUG-CC-PVTZ
    Blend: AUG-CC-PVTZ
  Basis Set: (AUG-CC-PVTZ AUX)
    Blend: AUG-CC-PVTZ-JKFIT
	 Reference Energy          =    -381.7038806052042901 [Eh]
	 Singles Energy            =      -0.0000000000000000 [Eh]
	 Same-Spin Energy          =      -0.3771502112647759 [Eh]
	 Opposite-Spin Energy      =      -1.2231762256059826 [Eh]
	 Correlation Energy        =      -1.6003264368707586 [Eh]
	 Total Energy              =    -383.3042070420750633 [Eh]

	 ================> DF-SCS-MP2 Energies <==================
	-----------------------------------------------------------
	 SCS Same-Spin Scale       =       0.3333333333333333 [-]
	 SCS Opposite-Spin Scale   =       1.2000000000000000 [-]
	 SCS Same-Spin Energy      =      -0.1257167370882586 [Eh]
	 SCS Opposite-Spin Energy  =      -1.4678114707271790 [Eh]
	 SCS Correlation Energy    =      -1.5935282078154376 [Eh]
	 SCS Total Energy          =    -383.2974088130197288 [Eh]
	-----------------------------------------------------------

  Dipole Moment: [D]
     X:     2.7233      Y:     3.4700      Z:     0.0889     Total:     4.4120

*** Psi4 exiting successfully. Buy a developer a beer!
