                               Psi4 1.3.2 release

  ==> Input File <==

--------------------------------------------------------------------------
#psi4
#
memory 32 gb

molecule  {
0 1
  O        1.1855920    -1.3251230    -0.0110750
  O       -3.7874790    -0.1788050    -0.0307850
  C        2.2579520     0.8287430     0.0207180
  C        3.5859950     0.0918750    -0.0061980
  C        1.1454352    -0.0393629     0.0172983
  C       -0.2810060     0.5415760     0.0240110
  C       -1.4085440    -0.1910960     0.0012370
  C       -2.7329950     0.4481680    -0.0067340
  H        2.1768340     1.4746290     0.9052650
  H        2.1584520     1.5067170    -0.8392700
  H        3.6798240    -0.5618240     0.8622080
  H        3.6612870    -0.5322660    -0.8978130
  H        4.4176170     0.8001410    -0.0031560
  H       -0.3336460     1.6309400     0.0414110
  H       -1.3609630    -1.2775220    -0.0163660
  H       -2.7297600     1.5577740     0.0156350
units angstrom
no_reorient  #important for SAPT in psi4, default
symmetry c1  #important for SAPT in psi4, default
}

set PROPERTIES_ORIGIN ["COM"]
properties('MP2/aug-cc-pvtz', properties = ['dipole'])
--------------------------------------------------------------------------

    Molecular point group: c1
  Charge       = 0
  Multiplicity = 1
  Basis Set: AUG-CC-PVTZ
    Blend: AUG-CC-PVTZ
  Basis Set: (AUG-CC-PVTZ AUX)
    Blend: AUG-CC-PVTZ-JKFIT

    Orbital Energies [Eh]
    ---------------------

    Doubly Occupied:

       1A    -20.570588     2A    -20.561517     3A    -11.361399
       4A    -11.348912     5A    -11.285084     6A    -11.274069
       7A    -11.261102     8A    -11.234027     9A     -1.392156
      10A     -1.361034    11A     -1.114119    12A     -1.089485
      13A     -0.956541    14A     -0.885826    15A     -0.798990
      16A     -0.754553    17A     -0.695336    18A     -0.683859
      19A     -0.658937    20A     -0.635259    21A     -0.623893
      22A     -0.566746    23A     -0.549716    24A     -0.546737
      25A     -0.534653    26A     -0.531186    27A     -0.491891
      28A     -0.449982    29A     -0.439891    30A     -0.399562

  @DF-RHF Final Energy:  -381.68358644287269

   => Energetics <=

    Nuclear Repulsion Energy =            330.7224990696810778
    One-Electron Energy =               -1174.6980698075183227
    Two-Electron Energy =                 462.2919842949644931
    Total Energy =                       -381.6835864428726950
  Basis Set: (AUG-CC-PVTZ AUX)
    Blend: AUG-CC-PVTZ-RI
    Molecular point group: c1

    Geometry (in Angstrom), charge = 0, multiplicity = 1:

       Center              X                  Y                   Z               Mass
    ------------   -----------------  -----------------  -----------------  -----------------
         O            1.177149110027    -1.331711079852    -0.011100754937    15.994914619570
         O           -3.795921889973    -0.185393079852    -0.030810754937    15.994914619570
         C            2.249509110027     0.822154920148     0.020692245063    12.000000000000
         C            3.577552110027     0.085286920148    -0.006223754937    12.000000000000
         C            1.136992310027    -0.045950979852     0.017272545063    12.000000000000
         C           -0.289448889973     0.534987920148     0.023985245063    12.000000000000
         C           -1.416986889973    -0.197684079852     0.001211245063    12.000000000000
         C           -2.741437889973     0.441579920148    -0.006759754937    12.000000000000
         H            2.168391110027     1.468040920148     0.905239245063     1.007825032230
         H            2.150009110027     1.500128920148    -0.839295754937     1.007825032230
         H            3.671381110027    -0.568412079852     0.862182245063     1.007825032230
         H            3.652844110027    -0.538854079852    -0.897838754937     1.007825032230
         H            4.409174110027     0.793552920148    -0.003181754937     1.007825032230
         H           -0.342088889973     1.624351920148     0.041385245063     1.007825032230
         H           -1.369405889973    -1.284110079852    -0.016391754937     1.007825032230
         H           -2.738202889973     1.551185920148     0.015609245063     1.007825032230

  Basis Set: AUG-CC-PVTZ
    Blend: AUG-CC-PVTZ
  Basis Set: (AUG-CC-PVTZ AUX)
    Blend: AUG-CC-PVTZ-JKFIT
	 Reference Energy          =    -381.6835864428726950 [Eh]
	 Singles Energy            =      -0.0000000000000000 [Eh]
	 Same-Spin Energy          =      -0.3796443361084845 [Eh]
	 Opposite-Spin Energy      =      -1.2281942404864783 [Eh]
	 Correlation Energy        =      -1.6078385765949628 [Eh]
	 Total Energy              =    -383.2914250194676811 [Eh]

	 ================> DF-SCS-MP2 Energies <==================
	-----------------------------------------------------------
	 SCS Same-Spin Scale       =       0.3333333333333333 [-]
	 SCS Opposite-Spin Scale   =       1.2000000000000000 [-]
	 SCS Same-Spin Energy      =      -0.1265481120361615 [Eh]
	 SCS Opposite-Spin Energy  =      -1.4738330885837738 [Eh]
	 SCS Correlation Energy    =      -1.6003812006199354 [Eh]
	 SCS Total Energy          =    -383.2839676434926446 [Eh]
	-----------------------------------------------------------

  Dipole Moment: [D]
     X:     3.3107      Y:     3.7596      Z:     0.0923     Total:     5.0104

*** Psi4 exiting successfully. Buy a developer a beer!
