                               Psi4 1.3.2 release

  ==> Input File <==

--------------------------------------------------------------------------
#psi4
#
memory 32 gb

molecule  {
0 1
  O        1.1855920    -1.3251230    -0.0110750
  O       -3.7874790    -0.1788050    -0.0307850
  C        2.2579520     0.8287430     0.0207180
  C        3.5859950     0.0918750    -0.0061980
  C        1.0665970    -0.1008810     0.0170560
  C       -0.2810060     0.5415760     0.0240110
  C       -1.4198960    -0.2141082     0.0005956
  C       -2.7329950     0.4481680    -0.0067340
  H        2.1768340     1.4746290     0.9052650
  H        2.1584520     1.5067170    -0.8392700
  H        3.6798240    -0.5618240     0.8622080
  H        3.6612870    -0.5322660    -0.8978130
  H        4.4176170     0.8001410    -0.0031560
  H       -0.3336460     1.6309400     0.0414110
  H       -1.3609630    -1.2775220    -0.0163660
  H       -2.7491273     1.5576676     0.0153283
units angstrom
no_reorient  #important for SAPT in psi4, default
symmetry c1  #important for SAPT in psi4, default
}

set PROPERTIES_ORIGIN ["COM"]
properties('MP2/aug-cc-pvtz', properties = ['dipole'])
--------------------------------------------------------------------------

    Molecular point group: c1
  Charge       = 0
  Multiplicity = 1
  Basis Set: AUG-CC-PVTZ
    Blend: AUG-CC-PVTZ
  Basis Set: (AUG-CC-PVTZ AUX)
    Blend: AUG-CC-PVTZ-JKFIT

    Orbital Energies [Eh]
    ---------------------

    Doubly Occupied:

       1A    -20.572484     2A    -20.563688     3A    -11.353563
       4A    -11.350743     5A    -11.285158     6A    -11.280216
       7A    -11.256814     8A    -11.228131     9A     -1.395250
      10A     -1.393844    11A     -1.110773    12A     -1.069651
      13A     -0.954799    14A     -0.877559    15A     -0.804579
      16A     -0.755136    17A     -0.697164    18A     -0.684300
      19A     -0.645895    20A     -0.638121    21A     -0.627845
      22A     -0.579761    23A     -0.553768    24A     -0.543458
      25A     -0.536236    26A     -0.528671    27A     -0.501864
      28A     -0.451451    29A     -0.435523    30A     -0.400049

  @DF-RHF Final Energy:  -381.70130462622154

   => Energetics <=

    Nuclear Repulsion Energy =            330.8906548574710200
    One-Electron Energy =               -1175.0309286219630849
    Two-Electron Energy =                 462.4389691382705792
    Total Energy =                       -381.7013046262215425
  Basis Set: (AUG-CC-PVTZ AUX)
    Blend: AUG-CC-PVTZ-RI
    Molecular point group: c1

    Geometry (in Angstrom), charge = 0, multiplicity = 1:

       Center              X                  Y                   Z               Mass
    ------------   -----------------  -----------------  -----------------  -----------------
         O            1.186982018199    -1.322657542708    -0.011003358567    15.994914619570
         O           -3.786088981801    -0.176339542708    -0.030713358567    15.994914619570
         C            2.259342018199     0.831208457292     0.020789641433    12.000000000000
         C            3.587385018199     0.094340457292    -0.006126358567    12.000000000000
         C            1.067987018199    -0.098415542708     0.017127641433    12.000000000000
         C           -0.279615981801     0.544041457292     0.024082641433    12.000000000000
         C           -1.418505981801    -0.211642742708     0.000667241433    12.000000000000
         C           -2.731604981801     0.450633457292    -0.006662358567    12.000000000000
         H            2.178224018199     1.477094457292     0.905336641433     1.007825032230
         H            2.159842018199     1.509182457292    -0.839198358567     1.007825032230
         H            3.681214018199    -0.559358542708     0.862279641433     1.007825032230
         H            3.662677018199    -0.529800542708    -0.897741358567     1.007825032230
         H            4.419007018199     0.802606457292    -0.003084358567     1.007825032230
         H           -0.332255981801     1.633405457292     0.041482641433     1.007825032230
         H           -1.359572981801    -1.275056542708    -0.016294358567     1.007825032230
         H           -2.747737281801     1.560133057292     0.015399941433     1.007825032230

  Basis Set: AUG-CC-PVTZ
    Blend: AUG-CC-PVTZ
  Basis Set: (AUG-CC-PVTZ AUX)
    Blend: AUG-CC-PVTZ-JKFIT
	 Reference Energy          =    -381.7013046262215425 [Eh]
	 Singles Energy            =      -0.0000000000000000 [Eh]
	 Same-Spin Energy          =      -0.3775448984216804 [Eh]
	 Opposite-Spin Energy      =      -1.2242158825375657 [Eh]
	 Correlation Energy        =      -1.6017607809592462 [Eh]
	 Total Energy              =    -383.3030654071807817 [Eh]

	 ================> DF-SCS-MP2 Energies <==================
	-----------------------------------------------------------
	 SCS Same-Spin Scale       =       0.3333333333333333 [-]
	 SCS Opposite-Spin Scale   =       1.2000000000000000 [-]
	 SCS Same-Spin Energy      =      -0.1258482994738934 [Eh]
	 SCS Opposite-Spin Energy  =      -1.4690590590450789 [Eh]
	 SCS Correlation Energy    =      -1.5949073585189724 [Eh]
	 SCS Total Energy          =    -383.2962119847405233 [Eh]
	-----------------------------------------------------------

  Dipole Moment: [D]
     X:     2.7440      Y:     3.5203      Z:     0.0903     Total:     4.4643

*** Psi4 exiting successfully. Buy a developer a beer!
