                               Psi4 1.3.2 release

  ==> Input File <==

--------------------------------------------------------------------------
#psi4
#
memory 32 gb

molecule  {
0 1
  O        1.1855920    -1.3251230    -0.0110750
  O       -3.7874790    -0.1788050    -0.0307850
  C        2.2579520     0.8287430     0.0207180
  C        3.5859950     0.0918750    -0.0061980
  C        1.0983729    -0.0294934     0.0188400
  C       -0.2810060     0.5415760     0.0240110
  C       -1.4453604    -0.1310903     0.0023827
  C       -2.7329950     0.4481680    -0.0067340
  H        2.1768340     1.4746290     0.9052650
  H        2.1584520     1.5067170    -0.8392700
  H        3.6798240    -0.5618240     0.8622080
  H        3.6612870    -0.5322660    -0.8978130
  H        4.4176170     0.8001410    -0.0031560
  H       -0.3336460     1.6309400     0.0414110
  H       -1.3609630    -1.2775220    -0.0163660
  H       -2.7297600     1.5577740     0.0156350
units angstrom
no_reorient  #important for SAPT in psi4, default
symmetry c1  #important for SAPT in psi4, default
}

set PROPERTIES_ORIGIN ["COM"]
properties('MP2/aug-cc-pvtz', properties = ['dipole'])
--------------------------------------------------------------------------

    Molecular point group: c1
  Charge       = 0
  Multiplicity = 1
  Basis Set: AUG-CC-PVTZ
    Blend: AUG-CC-PVTZ
  Basis Set: (AUG-CC-PVTZ AUX)
    Blend: AUG-CC-PVTZ-JKFIT

    Orbital Energies [Eh]
    ---------------------

    Doubly Occupied:

       1A    -20.573740     2A    -20.562853     3A    -11.363236
       4A    -11.346921     5A    -11.289070     6A    -11.278941
       7A    -11.262401     8A    -11.233286     9A     -1.395460
      10A     -1.355477    11A     -1.120589    12A     -1.087395
      13A     -0.968575    14A     -0.894939    15A     -0.796497
      16A     -0.758241    17A     -0.695246    18A     -0.690706
      19A     -0.655056    20A     -0.641311    21A     -0.616926
      22A     -0.555718    23A     -0.549413    24A     -0.548538
      25A     -0.533861    26A     -0.528514    27A     -0.491098
      28A     -0.452730    29A     -0.447215    30A     -0.401374

  @DF-RHF Final Energy:  -381.67781923495852

   => Energetics <=

    Nuclear Repulsion Energy =            330.9793208486208869
    One-Electron Energy =               -1175.1236228082404978
    Two-Electron Energy =                 462.4664827246610912
    Total Energy =                       -381.6778192349585197
  Basis Set: (AUG-CC-PVTZ AUX)
    Blend: AUG-CC-PVTZ-RI
    Molecular point group: c1

    Geometry (in Angstrom), charge = 0, multiplicity = 1:

       Center              X                  Y                   Z               Mass
    ------------   -----------------  -----------------  -----------------  -----------------
         O            1.186131908566    -1.339194205419    -0.011388555926    15.994914619570
         O           -3.786939091434    -0.192876205419    -0.031098555926    15.994914619570
         C            2.258491908566     0.814671794581     0.020404444074    12.000000000000
         C            3.586534908566     0.077803794581    -0.006511555926    12.000000000000
         C            1.098912808566    -0.043564605419     0.018526444074    12.000000000000
         C           -0.280466091434     0.527504794581     0.023697444074    12.000000000000
         C           -1.444820491434    -0.145161505419     0.002069144074    12.000000000000
         C           -2.732455091434     0.434096794581    -0.007047555926    12.000000000000
         H            2.177373908566     1.460557794581     0.904951444074     1.007825032230
         H            2.158991908566     1.492645794581    -0.839583555926     1.007825032230
         H            3.680363908566    -0.575895205419     0.861894444074     1.007825032230
         H            3.661826908566    -0.546337205419    -0.898126555926     1.007825032230
         H            4.418156908566     0.786069794581    -0.003469555926     1.007825032230
         H           -0.333106091434     1.616868794581     0.041097444074     1.007825032230
         H           -1.360423091434    -1.291593205419    -0.016679555926     1.007825032230
         H           -2.729220091434     1.543702794581     0.015321444074     1.007825032230

  Basis Set: AUG-CC-PVTZ
    Blend: AUG-CC-PVTZ
  Basis Set: (AUG-CC-PVTZ AUX)
    Blend: AUG-CC-PVTZ-JKFIT
	 Reference Energy          =    -381.6778192349585197 [Eh]
	 Singles Energy            =      -0.0000000000000000 [Eh]
	 Same-Spin Energy          =      -0.3809215069208599 [Eh]
	 Opposite-Spin Energy      =      -1.2304572243175436 [Eh]
	 Correlation Energy        =      -1.6113787312384034 [Eh]
	 Total Energy              =    -383.2891979661969231 [Eh]

	 ================> DF-SCS-MP2 Energies <==================
	-----------------------------------------------------------
	 SCS Same-Spin Scale       =       0.3333333333333333 [-]
	 SCS Opposite-Spin Scale   =       1.2000000000000000 [-]
	 SCS Same-Spin Energy      =      -0.1269738356402866 [Eh]
	 SCS Opposite-Spin Energy  =      -1.4765486691810523 [Eh]
	 SCS Correlation Energy    =      -1.6035225048213388 [Eh]
	 SCS Total Energy          =    -383.2813417397798617 [Eh]
	-----------------------------------------------------------

  Dipole Moment: [D]
     X:     3.1838      Y:     3.7348      Z:     0.0932     Total:     4.9086

*** Psi4 exiting successfully. Buy a developer a beer!
