                               Psi4 1.3.2 release

  ==> Input File <==

--------------------------------------------------------------------------
#psi4
#
memory 32 gb

molecule  {
0 1
  O        1.1855920    -1.3251230    -0.0110750
  O       -3.7874790    -0.1788050    -0.0307850
  C        2.2579520     0.8287430     0.0207180
  C        3.5859950     0.0918750    -0.0061980
  C        1.0665970    -0.1008810     0.0170560
  C       -0.2810060     0.5415760     0.0240110
  C       -1.4453565    -0.1310804     0.0018728
  C       -2.7329950     0.4481680    -0.0067340
  H        2.1768340     1.4746290     0.9052650
  H        2.1584520     1.5067170    -0.8392700
  H        3.6798240    -0.5618240     0.8622080
  H        3.6612870    -0.5322660    -0.8978130
  H        4.4176170     0.8001410    -0.0031560
  H       -0.3905914     1.6267013     0.0407992
  H       -1.3609630    -1.2775220    -0.0163660
  H       -2.7297600     1.5577740     0.0156350
units angstrom
no_reorient  #important for SAPT in psi4, default
symmetry c1  #important for SAPT in psi4, default
}

set PROPERTIES_ORIGIN ["COM"]
properties('MP2/aug-cc-pvtz', properties = ['dipole'])
--------------------------------------------------------------------------

    Molecular point group: c1
  Charge       = 0
  Multiplicity = 1
  Basis Set: AUG-CC-PVTZ
    Blend: AUG-CC-PVTZ
  Basis Set: (AUG-CC-PVTZ AUX)
    Blend: AUG-CC-PVTZ-JKFIT

    Orbital Energies [Eh]
    ---------------------

    Doubly Occupied:

       1A    -20.573584     2A    -20.568486     3A    -11.358866
       4A    -11.346660     5A    -11.285884     6A    -11.276849
       7A    -11.259065     8A    -11.229717     9A     -1.398159
      10A     -1.395205    11A     -1.119940    12A     -1.073129
      13A     -0.963059    14A     -0.886235    15A     -0.793828
      16A     -0.761568    17A     -0.698310    18A     -0.687920
      19A     -0.647884    20A     -0.642634    21A     -0.629712
      22A     -0.558207    23A     -0.552540    24A     -0.543674
      25A     -0.538476    26A     -0.530526    27A     -0.503671
      28A     -0.453216    29A     -0.441468    30A     -0.404934

  @DF-RHF Final Energy:  -381.69444451940541

   => Energetics <=

    Nuclear Repulsion Energy =            331.3979416522918200
    One-Electron Energy =               -1175.9379578357197715
    Two-Electron Energy =                 462.8455716640225432
    Total Energy =                       -381.6944445194054083
  Basis Set: (AUG-CC-PVTZ AUX)
    Blend: AUG-CC-PVTZ-RI
    Molecular point group: c1

    Geometry (in Angstrom), charge = 0, multiplicity = 1:

       Center              X                  Y                   Z               Mass
    ------------   -----------------  -----------------  -----------------  -----------------
         O            1.190046638497    -1.331512049201    -0.011137393256    15.994914619570
         O           -3.783024361503    -0.185194049201    -0.030847393256    15.994914619570
         C            2.262406638497     0.822353950799     0.020655606744    12.000000000000
         C            3.590449638497     0.085485950799    -0.006260393256    12.000000000000
         C            1.071051638497    -0.107270049201     0.016993606744    12.000000000000
         C           -0.276551361503     0.535186950799     0.023948606744    12.000000000000
         C           -1.440901861503    -0.137469449201     0.001810406744    12.000000000000
         C           -2.728540361503     0.441778950799    -0.006796393256    12.000000000000
         H            2.181288638497     1.468239950799     0.905202606744     1.007825032230
         H            2.162906638497     1.500327950799    -0.839332393256     1.007825032230
         H            3.684278638497    -0.568213049201     0.862145606744     1.007825032230
         H            3.665741638497    -0.538655049201    -0.897875393256     1.007825032230
         H            4.422071638497     0.793751950799    -0.003218393256     1.007825032230
         H           -0.386136761503     1.620312250799     0.040736806744     1.007825032230
         H           -1.356508361503    -1.283911049201    -0.016428393256     1.007825032230
         H           -2.725305361503     1.551384950799     0.015572606744     1.007825032230

  Basis Set: AUG-CC-PVTZ
    Blend: AUG-CC-PVTZ
  Basis Set: (AUG-CC-PVTZ AUX)
    Blend: AUG-CC-PVTZ-JKFIT
	 Reference Energy          =    -381.6944445194054083 [Eh]
	 Singles Energy            =      -0.0000000000000000 [Eh]
	 Same-Spin Energy          =      -0.3784616802855864 [Eh]
	 Opposite-Spin Energy      =      -1.2254372107953364 [Eh]
	 Correlation Energy        =      -1.6038988910809229 [Eh]
	 Total Energy              =    -383.2983434104863250 [Eh]

	 ================> DF-SCS-MP2 Energies <==================
	-----------------------------------------------------------
	 SCS Same-Spin Scale       =       0.3333333333333333 [-]
	 SCS Opposite-Spin Scale   =       1.2000000000000000 [-]
	 SCS Same-Spin Energy      =      -0.1261538934285288 [Eh]
	 SCS Opposite-Spin Energy  =      -1.4705246529544036 [Eh]
	 SCS Correlation Energy    =      -1.5966785463829325 [Eh]
	 SCS Total Energy          =    -383.2911230657883266 [Eh]
	-----------------------------------------------------------

  Dipole Moment: [D]
     X:     2.9318      Y:     3.4926      Z:     0.0906     Total:     4.5609

*** Psi4 exiting successfully. Buy a developer a beer!
