                               Psi4 1.3.2 release

  ==> Input File <==

--------------------------------------------------------------------------
#psi4
#
memory 32 gb

molecule  {
0 1
  O        1.1855920    -1.3251230    -0.0110750
  O       -3.7874790    -0.1788050    -0.0307850
  C        2.2579520     0.8287430     0.0207180
  C        3.5859950     0.0918750    -0.0061980
  C        1.0665970    -0.1008810     0.0170560
  C       -0.2810060     0.5415760     0.0240110
  C       -1.3247039    -0.1366169     0.0029304
  C       -2.7329950     0.4481680    -0.0067340
  H        2.1768340     1.4746290     0.9052650
  H        2.1584520     1.5067170    -0.8392700
  H        3.6798240    -0.5618240     0.8622080
  H        3.6612870    -0.5322660    -0.8978130
  H        4.4176170     0.8001410    -0.0031560
  H       -0.3336460     1.6309400     0.0414110
  H       -1.3609630    -1.2775220    -0.0163660
  H       -2.7297600     1.5577740     0.0156350
units angstrom
no_reorient  #important for SAPT in psi4, default
symmetry c1  #important for SAPT in psi4, default
}

set PROPERTIES_ORIGIN ["COM"]
properties('MP2/aug-cc-pvtz', properties = ['dipole'])
--------------------------------------------------------------------------

    Molecular point group: c1
  Charge       = 0
  Multiplicity = 1
  Basis Set: AUG-CC-PVTZ
    Blend: AUG-CC-PVTZ
  Basis Set: (AUG-CC-PVTZ AUX)
    Blend: AUG-CC-PVTZ-JKFIT

    Orbital Energies [Eh]
    ---------------------

    Doubly Occupied:

       1A    -20.579136     2A    -20.563164     3A    -11.356632
       4A    -11.352864     5A    -11.270031     6A    -11.264080
       7A    -11.256393     8A    -11.227745     9A     -1.396738
      10A     -1.393786    11A     -1.133779    12A     -1.070968
      13A     -0.947213    14A     -0.879764    15A     -0.794823
      16A     -0.757874    17A     -0.697117    18A     -0.689033
      19A     -0.645865    20A     -0.640979    21A     -0.629334
      22A     -0.557703    23A     -0.556750    24A     -0.544014
      25A     -0.536289    26A     -0.528232    27A     -0.502190
      28A     -0.449623    29A     -0.430660    30A     -0.427190

  @DF-RHF Final Energy:  -381.68991510130553

   => Energetics <=

    Nuclear Repulsion Energy =            332.0808121834737108
    One-Electron Energy =               -1177.3815148115493230
    Two-Electron Energy =                 463.6107875267701388
    Total Energy =                       -381.6899151013055302
  Basis Set: (AUG-CC-PVTZ AUX)
    Blend: AUG-CC-PVTZ-RI
    Molecular point group: c1

    Geometry (in Angstrom), charge = 0, multiplicity = 1:

       Center              X                  Y                   Z               Mass
    ------------   -----------------  -----------------  -----------------  -----------------
         O            1.176613442926    -1.330957254162    -0.011256157190    15.994914619570
         O           -3.796457557074    -0.184639254162    -0.030966157190    15.994914619570
         C            2.248973442926     0.822908745838     0.020536842810    12.000000000000
         C            3.577016442926     0.086040745838    -0.006379157190    12.000000000000
         C            1.057618442926    -0.106715254162     0.016874842810    12.000000000000
         C           -0.289984557074     0.535741745838     0.023829842810    12.000000000000
         C           -1.333682457074    -0.142451154162     0.002749242810    12.000000000000
         C           -2.741973557074     0.442333745838    -0.006915157190    12.000000000000
         H            2.167855442926     1.468794745838     0.905083842810     1.007825032230
         H            2.149473442926     1.500882745838    -0.839451157190     1.007825032230
         H            3.670845442926    -0.567658254162     0.862026842810     1.007825032230
         H            3.652308442926    -0.538100254162    -0.897994157190     1.007825032230
         H            4.408638442926     0.794306745838    -0.003337157190     1.007825032230
         H           -0.342624557074     1.625105745838     0.041229842810     1.007825032230
         H           -1.369941557074    -1.283356254162    -0.016547157190     1.007825032230
         H           -2.738738557074     1.551939745838     0.015453842810     1.007825032230

  Basis Set: AUG-CC-PVTZ
    Blend: AUG-CC-PVTZ
  Basis Set: (AUG-CC-PVTZ AUX)
    Blend: AUG-CC-PVTZ-JKFIT
	 Reference Energy          =    -381.6899151013055302 [Eh]
	 Singles Energy            =      -0.0000000000000000 [Eh]
	 Same-Spin Energy          =      -0.3766721107587239 [Eh]
	 Opposite-Spin Energy      =      -1.2221055039788487 [Eh]
	 Correlation Energy        =      -1.5987776147375725 [Eh]
	 Total Energy              =    -383.2886927160431014 [Eh]

	 ================> DF-SCS-MP2 Energies <==================
	-----------------------------------------------------------
	 SCS Same-Spin Scale       =       0.3333333333333333 [-]
	 SCS Opposite-Spin Scale   =       1.2000000000000000 [-]
	 SCS Same-Spin Energy      =      -0.1255573702529079 [Eh]
	 SCS Opposite-Spin Energy  =      -1.4665266047746184 [Eh]
	 SCS Correlation Energy    =      -1.5920839750275264 [Eh]
	 SCS Total Energy          =    -383.2819990763330793 [Eh]
	-----------------------------------------------------------

  Dipole Moment: [D]
     X:     2.6020      Y:     3.5205      Z:     0.0888     Total:     4.3786

*** Psi4 exiting successfully. Buy a developer a beer!
