                               Psi4 1.3.2 release

  ==> Input File <==

--------------------------------------------------------------------------
#psi4
#
memory 32 gb

molecule  {
0 1
  O        1.1855920    -1.3251230    -0.0110750
  O       -3.7819648    -0.1879830    -0.0309100
  C        2.2579520     0.8287430     0.0207180
  C        3.5859950     0.0918750    -0.0061980
  C        1.0665970    -0.1008810     0.0170560
  C       -0.2810060     0.5415760     0.0240110
  C       -1.4085440    -0.1910960     0.0012370
  C       -2.7329950     0.4481680    -0.0067340
  H        2.1768340     1.4746290     0.9052650
  H        2.1584520     1.5067170    -0.8392700
  H        3.6798240    -0.5618240     0.8622080
  H        3.6612870    -0.5322660    -0.8978130
  H        4.4176170     0.8001410    -0.0031560
  H       -0.3336460     1.6309400     0.0414110
  H       -1.3609630    -1.2775220    -0.0163660
  H       -2.7200757     1.5577014     0.0157385
units angstrom
no_reorient  #important for SAPT in psi4, default
symmetry c1  #important for SAPT in psi4, default
}

set PROPERTIES_ORIGIN ["COM"]
properties('MP2/aug-cc-pvtz', properties = ['dipole'])
--------------------------------------------------------------------------

    Molecular point group: c1
  Charge       = 0
  Multiplicity = 1
  Basis Set: AUG-CC-PVTZ
    Blend: AUG-CC-PVTZ
  Basis Set: (AUG-CC-PVTZ AUX)
    Blend: AUG-CC-PVTZ-JKFIT

    Orbital Energies [Eh]
    ---------------------

    Doubly Occupied:

       1A    -20.574368     2A    -20.563852     3A    -11.353738
       4A    -11.351637     5A    -11.281849     6A    -11.277433
       7A    -11.256898     8A    -11.228167     9A     -1.395790
      10A     -1.394061    11A     -1.114697    12A     -1.070221
      13A     -0.954753    14A     -0.879242    15A     -0.801403
      16A     -0.756160    17A     -0.696291    18A     -0.685891
      19A     -0.645991    20A     -0.637078    21A     -0.630252
      22A     -0.573356    23A     -0.554811    24A     -0.543839
      25A     -0.536539    26A     -0.528732    27A     -0.501960
      28A     -0.451909    29A     -0.435630    30A     -0.404464

  @DF-RHF Final Energy:  -381.70291051384379

   => Energetics <=

    Nuclear Repulsion Energy =            331.2021797179054374
    One-Electron Energy =               -1175.6481569209877307
    Two-Electron Energy =                 462.7430666892385034
    Total Energy =                       -381.7029105138437899
  Basis Set: (AUG-CC-PVTZ AUX)
    Blend: AUG-CC-PVTZ-RI
    Molecular point group: c1

    Geometry (in Angstrom), charge = 0, multiplicity = 1:

       Center              X                  Y                   Z               Mass
    ------------   -----------------  -----------------  -----------------  -----------------
         O            1.184717880875    -1.323812173077    -0.011057894158    15.994914619570
         O           -3.782838919125    -0.186672173077    -0.030892894158    15.994914619570
         C            2.257077880875     0.830053826923     0.020735105842    12.000000000000
         C            3.585120880875     0.093185826923    -0.006180894158    12.000000000000
         C            1.065722880875    -0.099570173077     0.017073105842    12.000000000000
         C           -0.281880119125     0.542886826923     0.024028105842    12.000000000000
         C           -1.409418119125    -0.189785173077     0.001254105842    12.000000000000
         C           -2.733869119125     0.449478826923    -0.006716894158    12.000000000000
         H            2.175959880875     1.475939826923     0.905282105842     1.007825032230
         H            2.157577880875     1.508027826923    -0.839252894158     1.007825032230
         H            3.678949880875    -0.560513173077     0.862225105842     1.007825032230
         H            3.660412880875    -0.530955173077    -0.897795894158     1.007825032230
         H            4.416742880875     0.801451826923    -0.003138894158     1.007825032230
         H           -0.334520119125     1.632250826923     0.041428105842     1.007825032230
         H           -1.361837119125    -1.276211173077    -0.016348894158     1.007825032230
         H           -2.720949819125     1.559012226923     0.015755605842     1.007825032230

  Basis Set: AUG-CC-PVTZ
    Blend: AUG-CC-PVTZ
  Basis Set: (AUG-CC-PVTZ AUX)
    Blend: AUG-CC-PVTZ-JKFIT
	 Reference Energy          =    -381.7029105138437899 [Eh]
	 Singles Energy            =      -0.0000000000000000 [Eh]
	 Same-Spin Energy          =      -0.3774379801011645 [Eh]
	 Opposite-Spin Energy      =      -1.2238457969979075 [Eh]
	 Correlation Energy        =      -1.6012837770990720 [Eh]
	 Total Energy              =    -383.3041942909428599 [Eh]

	 ================> DF-SCS-MP2 Energies <==================
	-----------------------------------------------------------
	 SCS Same-Spin Scale       =       0.3333333333333333 [-]
	 SCS Opposite-Spin Scale   =       1.2000000000000000 [-]
	 SCS Same-Spin Energy      =      -0.1258126600337215 [Eh]
	 SCS Opposite-Spin Energy  =      -1.4686149563974891 [Eh]
	 SCS Correlation Energy    =      -1.5944276164312106 [Eh]
	 SCS Total Energy          =    -383.2973381302750226 [Eh]
	-----------------------------------------------------------

  Dipole Moment: [D]
     X:     2.7296      Y:     3.5294      Z:     0.0902     Total:     4.4627

*** Psi4 exiting successfully. Buy a developer a beer!
