                               Psi4 1.3.2 release

  ==> Input File <==

--------------------------------------------------------------------------
#psi4
#
memory 32 gb

molecule  {
0 1
  O        1.1855920    -1.3251230    -0.0110750
  O       -3.7874790    -0.1788050    -0.0307850
  C        2.2579520     0.8287430     0.0207180
  C        3.5859950     0.0918750    -0.0061980
  C        1.0665970    -0.1008810     0.0170560
  C       -0.2810060     0.5415760     0.0240110
  C       -1.4211634    -0.1713059     0.0014421
  C       -2.7329950     0.4481680    -0.0067340
  H        2.1768340     1.4746290     0.9052650
  H        2.1584520     1.5067170    -0.8392700
  H        3.6798240    -0.5618240     0.8622080
  H        3.6612870    -0.5322660    -0.8978130
  H        4.4176170     0.8001410    -0.0031560
  H       -0.3526516     1.6298584     0.0412123
  H       -1.3609630    -1.2775220    -0.0163660
  H       -2.7297600     1.5577740     0.0156350
units angstrom
no_reorient  #important for SAPT in psi4, default
symmetry c1  #important for SAPT in psi4, default
}

set PROPERTIES_ORIGIN ["COM"]
properties('MP2/aug-cc-pvtz', properties = ['dipole'])
--------------------------------------------------------------------------

    Molecular point group: c1
  Charge       = 0
  Multiplicity = 1
  Basis Set: AUG-CC-PVTZ
    Blend: AUG-CC-PVTZ
  Basis Set: (AUG-CC-PVTZ AUX)
    Blend: AUG-CC-PVTZ-JKFIT

    Orbital Energies [Eh]
    ---------------------

    Doubly Occupied:

       1A    -20.573885     2A    -20.565490     3A    -11.355532
       4A    -11.349848     5A    -11.283271     6A    -11.277521
       7A    -11.257675     8A    -11.228727     9A     -1.396148
      10A     -1.394804    11A     -1.116404    12A     -1.071225
      13A     -0.957364    14A     -0.881515    15A     -0.798578
      16A     -0.757971    17A     -0.697197    18A     -0.686579
      19A     -0.646672    20A     -0.638919    21A     -0.629760
      22A     -0.566713    23A     -0.555823    24A     -0.544398
      25A     -0.537139    26A     -0.529378    27A     -0.502580
      28A     -0.452288    29A     -0.437735    30A     -0.404757

  @DF-RHF Final Energy:  -381.70168032813172

   => Energetics <=

    Nuclear Repulsion Energy =            331.2184311039551403
    One-Electron Energy =               -1175.6484295508960258
    Two-Electron Energy =                 462.7283181188091703
    Total Energy =                       -381.7016803281317152
  Basis Set: (AUG-CC-PVTZ AUX)
    Blend: AUG-CC-PVTZ-RI
    Molecular point group: c1

    Geometry (in Angstrom), charge = 0, multiplicity = 1:

       Center              X                  Y                   Z               Mass
    ------------   -----------------  -----------------  -----------------  -----------------
         O            1.187114494307    -1.327232586474    -0.011094983935    15.994914619570
         O           -3.785956505693    -0.180914586474    -0.030804983935    15.994914619570
         C            2.259474494307     0.826633413526     0.020698016065    12.000000000000
         C            3.587517494307     0.089765413526    -0.006217983935    12.000000000000
         C            1.068119494307    -0.102990586474     0.017036016065    12.000000000000
         C           -0.279483505693     0.539466413526     0.023991016065    12.000000000000
         C           -1.419640905693    -0.173415486474     0.001422116065    12.000000000000
         C           -2.731472505693     0.446058413526    -0.006753983935    12.000000000000
         H            2.178356494307     1.472519413526     0.905245016065     1.007825032230
         H            2.159974494307     1.504607413526    -0.839289983935     1.007825032230
         H            3.681346494307    -0.563933586474     0.862188016065     1.007825032230
         H            3.662809494307    -0.534375586474    -0.897832983935     1.007825032230
         H            4.419139494307     0.798031413526    -0.003175983935     1.007825032230
         H           -0.351129105693     1.627748813526     0.041192316065     1.007825032230
         H           -1.359440505693    -1.279631586474    -0.016385983935     1.007825032230
         H           -2.728237505693     1.555664413526     0.015615016065     1.007825032230

  Basis Set: AUG-CC-PVTZ
    Blend: AUG-CC-PVTZ
  Basis Set: (AUG-CC-PVTZ AUX)
    Blend: AUG-CC-PVTZ-JKFIT
	 Reference Energy          =    -381.7016803281317152 [Eh]
	 Singles Energy            =      -0.0000000000000000 [Eh]
	 Same-Spin Energy          =      -0.3777114568361690 [Eh]
	 Opposite-Spin Energy      =      -1.2242538734227595 [Eh]
	 Correlation Energy        =      -1.6019653302589285 [Eh]
	 Total Energy              =    -383.3036456583906215 [Eh]

	 ================> DF-SCS-MP2 Energies <==================
	-----------------------------------------------------------
	 SCS Same-Spin Scale       =       0.3333333333333333 [-]
	 SCS Opposite-Spin Scale   =       1.2000000000000000 [-]
	 SCS Same-Spin Energy      =      -0.1259038189453897 [Eh]
	 SCS Opposite-Spin Energy  =      -1.4691046481073113 [Eh]
	 SCS Correlation Energy    =      -1.5950084670527009 [Eh]
	 SCS Total Energy          =    -383.2966887951844228 [Eh]
	-----------------------------------------------------------

  Dipole Moment: [D]
     X:     2.8085      Y:     3.5062      Z:     0.0903     Total:     4.4933

*** Psi4 exiting successfully. Buy a developer a beer!
