                               Psi4 1.3.2 release

  ==> Input File <==

--------------------------------------------------------------------------
#psi4
#
memory 32 gb

molecule  {
0 1
  O        1.1855920    -1.3251230    -0.0110750
  O       -3.7874790    -0.1788050    -0.0307850
  C        2.2579520     0.8287430     0.0207180
  C        3.5859950     0.0918750    -0.0061980
  C        1.0665970    -0.1008810     0.0170560
  C       -0.2810060     0.5415760     0.0240110
  C       -1.4085440    -0.1910960     0.0012370
  C       -2.7329950     0.4481680    -0.0067340
  H        2.1768340     1.4746290     0.9052650
  H        2.1584520     1.5067170    -0.8392700
  H        3.6798240    -0.5618240     0.8622080
  H        3.6612870    -0.5322660    -0.8978130
  H        4.4176170     0.8001410    -0.0031560
  H       -0.3336460     1.6309400     0.0414110
  H       -1.3609630    -1.2775220    -0.0163660
  H       -2.7294685     1.6577533     0.0176505
units angstrom
no_reorient  #important for SAPT in psi4, default
symmetry c1  #important for SAPT in psi4, default
}

set PROPERTIES_ORIGIN ["COM"]
properties('MP2/aug-cc-pvtz', properties = ['dipole'])
--------------------------------------------------------------------------

    Molecular point group: c1
  Charge       = 0
  Multiplicity = 1
  Basis Set: AUG-CC-PVTZ
    Blend: AUG-CC-PVTZ
  Basis Set: (AUG-CC-PVTZ AUX)
    Blend: AUG-CC-PVTZ-JKFIT

    Orbital Energies [Eh]
    ---------------------

    Doubly Occupied:

       1A    -20.576588     2A    -20.564683     3A    -11.362376
       4A    -11.354425     5A    -11.283084     6A    -11.279626
       7A    -11.257334     8A    -11.228505     9A     -1.397063
      10A     -1.394919    11A     -1.115139    12A     -1.070588
      13A     -0.953922    14A     -0.876727    15A     -0.788796
      16A     -0.756864    17A     -0.694812    18A     -0.681461
      19A     -0.646418    20A     -0.638055    21A     -0.626469
      22A     -0.573967    23A     -0.555977    24A     -0.544167
      25A     -0.537483    26A     -0.529094    27A     -0.502428
      28A     -0.447722    29A     -0.435584    30A     -0.405637

  @DF-RHF Final Energy:  -381.69585074541692

   => Energetics <=

    Nuclear Repulsion Energy =            330.7207496736492658
    One-Electron Energy =               -1174.6733739249714290
    Two-Electron Energy =                 462.2567735059052438
    Total Energy =                       -381.6958507454169194
  Basis Set: (AUG-CC-PVTZ AUX)
    Blend: AUG-CC-PVTZ-RI
    Molecular point group: c1

    Geometry (in Angstrom), charge = 0, multiplicity = 1:

       Center              X                  Y                   Z               Mass
    ------------   -----------------  -----------------  -----------------  -----------------
         O            1.185589485869    -1.326022175456    -0.011092934235    15.994914619570
         O           -3.787481514131    -0.179704175456    -0.030802934235    15.994914619570
         C            2.257949485869     0.827843824544     0.020700065765    12.000000000000
         C            3.585992485869     0.090975824544    -0.006215934235    12.000000000000
         C            1.066594485869    -0.101780175456     0.017038065765    12.000000000000
         C           -0.281008514131     0.540676824544     0.023993065765    12.000000000000
         C           -1.408546514131    -0.191995175456     0.001219065765    12.000000000000
         C           -2.732997514131     0.447268824544    -0.006751934235    12.000000000000
         H            2.176831485869     1.473729824544     0.905247065765     1.007825032230
         H            2.158449485869     1.505817824544    -0.839287934235     1.007825032230
         H            3.679821485869    -0.562723175456     0.862190065765     1.007825032230
         H            3.661284485869    -0.533165175456    -0.897830934235     1.007825032230
         H            4.417614485869     0.799241824544    -0.003173934235     1.007825032230
         H           -0.333648514131     1.630040824544     0.041393065765     1.007825032230
         H           -1.360965514131    -1.278421175456    -0.016383934235     1.007825032230
         H           -2.729471014131     1.656854124544     0.017632565765     1.007825032230

  Basis Set: AUG-CC-PVTZ
    Blend: AUG-CC-PVTZ
  Basis Set: (AUG-CC-PVTZ AUX)
    Blend: AUG-CC-PVTZ-JKFIT
	 Reference Energy          =    -381.6958507454169194 [Eh]
	 Singles Energy            =      -0.0000000000000000 [Eh]
	 Same-Spin Energy          =      -0.3779320327477971 [Eh]
	 Opposite-Spin Energy      =      -1.2249823957906456 [Eh]
	 Correlation Energy        =      -1.6029144285384427 [Eh]
	 Total Energy              =    -383.2987651739553598 [Eh]

	 ================> DF-SCS-MP2 Energies <==================
	-----------------------------------------------------------
	 SCS Same-Spin Scale       =       0.3333333333333333 [-]
	 SCS Opposite-Spin Scale   =       1.2000000000000000 [-]
	 SCS Same-Spin Energy      =      -0.1259773442492657 [Eh]
	 SCS Opposite-Spin Energy  =      -1.4699788749487748 [Eh]
	 SCS Correlation Energy    =      -1.5959562191980405 [Eh]
	 SCS Total Energy          =    -383.2918069646149775 [Eh]
	-----------------------------------------------------------

  Dipole Moment: [D]
     X:     2.7621      Y:     3.3915      Z:     0.0879     Total:     4.3749

*** Psi4 exiting successfully. Buy a developer a beer!
