                               Psi4 1.4a3.dev225

  ==> Input File <==

--------------------------------------------------------------------------
#psi4
#
memory 32 gb

molecule  {
0 1
  O        1.0820120     1.3681640     0.0000000
  O       -3.8882340     0.1997640    -0.0000030
  C        2.1679760    -0.7815440    -0.0000070
  C        3.4943680    -0.0370920     0.0000040
  C        0.9697220     0.1420900     0.0000000
  C       -0.3309615    -0.4852429     0.0000039
  C       -1.5077040     0.2230700     0.0000000
  C       -2.8299410    -0.4231870     0.0000020
  H        2.0818540    -1.4423830    -0.8738950
  H        2.0818510    -1.4424050     0.8738640
  H        3.5776630     0.6025590    -0.8807220
  H        3.5776700     0.6025230     0.8807550
  H        4.3292850    -0.7422630    -0.0000140
  H       -0.4236580    -1.5964830     0.0000100
  H       -1.4638710     1.3098110    -0.0000060
  H       -2.8215620    -1.5330200     0.0000110
units angstrom
no_reorient  #important for SAPT in psi4, default
symmetry c1  #important for SAPT in psi4, default
}

set PROPERTIES_ORIGIN ["COM"]
properties('MP2/aug-cc-pvtz', properties = ['dipole'])
--------------------------------------------------------------------------

    Molecular point group: c1
  Charge       = 0
  Multiplicity = 1
  Basis Set: AUG-CC-PVTZ
    Blend: AUG-CC-PVTZ
  Basis Set: (AUG-CC-PVTZ AUX)
    Blend: AUG-CC-PVTZ-JKFIT

    Orbital Energies [Eh]
    ---------------------

    Doubly Occupied:

       1A    -20.577226     2A    -20.562463     3A    -11.354554
       4A    -11.350139     5A    -11.285778     6A    -11.284298
       7A    -11.256208     8A    -11.227878     9A     -1.397340
      10A     -1.394020    11A     -1.112599    12A     -1.068296
      13A     -0.962235    14A     -0.879730    15A     -0.802549
      16A     -0.756816    17A     -0.696990    18A     -0.684196
      19A     -0.645738    20A     -0.638528    21A     -0.631360
      22A     -0.567611    23A     -0.555599    24A     -0.541078
      25A     -0.537370    26A     -0.528165    27A     -0.501794
      28A     -0.453338    29A     -0.439274    30A     -0.398931

  @DF-RHF Final Energy:  -381.69748534918136

   => Energetics <=

    Nuclear Repulsion Energy =            331.1525145299470410
    One-Electron Energy =               -1175.5157969266406326
    Two-Electron Energy =                 462.6657970475122852
    Total Energy =                       -381.6974853491813633
  Basis Set: (AUG-CC-PVTZ AUX)
    Blend: AUG-CC-PVTZ-RI
    Molecular point group: c1

    Geometry (in Angstrom), charge = 0, multiplicity = 1:

       Center              X                  Y                   Z               Mass
    ------------   -----------------  -----------------  -----------------  -----------------
         O            1.173923755031     1.328350926998     0.000000090683    15.994914619570
         O           -3.796322244969     0.159950926998    -0.000002909317    15.994914619570
         C            2.259887755031    -0.821357073002    -0.000006909317    12.000000000000
         C            3.586279755031    -0.076905073002     0.000004090683    12.000000000000
         C            1.061633755031     0.102276926998     0.000000090683    12.000000000000
         C           -0.239049744969    -0.525055973002     0.000003990683    12.000000000000
         C           -1.415792244969     0.183256926998     0.000000090683    12.000000000000
         C           -2.738029244969    -0.463000073002     0.000002090683    12.000000000000
         H            2.173765755031    -1.482196073002    -0.873894909317     1.007825032230
         H            2.173762755031    -1.482218073002     0.873864090683     1.007825032230
         H            3.669574755031     0.562745926998    -0.880721909317     1.007825032230
         H            3.669581755031     0.562709926998     0.880755090683     1.007825032230
         H            4.421196755031    -0.782076073002    -0.000013909317     1.007825032230
         H           -0.331746244969    -1.636296073002     0.000010090683     1.007825032230
         H           -1.371959244969     1.269997926998    -0.000005909317     1.007825032230
         H           -2.729650244969    -1.572833073002     0.000011090683     1.007825032230

  Basis Set: AUG-CC-PVTZ
    Blend: AUG-CC-PVTZ
  Basis Set: (AUG-CC-PVTZ AUX)
    Blend: AUG-CC-PVTZ-JKFIT
	 Reference Energy          =    -381.6974853491813633 [Eh]
	 Singles Energy            =      -0.0000000000000000 [Eh]
	 Same-Spin Energy          =      -0.3782792402480739 [Eh]
	 Opposite-Spin Energy      =      -1.2255504845496548 [Eh]
	 Correlation Energy        =      -1.6038297247977287 [Eh]
	 Total Energy              =    -383.3013150739790831 [Eh]

	 ================> DF-SCS-MP2 Energies <==================
	-----------------------------------------------------------
	 SCS Same-Spin Scale       =       0.3333333333333333 [-]
	 SCS Opposite-Spin Scale   =       1.2000000000000000 [-]
	 SCS Same-Spin Energy      =      -0.1260930800826913 [Eh]
	 SCS Opposite-Spin Energy  =      -1.4706605814595857 [Eh]
	 SCS Correlation Energy    =      -1.5967536615422770 [Eh]
	 SCS Total Energy          =    -383.2942390107236292 [Eh]
	-----------------------------------------------------------

  Dipole Moment: [D]
     X:     2.6429      Y:    -3.5030      Z:     0.0000     Total:     4.3881

*** Psi4 exiting successfully. Buy a developer a beer!
