                               Psi4 1.3.2 release

  ==> Input File <==

--------------------------------------------------------------------------
#psi4
#
memory 32 gb

molecule  {
0 1
  O        1.1855920    -1.3251230    -0.0110750
  O       -3.7874790    -0.1788050    -0.0307850
  C        2.2579520     0.8287430     0.0207180
  C        3.5859950     0.0918750    -0.0061980
  C        1.0665970    -0.1008810     0.0170560
  C       -0.2810060     0.5415760     0.0240110
  C       -1.4334355    -0.1512987     0.0016540
  C       -2.7329950     0.4481680    -0.0067340
  H        2.1768340     1.4746290     0.9052650
  H        2.1584520     1.5067170    -0.8392700
  H        3.6798240    -0.5618240     0.8622080
  H        3.6612870    -0.5322660    -0.8978130
  H        4.4176170     0.8001410    -0.0031560
  H       -0.3716353     1.6284454     0.0410083
  H       -1.3609630    -1.2775220    -0.0163660
  H       -2.7297600     1.5577740     0.0156350
units angstrom
no_reorient  #important for SAPT in psi4, default
symmetry c1  #important for SAPT in psi4, default
}

set PROPERTIES_ORIGIN ["COM"]
properties('MP2/aug-cc-pvtz', properties = ['dipole'])
--------------------------------------------------------------------------

    Molecular point group: c1
  Charge       = 0
  Multiplicity = 1
  Basis Set: AUG-CC-PVTZ
    Blend: AUG-CC-PVTZ
  Basis Set: (AUG-CC-PVTZ AUX)
    Blend: AUG-CC-PVTZ-JKFIT

    Orbital Energies [Eh]
    ---------------------

    Doubly Occupied:

       1A    -20.573737     2A    -20.566965     3A    -11.357179
       4A    -11.348279     5A    -11.284496     6A    -11.277157
       7A    -11.258355     8A    -11.229211     9A     -1.397054
      10A     -1.395092    11A     -1.118078    12A     -1.072151
      13A     -0.960110    14A     -0.883859    15A     -0.796087
      16A     -0.759734    17A     -0.697733    18A     -0.687283
      19A     -0.647262    20A     -0.640771    21A     -0.629659
      22A     -0.559335    23A     -0.556966    24A     -0.544602
      25A     -0.537790    26A     -0.529941    27A     -0.503110
      28A     -0.452823    29A     -0.439621    30A     -0.404827

  @DF-RHF Final Energy:  -381.69882777777650

   => Energetics <=

    Nuclear Repulsion Energy =            331.3052335010391403
    One-Electron Energy =               -1175.7895934873290571
    Two-Electron Energy =                 462.7855322085134731
    Total Energy =                       -381.6988277777765006
  Basis Set: (AUG-CC-PVTZ AUX)
    Blend: AUG-CC-PVTZ-RI
    Molecular point group: c1

    Geometry (in Angstrom), charge = 0, multiplicity = 1:

       Center              X                  Y                   Z               Mass
    ------------   -----------------  -----------------  -----------------  -----------------
         O            1.188599490650    -1.329362503195    -0.011115842061    15.994914619570
         O           -3.784471509350    -0.183044503195    -0.030825842061    15.994914619570
         C            2.260959490650     0.824503496805     0.020677157939    12.000000000000
         C            3.589002490650     0.087635496805    -0.006238842061    12.000000000000
         C            1.069604490650    -0.105120503195     0.017015157939    12.000000000000
         C           -0.277998509350     0.537336496805     0.023970157939    12.000000000000
         C           -1.430428009350    -0.155538203195     0.001613157939    12.000000000000
         C           -2.729987509350     0.443928496805    -0.006774842061    12.000000000000
         H            2.179841490650     1.470389496805     0.905224157939     1.007825032230
         H            2.161459490650     1.502477496805    -0.839310842061     1.007825032230
         H            3.682831490650    -0.566063503195     0.862167157939     1.007825032230
         H            3.664294490650    -0.536505503195    -0.897853842061     1.007825032230
         H            4.420624490650     0.795901496805    -0.003196842061     1.007825032230
         H           -0.368627809350     1.624205896805     0.040967457939     1.007825032230
         H           -1.357955509350    -1.281761503195    -0.016406842061     1.007825032230
         H           -2.726752509350     1.553534496805     0.015594157939     1.007825032230

  Basis Set: AUG-CC-PVTZ
    Blend: AUG-CC-PVTZ
  Basis Set: (AUG-CC-PVTZ AUX)
    Blend: AUG-CC-PVTZ-JKFIT
	 Reference Energy          =    -381.6988277777765006 [Eh]
	 Singles Energy            =      -0.0000000000000000 [Eh]
	 Same-Spin Energy          =      -0.3780601941531150 [Eh]
	 Opposite-Spin Energy      =      -1.2247919826858626 [Eh]
	 Correlation Energy        =      -1.6028521768389776 [Eh]
	 Total Energy              =    -383.3016799546154516 [Eh]

	 ================> DF-SCS-MP2 Energies <==================
	-----------------------------------------------------------
	 SCS Same-Spin Scale       =       0.3333333333333333 [-]
	 SCS Opposite-Spin Scale   =       1.2000000000000000 [-]
	 SCS Same-Spin Energy      =      -0.1260200647177050 [Eh]
	 SCS Opposite-Spin Energy  =      -1.4697503792230351 [Eh]
	 SCS Correlation Energy    =      -1.5957704439407401 [Eh]
	 SCS Total Energy          =    -383.2945982217172514 [Eh]
	-----------------------------------------------------------

  Dipole Moment: [D]
     X:     2.8696      Y:     3.4992      Z:     0.0904     Total:     4.5263

*** Psi4 exiting successfully. Buy a developer a beer!
