                               Psi4 1.3.2 release

  ==> Input File <==

--------------------------------------------------------------------------
#psi4
#
memory 32 gb

molecule  {
0 1
  O        1.1855920    -1.3251230    -0.0110750
  O       -3.7819654    -0.1879840    -0.0308534
  C        2.2579520     0.8287430     0.0207180
  C        3.5859950     0.0918750    -0.0061980
  C        1.0665970    -0.1008810     0.0170560
  C       -0.2810060     0.5415760     0.0240110
  C       -1.4141707    -0.2026280     0.0009811
  C       -2.7329950     0.4481680    -0.0067340
  H        2.1768340     1.4746290     0.9052650
  H        2.1584520     1.5067170    -0.8392700
  H        3.6798240    -0.5618240     0.8622080
  H        3.6612870    -0.5322660    -0.8978130
  H        4.4176170     0.8001410    -0.0031560
  H       -0.3336460     1.6309400     0.0414110
  H       -1.3609630    -1.2775220    -0.0163660
  H       -2.7297600     1.5577740     0.0156350
units angstrom
no_reorient  #important for SAPT in psi4, default
symmetry c1  #important for SAPT in psi4, default
}

set PROPERTIES_ORIGIN ["COM"]
properties('MP2/aug-cc-pvtz', properties = ['dipole'])
--------------------------------------------------------------------------

    Molecular point group: c1
  Charge       = 0
  Multiplicity = 1
  Basis Set: AUG-CC-PVTZ
    Blend: AUG-CC-PVTZ
  Basis Set: (AUG-CC-PVTZ AUX)
    Blend: AUG-CC-PVTZ-JKFIT

    Orbital Energies [Eh]
    ---------------------

    Doubly Occupied:

       1A    -20.573594     2A    -20.563658     3A    -11.353549
       4A    -11.351318     5A    -11.283314     6A    -11.278577
       7A    -11.256787     8A    -11.228097     9A     -1.395592
      10A     -1.393904    11A     -1.112589    12A     -1.069874
      13A     -0.954717    14A     -0.878392    15A     -0.803036
      16A     -0.755572    17A     -0.696507    18A     -0.685138
      19A     -0.645878    20A     -0.637203    21A     -0.629440
      22A     -0.576512    23A     -0.554325    24A     -0.543604
      25A     -0.536393    26A     -0.528645    27A     -0.501847
      28A     -0.451853    29A     -0.435488    30A     -0.402114

  @DF-RHF Final Energy:  -381.70236953351582

   => Energetics <=

    Nuclear Repulsion Energy =            331.0780788815478104
    One-Electron Energy =               -1175.4058562694581269
    Two-Electron Energy =                 462.6254078543945525
    Total Energy =                       -381.7023695335158209
  Basis Set: (AUG-CC-PVTZ AUX)
    Blend: AUG-CC-PVTZ-RI
    Molecular point group: c1

    Geometry (in Angstrom), charge = 0, multiplicity = 1:

       Center              X                  Y                   Z               Mass
    ------------   -----------------  -----------------  -----------------  -----------------
         O            1.185407647953    -1.322577690011    -0.011037637589    15.994914619570
         O           -3.782149752047    -0.185438690011    -0.030816037589    15.994914619570
         C            2.257767647953     0.831288309989     0.020755362411    12.000000000000
         C            3.585810647953     0.094420309989    -0.006160637589    12.000000000000
         C            1.066412647953    -0.098335690011     0.017093362411    12.000000000000
         C           -0.281190352047     0.544121309989     0.024048362411    12.000000000000
         C           -1.414355052047    -0.200082690011     0.001018462411    12.000000000000
         C           -2.733179352047     0.450713309989    -0.006696637589    12.000000000000
         H            2.176649647953     1.477174309989     0.905302362411     1.007825032230
         H            2.158267647953     1.509262309989    -0.839232637589     1.007825032230
         H            3.679639647953    -0.559278690011     0.862245362411     1.007825032230
         H            3.661102647953    -0.529720690011    -0.897775637589     1.007825032230
         H            4.417432647953     0.802686309989    -0.003118637589     1.007825032230
         H           -0.333830352047     1.633485309989     0.041448362411     1.007825032230
         H           -1.361147352047    -1.274976690011    -0.016328637589     1.007825032230
         H           -2.729944352047     1.560319309989     0.015672362411     1.007825032230

  Basis Set: AUG-CC-PVTZ
    Blend: AUG-CC-PVTZ
  Basis Set: (AUG-CC-PVTZ AUX)
    Blend: AUG-CC-PVTZ-JKFIT
	 Reference Energy          =    -381.7023695335158209 [Eh]
	 Singles Energy            =      -0.0000000000000000 [Eh]
	 Same-Spin Energy          =      -0.3774935281203381 [Eh]
	 Opposite-Spin Energy      =      -1.2240213277252570 [Eh]
	 Correlation Energy        =      -1.6015148558455952 [Eh]
	 Total Energy              =    -383.3038843893614285 [Eh]

	 ================> DF-SCS-MP2 Energies <==================
	-----------------------------------------------------------
	 SCS Same-Spin Scale       =       0.3333333333333333 [-]
	 SCS Opposite-Spin Scale   =       1.2000000000000000 [-]
	 SCS Same-Spin Energy      =      -0.1258311760401127 [Eh]
	 SCS Opposite-Spin Energy  =      -1.4688255932703083 [Eh]
	 SCS Correlation Energy    =      -1.5946567693104210 [Eh]
	 SCS Total Energy          =    -383.2970263028262252 [Eh]
	-----------------------------------------------------------

  Dipole Moment: [D]
     X:     2.7270      Y:     3.5327      Z:     0.0902     Total:     4.4637

*** Psi4 exiting successfully. Buy a developer a beer!
