                               Psi4 1.3.2 release

  ==> Input File <==

--------------------------------------------------------------------------
#psi4
#
memory 32 gb

molecule  {
0 1
  O        1.1855920    -1.3251230    -0.0110750
  O       -3.8188597    -0.1227530    -0.0303363
  C        2.2579520     0.8287430     0.0207180
  C        3.5859950     0.0918750    -0.0061980
  C        1.0665970    -0.1008810     0.0170560
  C       -0.2810060     0.5415760     0.0240110
  C       -1.3769163    -0.1209126     0.0027592
  C       -2.7329950     0.4481680    -0.0067340
  H        2.1768340     1.4746290     0.9052650
  H        2.1584520     1.5067170    -0.8392700
  H        3.6798240    -0.5618240     0.8622080
  H        3.6612870    -0.5322660    -0.8978130
  H        4.4176170     0.8001410    -0.0031560
  H       -0.3336460     1.6309400     0.0414110
  H       -1.3609630    -1.2775220    -0.0163660
  H       -2.7297600     1.5577740     0.0156350
units angstrom
no_reorient  #important for SAPT in psi4, default
symmetry c1  #important for SAPT in psi4, default
}

set PROPERTIES_ORIGIN ["COM"]
properties('MP2/aug-cc-pvtz', properties = ['dipole'])
--------------------------------------------------------------------------

    Molecular point group: c1
  Charge       = 0
  Multiplicity = 1
  Basis Set: AUG-CC-PVTZ
    Blend: AUG-CC-PVTZ
  Basis Set: (AUG-CC-PVTZ AUX)
    Blend: AUG-CC-PVTZ-JKFIT

    Orbital Energies [Eh]
    ---------------------

    Doubly Occupied:

       1A    -20.576944     2A    -20.566455     3A    -11.356158
       4A    -11.352399     5A    -11.276108     6A    -11.273810
       7A    -11.258406     8A    -11.229219     9A     -1.396823
      10A     -1.395270    11A     -1.129912    12A     -1.072808
      13A     -0.955634    14A     -0.884567    15A     -0.793526
      16A     -0.759696    17A     -0.698282    18A     -0.690074
      19A     -0.647482    20A     -0.642077    21A     -0.629642
      22A     -0.557745    23A     -0.553926    24A     -0.545717
      25A     -0.537434    26A     -0.529899    27A     -0.503442
      28A     -0.449598    29A     -0.436315    30A     -0.420560

  @DF-RHF Final Energy:  -381.69437476691536

   => Energetics <=

    Nuclear Repulsion Energy =            331.5394980677181138
    One-Electron Energy =               -1176.2278925407954375
    Two-Electron Energy =                 462.9940197061619642
    Total Energy =                       -381.6943747669153595
  Basis Set: (AUG-CC-PVTZ AUX)
    Blend: AUG-CC-PVTZ-RI
    Molecular point group: c1

    Geometry (in Angstrom), charge = 0, multiplicity = 1:

       Center              X                  Y                   Z               Mass
    ------------   -----------------  -----------------  -----------------  -----------------
         O            1.186684446494    -1.340640208464    -0.011301872559    15.994914619570
         O           -3.817767253506    -0.138270208464    -0.030563172559    15.994914619570
         C            2.259044446494     0.813225791536     0.020491127441    12.000000000000
         C            3.587087446494     0.076357791536    -0.006424872559    12.000000000000
         C            1.067689446494    -0.116398208464     0.016829127441    12.000000000000
         C           -0.279913553506     0.526058791536     0.023784127441    12.000000000000
         C           -1.375823853506    -0.136429808464     0.002532327441    12.000000000000
         C           -2.731902553506     0.432650791536    -0.006960872559    12.000000000000
         H            2.177926446494     1.459111791536     0.905038127441     1.007825032230
         H            2.159544446494     1.491199791536    -0.839496872559     1.007825032230
         H            3.680916446494    -0.577341208464     0.861981127441     1.007825032230
         H            3.662379446494    -0.547783208464    -0.898039872559     1.007825032230
         H            4.418709446494     0.784623791536    -0.003382872559     1.007825032230
         H           -0.332553553506     1.615422791536     0.041184127441     1.007825032230
         H           -1.359870553506    -1.293039208464    -0.016592872559     1.007825032230
         H           -2.728667553506     1.542256791536     0.015408127441     1.007825032230

  Basis Set: AUG-CC-PVTZ
    Blend: AUG-CC-PVTZ
  Basis Set: (AUG-CC-PVTZ AUX)
    Blend: AUG-CC-PVTZ-JKFIT
	 Reference Energy          =    -381.6943747669153595 [Eh]
	 Singles Energy            =      -0.0000000000000000 [Eh]
	 Same-Spin Energy          =      -0.3772649077698668 [Eh]
	 Opposite-Spin Energy      =      -1.2233537104915451 [Eh]
	 Correlation Energy        =      -1.6006186182614119 [Eh]
	 Total Energy              =    -383.2949933851767810 [Eh]

	 ================> DF-SCS-MP2 Energies <==================
	-----------------------------------------------------------
	 SCS Same-Spin Scale       =       0.3333333333333333 [-]
	 SCS Opposite-Spin Scale   =       1.2000000000000000 [-]
	 SCS Same-Spin Energy      =      -0.1257549692566223 [Eh]
	 SCS Opposite-Spin Energy  =      -1.4680244525898540 [Eh]
	 SCS Correlation Energy    =      -1.5937794218464763 [Eh]
	 SCS Total Energy          =    -383.2881541887618368 [Eh]
	-----------------------------------------------------------

  Dipole Moment: [D]
     X:     2.8679      Y:     3.4042      Z:     0.0891     Total:     4.4521

*** Psi4 exiting successfully. Buy a developer a beer!
