                               Psi4 1.4a3.dev225

  ==> Input File <==

--------------------------------------------------------------------------
#psi4
#
memory 32 gb

molecule  {
0 1
  O        1.0820120     1.3681640     0.0000000
  O       -3.8882340     0.1997640    -0.0000030
  C        2.1679760    -0.7815440    -0.0000070
  C        3.4943680    -0.0370920     0.0000040
  C        0.9697220     0.1420900     0.0000000
  C       -0.3759970    -0.5069640     0.0000040
  C       -1.5077040     0.2230700     0.0000000
  C       -2.8299410    -0.4231870     0.0000020
  H        2.0818540    -1.4423830    -0.8738950
  H        2.0818510    -1.4424050     0.8738640
  H        3.5776630     0.6025590    -0.8807220
  H        3.5776700     0.6025230     0.8807550
  H        4.3292850    -0.7422630    -0.0000140
  H       -0.4236580    -1.5964830     0.0000100
  H       -1.4618559     1.3597704    -0.0000063
  H       -2.8215620    -1.5330200     0.0000110
units angstrom
no_reorient  #important for SAPT in psi4, default
symmetry c1  #important for SAPT in psi4, default
}

set PROPERTIES_ORIGIN ["COM"]
properties('MP2/aug-cc-pvtz', properties = ['dipole'])
--------------------------------------------------------------------------

    Molecular point group: c1
  Charge       = 0
  Multiplicity = 1
  Basis Set: AUG-CC-PVTZ
    Blend: AUG-CC-PVTZ
  Basis Set: (AUG-CC-PVTZ AUX)
    Blend: AUG-CC-PVTZ-JKFIT

    Orbital Energies [Eh]
    ---------------------

    Doubly Occupied:

       1A    -20.574085     2A    -20.563950     3A    -11.354265
       4A    -11.351921     5A    -11.283889     6A    -11.282044
       7A    -11.257456     8A    -11.228702     9A     -1.394883
      10A     -1.393419    11A     -1.113095    12A     -1.069325
      13A     -0.953897    14A     -0.879130    15A     -0.796482
      16A     -0.754498    17A     -0.695552    18A     -0.685447
      19A     -0.645889    20A     -0.635613    21A     -0.628501
      22A     -0.566542    23A     -0.554258    24A     -0.543647
      25A     -0.536186    26A     -0.528488    27A     -0.502186
      28A     -0.451393    29A     -0.435813    30A     -0.404272

  @DF-RHF Final Energy:  -381.70008833118453

   => Energetics <=

    Nuclear Repulsion Energy =            330.6345641350103506
    One-Electron Energy =               -1174.5396566481715581
    Two-Electron Energy =                 462.2050041819766761
    Total Energy =                       -381.7000883311845314
  Basis Set: (AUG-CC-PVTZ AUX)
    Blend: AUG-CC-PVTZ-RI
    Molecular point group: c1

    Geometry (in Angstrom), charge = 0, multiplicity = 1:

       Center              X                  Y                   Z               Mass
    ------------   -----------------  -----------------  -----------------  -----------------
         O            1.178728605173     1.330227752579     0.000000082672    15.994914619570
         O           -3.791517394827     0.161827752579    -0.000002917328    15.994914619570
         C            2.264692605173    -0.819480247421    -0.000006917328    12.000000000000
         C            3.591084605173    -0.075028247421     0.000004082672    12.000000000000
         C            1.066438605173     0.104153752579     0.000000082672    12.000000000000
         C           -0.279280394827    -0.544900247421     0.000004082672    12.000000000000
         C           -1.410987394827     0.185133752579     0.000000082672    12.000000000000
         C           -2.733224394827    -0.461123247421     0.000002082672    12.000000000000
         H            2.178570605173    -1.480319247421    -0.873894917328     1.007825032230
         H            2.178567605173    -1.480341247421     0.873864082672     1.007825032230
         H            3.674379605173     0.564622752579    -0.880721917328     1.007825032230
         H            3.674386605173     0.564586752579     0.880755082672     1.007825032230
         H            4.426001605173    -0.780199247421    -0.000013917328     1.007825032230
         H           -0.326941394827    -1.634419247421     0.000010082672     1.007825032230
         H           -1.365139294827     1.321834152579    -0.000006217328     1.007825032230
         H           -2.724845394827    -1.570956247421     0.000011082672     1.007825032230

  Basis Set: AUG-CC-PVTZ
    Blend: AUG-CC-PVTZ
  Basis Set: (AUG-CC-PVTZ AUX)
    Blend: AUG-CC-PVTZ-JKFIT
	 Reference Energy          =    -381.7000883311845314 [Eh]
	 Singles Energy            =      -0.0000000000000000 [Eh]
	 Same-Spin Energy          =      -0.3776133085192668 [Eh]
	 Opposite-Spin Energy      =      -1.2244380197145524 [Eh]
	 Correlation Energy        =      -1.6020513282338191 [Eh]
	 Total Energy              =    -383.3021396594183443 [Eh]

	 ================> DF-SCS-MP2 Energies <==================
	-----------------------------------------------------------
	 SCS Same-Spin Scale       =       0.3333333333333333 [-]
	 SCS Opposite-Spin Scale   =       1.2000000000000000 [-]
	 SCS Same-Spin Energy      =      -0.1258711028397556 [Eh]
	 SCS Opposite-Spin Energy  =      -1.4693256236574628 [Eh]
	 SCS Correlation Energy    =      -1.5951967264972184 [Eh]
	 SCS Total Energy          =    -383.2952850576817241 [Eh]
	-----------------------------------------------------------

  Dipole Moment: [D]
     X:     2.7690      Y:    -3.4936      Z:     0.0000     Total:     4.4579

*** Psi4 exiting successfully. Buy a developer a beer!
