                               Psi4 1.3.2 release

  ==> Input File <==

--------------------------------------------------------------------------
#psi4
#
memory 32 gb

molecule  {
0 1
  O        1.1855920    -1.3251230    -0.0110750
  O       -3.7874790    -0.1788050    -0.0307850
  C        2.2579520     0.8287430     0.0207180
  C        3.5859950     0.0918750    -0.0061980
  C        1.0665970    -0.1008810     0.0170560
  C       -0.2810060     0.5415760     0.0240110
  C       -1.4085440    -0.1910960     0.0012370
  C       -2.6977385     0.5165975    -0.0050844
  H        2.1768340     1.4746290     0.9052650
  H        2.1584520     1.5067170    -0.8392700
  H        3.6798240    -0.5618240     0.8622080
  H        3.6612870    -0.5322660    -0.8978130
  H        4.4176170     0.8001410    -0.0031560
  H       -0.3336460     1.6309400     0.0414110
  H       -1.3041673    -1.2735565    -0.0154963
  H       -2.7297600     1.5577740     0.0156350
units angstrom
no_reorient  #important for SAPT in psi4, default
symmetry c1  #important for SAPT in psi4, default
}

set PROPERTIES_ORIGIN ["COM"]
properties('MP2/aug-cc-pvtz', properties = ['dipole'])
--------------------------------------------------------------------------

    Molecular point group: c1
  Charge       = 0
  Multiplicity = 1
  Basis Set: AUG-CC-PVTZ
    Blend: AUG-CC-PVTZ
  Basis Set: (AUG-CC-PVTZ AUX)
    Blend: AUG-CC-PVTZ-JKFIT

    Orbital Energies [Eh]
    ---------------------

    Doubly Occupied:

       1A    -20.572413     2A    -20.565505     3A    -11.355678
       4A    -11.354731     5A    -11.282420     6A    -11.280487
       7A    -11.257787     8A    -11.228902     9A     -1.396053
      10A     -1.354467    11A     -1.118020    12A     -1.071550
      13A     -0.956843    14A     -0.884394    15A     -0.815609
      16A     -0.755335    17A     -0.702029    18A     -0.682720
      19A     -0.646933    20A     -0.637713    21A     -0.612186
      22A     -0.575280    23A     -0.548923    24A     -0.544356
      25A     -0.529528    26A     -0.521614    27A     -0.502131
      28A     -0.458185    29A     -0.437213    30A     -0.401326

  @DF-RHF Final Energy:  -381.68606320996952

   => Energetics <=

    Nuclear Repulsion Energy =            330.5504809286483692
    One-Electron Energy =               -1174.3724268646205928
    Two-Electron Energy =                 462.1358827260027624
    Total Energy =                       -381.6860632099695181
  Basis Set: (AUG-CC-PVTZ AUX)
    Blend: AUG-CC-PVTZ-RI
    Molecular point group: c1

    Geometry (in Angstrom), charge = 0, multiplicity = 1:

       Center              X                  Y                   Z               Mass
    ------------   -----------------  -----------------  -----------------  -----------------
         O            1.181305559592    -1.332486907119    -0.011259288808    15.994914619570
         O           -3.791765440408    -0.186168907119    -0.030969288808    15.994914619570
         C            2.253665559592     0.821379092881     0.020533711192    12.000000000000
         C            3.581708559592     0.084511092881    -0.006382288808    12.000000000000
         C            1.062310559592    -0.108244907119     0.016871711192    12.000000000000
         C           -0.285292440408     0.534212092881     0.023826711192    12.000000000000
         C           -1.412830440408    -0.198459907119     0.001052711192    12.000000000000
         C           -2.702024940408     0.509233592881    -0.005268688808    12.000000000000
         H            2.172547559592     1.467265092881     0.905080711192     1.007825032230
         H            2.154165559592     1.499353092881    -0.839454288808     1.007825032230
         H            3.675537559592    -0.569187907119     0.862023711192     1.007825032230
         H            3.657000559592    -0.539629907119    -0.897997288808     1.007825032230
         H            4.413330559592     0.792777092881    -0.003340288808     1.007825032230
         H           -0.337932440408     1.623576092881     0.041226711192     1.007825032230
         H           -1.308453740408    -1.280920407119    -0.015680588808     1.007825032230
         H           -2.734046440408     1.550410092881     0.015450711192     1.007825032230

  Basis Set: AUG-CC-PVTZ
    Blend: AUG-CC-PVTZ
  Basis Set: (AUG-CC-PVTZ AUX)
    Blend: AUG-CC-PVTZ-JKFIT
	 Reference Energy          =    -381.6860632099695181 [Eh]
	 Singles Energy            =      -0.0000000000000000 [Eh]
	 Same-Spin Energy          =      -0.3793565834352056 [Eh]
	 Opposite-Spin Energy      =      -1.2285531359791058 [Eh]
	 Correlation Energy        =      -1.6079097194143115 [Eh]
	 Total Energy              =    -383.2939729293838127 [Eh]

	 ================> DF-SCS-MP2 Energies <==================
	-----------------------------------------------------------
	 SCS Same-Spin Scale       =       0.3333333333333333 [-]
	 SCS Opposite-Spin Scale   =       1.2000000000000000 [-]
	 SCS Same-Spin Energy      =      -0.1264521944784019 [Eh]
	 SCS Opposite-Spin Energy  =      -1.4742637631749269 [Eh]
	 SCS Correlation Energy    =      -1.6007159576533287 [Eh]
	 SCS Total Energy          =    -383.2867791676228535 [Eh]
	-----------------------------------------------------------

  Dipole Moment: [D]
     X:     2.8872      Y:     3.7129      Z:     0.0960     Total:     4.7043

*** Psi4 exiting successfully. Buy a developer a beer!
