                               Psi4 1.4a3.dev225

  ==> Input File <==

--------------------------------------------------------------------------
#psi4
#
memory 32 gb

molecule  {
0 1
  O        1.0820120     1.3681640     0.0000000
  O       -3.8882340     0.1997640    -0.0000030
  C        2.1679760    -0.7815440    -0.0000070
  C        3.4507662    -0.0615640     0.0000036
  C        0.9697220     0.1420900     0.0000000
  C       -0.3759970    -0.5069640     0.0000040
  C       -1.5077040     0.2230700     0.0000000
  C       -2.8299410    -0.4231870     0.0000020
  H        2.0818540    -1.4423830    -0.8738950
  H        2.0818510    -1.4424050     0.8738640
  H        3.5776630     0.6025590    -0.8807220
  H        3.5776700     0.6025230     0.8807550
  H        4.3292850    -0.7422630    -0.0000140
  H       -0.4236580    -1.5964830     0.0000100
  H       -1.4638710     1.3098110    -0.0000060
  H       -2.8215620    -1.5330200     0.0000110
units angstrom
no_reorient  #important for SAPT in psi4, default
symmetry c1  #important for SAPT in psi4, default
}

set PROPERTIES_ORIGIN ["COM"]
properties('MP2/aug-cc-pvtz', properties = ['dipole'])
--------------------------------------------------------------------------

    Molecular point group: c1
  Charge       = 0
  Multiplicity = 1
  Basis Set: AUG-CC-PVTZ
    Blend: AUG-CC-PVTZ
  Basis Set: (AUG-CC-PVTZ AUX)
    Blend: AUG-CC-PVTZ-JKFIT

    Orbital Energies [Eh]
    ---------------------

    Doubly Occupied:

       1A    -20.574213     2A    -20.564665     3A    -11.354602
       4A    -11.351812     5A    -11.282910     6A    -11.278674
       7A    -11.255973     8A    -11.230462     9A     -1.395271
      10A     -1.393969    11A     -1.115032    12A     -1.077897
      13A     -0.954515    14A     -0.875871    15A     -0.801282
      16A     -0.756790    17A     -0.697507    18A     -0.686250
      19A     -0.648363    20A     -0.637347    21A     -0.630858
      22A     -0.573962    23A     -0.554982    24A     -0.553482
      25A     -0.532999    26A     -0.523119    27A     -0.496011
      28A     -0.451792    29A     -0.435984    30A     -0.404484

  @DF-RHF Final Energy:  -381.69952437471721

   => Energetics <=

    Nuclear Repulsion Energy =            331.5482637819333149
    One-Electron Energy =               -1176.3134184176753934
    Two-Electron Energy =                 463.0656302610248645
    Total Energy =                       -381.6995243747172140
  Basis Set: (AUG-CC-PVTZ AUX)
    Blend: AUG-CC-PVTZ-RI
    Molecular point group: c1

    Geometry (in Angstrom), charge = 0, multiplicity = 1:

       Center              X                  Y                   Z               Mass
    ------------   -----------------  -----------------  -----------------  -----------------
         O            1.183416165011     1.333297871946     0.000000122811    15.994914619570
         O           -3.786829834989     0.164897871946    -0.000002877189    15.994914619570
         C            2.269380165011    -0.816410128054    -0.000006877189    12.000000000000
         C            3.552170365011    -0.096430128054     0.000003722811    12.000000000000
         C            1.071126165011     0.107223871946     0.000000122811    12.000000000000
         C           -0.274592834989    -0.541830128054     0.000004122811    12.000000000000
         C           -1.406299834989     0.188203871946     0.000000122811    12.000000000000
         C           -2.728536834989    -0.458053128054     0.000002122811    12.000000000000
         H            2.183258165011    -1.477249128054    -0.873894877189     1.007825032230
         H            2.183255165011    -1.477271128054     0.873864122811     1.007825032230
         H            3.679067165011     0.567692871946    -0.880721877189     1.007825032230
         H            3.679074165011     0.567656871946     0.880755122811     1.007825032230
         H            4.430689165011    -0.777129128054    -0.000013877189     1.007825032230
         H           -0.322253834989    -1.631349128054     0.000010122811     1.007825032230
         H           -1.362466834989     1.274944871946    -0.000005877189     1.007825032230
         H           -2.720157834989    -1.567886128054     0.000011122811     1.007825032230

  Basis Set: AUG-CC-PVTZ
    Blend: AUG-CC-PVTZ
  Basis Set: (AUG-CC-PVTZ AUX)
    Blend: AUG-CC-PVTZ-JKFIT
	 Reference Energy          =    -381.6995243747172140 [Eh]
	 Singles Energy            =      -0.0000000000000000 [Eh]
	 Same-Spin Energy          =      -0.3778610270494713 [Eh]
	 Opposite-Spin Energy      =      -1.2245016000427584 [Eh]
	 Correlation Energy        =      -1.6023626270922298 [Eh]
	 Total Energy              =    -383.3018870018094617 [Eh]

	 ================> DF-SCS-MP2 Energies <==================
	-----------------------------------------------------------
	 SCS Same-Spin Scale       =       0.3333333333333333 [-]
	 SCS Opposite-Spin Scale   =       1.2000000000000000 [-]
	 SCS Same-Spin Energy      =      -0.1259536756831571 [Eh]
	 SCS Opposite-Spin Energy  =      -1.4694019200513100 [Eh]
	 SCS Correlation Energy    =      -1.5953555957344672 [Eh]
	 SCS Total Energy          =    -383.2948799704516887 [Eh]
	-----------------------------------------------------------

  Dipole Moment: [D]
     X:     2.7630      Y:    -3.5018      Z:     0.0000     Total:     4.4605

*** Psi4 exiting successfully. Buy a developer a beer!
