                               Psi4 1.3.2 release

  ==> Input File <==

--------------------------------------------------------------------------
#psi4
#
memory 32 gb

molecule  {
0 1
  O        1.1855920    -1.3251230    -0.0110750
  O       -3.7929129    -0.1695793    -0.0306582
  C        2.2579520     0.8287430     0.0207180
  C        3.5859950     0.0918750    -0.0061980
  C        1.0665970    -0.1008810     0.0170560
  C       -0.2810060     0.5415760     0.0240110
  C       -1.4085440    -0.1910960     0.0012370
  C       -2.7329950     0.4481680    -0.0067340
  H        2.1768340     1.4746290     0.9052650
  H        2.1584520     1.5067170    -0.8392700
  H        3.6798240    -0.5618240     0.8622080
  H        3.6612870    -0.5322660    -0.8978130
  H        4.4176170     0.8001410    -0.0031560
  H       -0.3336460     1.6309400     0.0414110
  H       -1.3609630    -1.2775220    -0.0163660
  H       -2.7394445     1.5577621     0.0155298
units angstrom
no_reorient  #important for SAPT in psi4, default
symmetry c1  #important for SAPT in psi4, default
}

set PROPERTIES_ORIGIN ["COM"]
properties('MP2/aug-cc-pvtz', properties = ['dipole'])
--------------------------------------------------------------------------

    Molecular point group: c1
  Charge       = 0
  Multiplicity = 1
  Basis Set: AUG-CC-PVTZ
    Blend: AUG-CC-PVTZ
  Basis Set: (AUG-CC-PVTZ AUX)
    Blend: AUG-CC-PVTZ-JKFIT

    Orbital Energies [Eh]
    ---------------------

    Doubly Occupied:

       1A    -20.573688     2A    -20.564271     3A    -11.354119
       4A    -11.351078     5A    -11.282579     6A    -11.278429
       7A    -11.257156     8A    -11.228364     9A     -1.395516
      10A     -1.394211    11A     -1.115123    12A     -1.070485
      13A     -0.954913    14A     -0.879187    15A     -0.801115
      16A     -0.756476    17A     -0.697012    18A     -0.685885
      19A     -0.646238    20A     -0.637345    21A     -0.629723
      22A     -0.574027    23A     -0.554643    24A     -0.544036
      25A     -0.536506    26A     -0.528951    27A     -0.502203
      28A     -0.451280    29A     -0.435982    30A     -0.404979

  @DF-RHF Final Energy:  -381.70299850648138

   => Energetics <=

    Nuclear Repulsion Energy =            331.0747878409535474
    One-Electron Energy =               -1175.3845354277759725
    Two-Electron Energy =                 462.6067490803409896
    Total Energy =                       -381.7029985064813786
  Basis Set: (AUG-CC-PVTZ AUX)
    Blend: AUG-CC-PVTZ-RI
    Molecular point group: c1

    Geometry (in Angstrom), charge = 0, multiplicity = 1:

       Center              X                  Y                   Z               Mass
    ------------   -----------------  -----------------  -----------------  -----------------
         O            1.186454873880    -1.326439753635    -0.011091960232    15.994914619570
         O           -3.792050026120    -0.170896053635    -0.030675160232    15.994914619570
         C            2.258814873880     0.827426246365     0.020701039768    12.000000000000
         C            3.586857873880     0.090558246365    -0.006214960232    12.000000000000
         C            1.067459873880    -0.102197753635     0.017039039768    12.000000000000
         C           -0.280143126120     0.540259246365     0.023994039768    12.000000000000
         C           -1.407681126120    -0.192412753635     0.001220039768    12.000000000000
         C           -2.732132126120     0.446851246365    -0.006750960232    12.000000000000
         H            2.177696873880     1.473312246365     0.905248039768     1.007825032230
         H            2.159314873880     1.505400246365    -0.839286960232     1.007825032230
         H            3.680686873880    -0.563140753635     0.862191039768     1.007825032230
         H            3.662149873880    -0.533582753635    -0.897829960232     1.007825032230
         H            4.418479873880     0.798824246365    -0.003172960232     1.007825032230
         H           -0.332783126120     1.629623246365     0.041394039768     1.007825032230
         H           -1.360100126120    -1.278838753635    -0.016382960232     1.007825032230
         H           -2.738581626120     1.556445346365     0.015512839768     1.007825032230

  Basis Set: AUG-CC-PVTZ
    Blend: AUG-CC-PVTZ
  Basis Set: (AUG-CC-PVTZ AUX)
    Blend: AUG-CC-PVTZ-JKFIT
	 Reference Energy          =    -381.7029985064813786 [Eh]
	 Singles Energy            =      -0.0000000000000000 [Eh]
	 Same-Spin Energy          =      -0.3773963858220291 [Eh]
	 Opposite-Spin Energy      =      -1.2238108494774136 [Eh]
	 Correlation Energy        =      -1.6012072352994426 [Eh]
	 Total Energy              =    -383.3042057417808337 [Eh]

	 ================> DF-SCS-MP2 Energies <==================
	-----------------------------------------------------------
	 SCS Same-Spin Scale       =       0.3333333333333333 [-]
	 SCS Opposite-Spin Scale   =       1.2000000000000000 [-]
	 SCS Same-Spin Energy      =      -0.1257987952740097 [Eh]
	 SCS Opposite-Spin Energy  =      -1.4685730193728963 [Eh]
	 SCS Correlation Energy    =      -1.5943718146469059 [Eh]
	 SCS Total Energy          =    -383.2973703211283123 [Eh]
	-----------------------------------------------------------

  Dipole Moment: [D]
     X:     2.7684      Y:     3.4973      Z:     0.0900     Total:     4.4613

*** Psi4 exiting successfully. Buy a developer a beer!
