                               Psi4 1.3.2 release

  ==> Input File <==

--------------------------------------------------------------------------
#psi4
#
memory 32 gb

molecule  {
0 1
  O        1.1642043    -1.3270194    -0.0108207
  O       -3.7874790    -0.1788050    -0.0307850
  C        2.2415503     0.8493857     0.0213911
  C        3.5859950     0.0918750    -0.0061980
  C        1.0665970    -0.1008810     0.0170560
  C       -0.2810060     0.5415760     0.0240110
  C       -1.4085440    -0.1910960     0.0012370
  C       -2.7329950     0.4481680    -0.0067340
  H        2.1768340     1.4746290     0.9052650
  H        2.1584520     1.5067170    -0.8392700
  H        3.6798240    -0.5618240     0.8622080
  H        3.6612870    -0.5322660    -0.8978130
  H        4.4176170     0.8001410    -0.0031560
  H       -0.3336460     1.6309400     0.0414110
  H       -1.3609630    -1.2775220    -0.0163660
  H       -2.7297600     1.5577740     0.0156350
units angstrom
no_reorient  #important for SAPT in psi4, default
symmetry c1  #important for SAPT in psi4, default
}

set PROPERTIES_ORIGIN ["COM"]
properties('MP2/aug-cc-pvtz', properties = ['dipole'])
--------------------------------------------------------------------------

    Molecular point group: c1
  Charge       = 0
  Multiplicity = 1
  Basis Set: AUG-CC-PVTZ
    Blend: AUG-CC-PVTZ
  Basis Set: (AUG-CC-PVTZ AUX)
    Blend: AUG-CC-PVTZ-JKFIT

    Orbital Energies [Eh]
    ---------------------

    Doubly Occupied:

       1A    -20.573234     2A    -20.565039     3A    -11.354364
       4A    -11.350584     5A    -11.280528     6A    -11.276687
       7A    -11.256780     8A    -11.229980     9A     -1.395430
      10A     -1.394030    11A     -1.114087    12A     -1.068763
      13A     -0.953496    14A     -0.879672    15A     -0.801024
      16A     -0.757262    17A     -0.696450    18A     -0.684894
      19A     -0.649167    20A     -0.636913    21A     -0.629711
      22A     -0.572709    23A     -0.554354    24A     -0.540530
      25A     -0.536826    26A     -0.527012    27A     -0.507547
      28A     -0.451173    29A     -0.435815    30A     -0.403655

  @DF-RHF Final Energy:  -381.70238377269800

   => Energetics <=

    Nuclear Repulsion Energy =            331.0447893272977922
    One-Electron Energy =               -1175.3389114335911927
    Two-Electron Energy =                 462.5917383335953446
    Total Energy =                       -381.7023837726979991
  Basis Set: (AUG-CC-PVTZ AUX)
    Blend: AUG-CC-PVTZ-RI
    Molecular point group: c1

    Geometry (in Angstrom), charge = 0, multiplicity = 1:

       Center              X                  Y                   Z               Mass
    ------------   -----------------  -----------------  -----------------  -----------------
         O            1.169013895868    -1.328959320429    -0.010928890515    15.994914619570
         O           -3.782669404132    -0.180744920429    -0.030893190515    15.994914619570
         C            2.246359895868     0.847445779571     0.021282909485    12.000000000000
         C            3.590804595868     0.089935079571    -0.006306190515    12.000000000000
         C            1.071406595868    -0.102820920429     0.016947809485    12.000000000000
         C           -0.276196404132     0.539636079571     0.023902809485    12.000000000000
         C           -1.403734404132    -0.193035920429     0.001128809485    12.000000000000
         C           -2.728185404132     0.446228079571    -0.006842190515    12.000000000000
         H            2.181643595868     1.472689079571     0.905156809485     1.007825032230
         H            2.163261595868     1.504777079571    -0.839378190515     1.007825032230
         H            3.684633595868    -0.563763920429     0.862099809485     1.007825032230
         H            3.666096595868    -0.534205920429    -0.897921190515     1.007825032230
         H            4.422426595868     0.798201079571    -0.003264190515     1.007825032230
         H           -0.328836404132     1.629000079571     0.041302809485     1.007825032230
         H           -1.356153404132    -1.279461920429    -0.016474190515     1.007825032230
         H           -2.724950404132     1.555834079571     0.015526809485     1.007825032230

  Basis Set: AUG-CC-PVTZ
    Blend: AUG-CC-PVTZ
  Basis Set: (AUG-CC-PVTZ AUX)
    Blend: AUG-CC-PVTZ-JKFIT
	 Reference Energy          =    -381.7023837726979991 [Eh]
	 Singles Energy            =      -0.0000000000000000 [Eh]
	 Same-Spin Energy          =      -0.3772809869669038 [Eh]
	 Opposite-Spin Energy      =      -1.2237655349709540 [Eh]
	 Correlation Energy        =      -1.6010465219378578 [Eh]
	 Total Energy              =    -383.3034302946358594 [Eh]

	 ================> DF-SCS-MP2 Energies <==================
	-----------------------------------------------------------
	 SCS Same-Spin Scale       =       0.3333333333333333 [-]
	 SCS Opposite-Spin Scale   =       1.2000000000000000 [-]
	 SCS Same-Spin Energy      =      -0.1257603289889679 [Eh]
	 SCS Opposite-Spin Energy  =      -1.4685186419651448 [Eh]
	 SCS Correlation Energy    =      -1.5942789709541128 [Eh]
	 SCS Total Energy          =    -383.2966627436521208 [Eh]
	-----------------------------------------------------------

  Dipole Moment: [D]
     X:     2.8133      Y:     3.5155      Z:     0.0901     Total:     4.5035

*** Psi4 exiting successfully. Buy a developer a beer!
