                               Psi4 1.3.2 release

  ==> Input File <==

--------------------------------------------------------------------------
#psi4
#
memory 32 gb

molecule  {
0 1
  O        1.1855920    -1.3251230    -0.0110750
  O       -3.7874790    -0.1788050    -0.0307850
  C        2.2579520     0.8287430     0.0207180
  C        3.5859950     0.0918750    -0.0061980
  C        1.0665970    -0.1008810     0.0170560
  C       -0.2810060     0.5415760     0.0240110
  C       -1.4085440    -0.1910960     0.0012370
  C       -2.7329950     0.4481680    -0.0067340
  H        2.1768340     1.4746290     0.9052650
  H        2.1584520     1.5067170    -0.8392700
  H        3.6798240    -0.5618240     0.8622080
  H        3.6612870    -0.5322660    -0.8978130
  H        4.4176170     0.8001410    -0.0031560
  H       -0.3239941     1.4311985     0.0382206
  H       -1.3609630    -1.2775220    -0.0163660
  H       -2.7297600     1.5577740     0.0156350
units angstrom
no_reorient  #important for SAPT in psi4, default
symmetry c1  #important for SAPT in psi4, default
}

set PROPERTIES_ORIGIN ["COM"]
properties('MP2/aug-cc-pvtz', properties = ['dipole'])
--------------------------------------------------------------------------

    Molecular point group: c1
  Charge       = 0
  Multiplicity = 1
  Basis Set: AUG-CC-PVTZ
    Blend: AUG-CC-PVTZ
  Basis Set: (AUG-CC-PVTZ AUX)
    Blend: AUG-CC-PVTZ-JKFIT

    Orbital Energies [Eh]
    ---------------------

    Doubly Occupied:

       1A    -20.574370     2A    -20.562462     3A    -11.351890
       4A    -11.351551     5A    -11.277484     6A    -11.258761
       7A    -11.257181     8A    -11.228368     9A     -1.395634
      10A     -1.392905    11A     -1.125447    12A     -1.070438
      13A     -0.959951    14A     -0.883539    15A     -0.815278
      16A     -0.769913    17A     -0.709489    18A     -0.688252
      19A     -0.646126    20A     -0.636703    21A     -0.630966
      22A     -0.587327    23A     -0.554492    24A     -0.544348
      25A     -0.536157    26A     -0.528744    27A     -0.501800
      28A     -0.451700    29A     -0.435126    30A     -0.404297

  @DF-RHF Final Energy:  -381.66924766723270

   => Energetics <=

    Nuclear Repulsion Energy =            332.2148475050587990
    One-Electron Energy =               -1177.5067898592974416
    Two-Electron Energy =                 463.6226946870060033
    Total Energy =                       -381.6692476672326961
  Basis Set: (AUG-CC-PVTZ AUX)
    Blend: AUG-CC-PVTZ-RI
    Molecular point group: c1

    Geometry (in Angstrom), charge = 0, multiplicity = 1:

       Center              X                  Y                   Z               Mass
    ------------   -----------------  -----------------  -----------------  -----------------
         O            1.185505296303    -1.323326418423    -0.011046111187    15.994914619570
         O           -3.787565703697    -0.177008418423    -0.030756111187    15.994914619570
         C            2.257865296303     0.830539581577     0.020746888813    12.000000000000
         C            3.585908296303     0.093671581577    -0.006169111187    12.000000000000
         C            1.066510296303    -0.099084418423     0.017084888813    12.000000000000
         C           -0.281092703697     0.543372581577     0.024039888813    12.000000000000
         C           -1.408630703697    -0.189299418423     0.001265888813    12.000000000000
         C           -2.733081703697     0.449964581577    -0.006705111187    12.000000000000
         H            2.176747296303     1.476425581577     0.905293888813     1.007825032230
         H            2.158365296303     1.508513581577    -0.839241111187     1.007825032230
         H            3.679737296303    -0.560027418423     0.862236888813     1.007825032230
         H            3.661200296303    -0.530469418423    -0.897784111187     1.007825032230
         H            4.417530296303     0.801937581577    -0.003127111187     1.007825032230
         H           -0.324080803697     1.432995081577     0.038249488813     1.007825032230
         H           -1.361049703697    -1.275725418423    -0.016337111187     1.007825032230
         H           -2.729846703697     1.559570581577     0.015663888813     1.007825032230

  Basis Set: AUG-CC-PVTZ
    Blend: AUG-CC-PVTZ
  Basis Set: (AUG-CC-PVTZ AUX)
    Blend: AUG-CC-PVTZ-JKFIT
	 Reference Energy          =    -381.6692476672326961 [Eh]
	 Singles Energy            =      -0.0000000000000000 [Eh]
	 Same-Spin Energy          =      -0.3770687320167921 [Eh]
	 Opposite-Spin Energy      =      -1.2232406949695078 [Eh]
	 Correlation Energy        =      -1.6003094269862999 [Eh]
	 Total Energy              =    -383.2695570942190102 [Eh]

	 ================> DF-SCS-MP2 Energies <==================
	-----------------------------------------------------------
	 SCS Same-Spin Scale       =       0.3333333333333333 [-]
	 SCS Opposite-Spin Scale   =       1.2000000000000000 [-]
	 SCS Same-Spin Energy      =      -0.1256895773389307 [Eh]
	 SCS Opposite-Spin Energy  =      -1.4678888339634093 [Eh]
	 SCS Correlation Energy    =      -1.5935784113023399 [Eh]
	 SCS Total Energy          =    -383.2628260785350562 [Eh]
	-----------------------------------------------------------

  Dipole Moment: [D]
     X:     2.7249      Y:     3.5466      Z:     0.0907     Total:     4.4735

*** Psi4 exiting successfully. Buy a developer a beer!
