                               Psi4 1.4a3.dev225

  ==> Input File <==

--------------------------------------------------------------------------
#psi4
#
memory 32 gb

molecule  {
0 1
  O        1.0820120     1.3681640     0.0000000
  O       -3.8882340     0.1997640    -0.0000030
  C        2.1679760    -0.7815440    -0.0000070
  C        3.4943680    -0.0370920     0.0000040
  C        0.9697220     0.1420900     0.0000000
  C       -0.3759970    -0.5069640     0.0000040
  C       -1.5077040     0.2230700     0.0000000
  C       -2.8299410    -0.4231870     0.0000020
  H        2.0818540    -1.4423830    -0.8738950
  H        2.0818510    -1.4424050     0.8738640
  H        3.5776630     0.6025590    -0.8807220
  H        3.5776700     0.6025230     0.8807550
  H        4.3292850    -0.7422630    -0.0000140
  H       -0.4236580    -1.5964830     0.0000100
  H       -1.4638710     1.3098110    -0.0000060
  H       -2.8219395    -1.4830214     0.0000106
units angstrom
no_reorient  #important for SAPT in psi4, default
symmetry c1  #important for SAPT in psi4, default
}

set PROPERTIES_ORIGIN ["COM"]
properties('MP2/aug-cc-pvtz', properties = ['dipole'])
--------------------------------------------------------------------------

    Molecular point group: c1
  Charge       = 0
  Multiplicity = 1
  Basis Set: AUG-CC-PVTZ
    Blend: AUG-CC-PVTZ
  Basis Set: (AUG-CC-PVTZ AUX)
    Blend: AUG-CC-PVTZ-JKFIT

    Orbital Energies [Eh]
    ---------------------

    Doubly Occupied:

       1A    -20.573084     2A    -20.563872     3A    -11.354148
       4A    -11.345902     5A    -11.282360     6A    -11.277760
       7A    -11.257372     8A    -11.228645     9A     -1.394548
      10A     -1.393205    11A     -1.114330    12A     -1.069617
      13A     -0.955403    14A     -0.881281    15A     -0.808818
      16A     -0.755871    17A     -0.698217    18A     -0.686682
      19A     -0.645823    20A     -0.636425    21A     -0.631034
      22A     -0.573783    23A     -0.553857    24A     -0.543586
      25A     -0.535870    26A     -0.528436    27A     -0.502114
      28A     -0.453420    29A     -0.435720    30A     -0.403983

  @DF-RHF Final Energy:  -381.70232760127402

   => Energetics <=

    Nuclear Repulsion Energy =            331.0787883776713443
    One-Electron Energy =               -1175.3918984000895307
    Two-Electron Energy =                 462.6107824211441653
    Total Energy =                       -381.7023276012740212
  Basis Set: (AUG-CC-PVTZ AUX)
    Blend: AUG-CC-PVTZ-RI
    Molecular point group: c1

    Geometry (in Angstrom), charge = 0, multiplicity = 1:

       Center              X                  Y                   Z               Mass
    ------------   -----------------  -----------------  -----------------  -----------------
         O            1.178750124762     1.330227400005     0.000000083572    15.994914619570
         O           -3.791495875238     0.161827400005    -0.000002916428    15.994914619570
         C            2.264714124762    -0.819480599995    -0.000006916428    12.000000000000
         C            3.591106124762    -0.075028599995     0.000004083572    12.000000000000
         C            1.066460124762     0.104153400005     0.000000083572    12.000000000000
         C           -0.279258875238    -0.544900599995     0.000004083572    12.000000000000
         C           -1.410965875238     0.185133400005     0.000000083572    12.000000000000
         C           -2.733202875238    -0.461123599995     0.000002083572    12.000000000000
         H            2.178592124762    -1.480319599995    -0.873894916428     1.007825032230
         H            2.178589124762    -1.480341599995     0.873864083572     1.007825032230
         H            3.674401124762     0.564622400005    -0.880721916428     1.007825032230
         H            3.674408124762     0.564586400005     0.880755083572     1.007825032230
         H            4.426023124762    -0.780199599995    -0.000013916428     1.007825032230
         H           -0.326919875238    -1.634419599995     0.000010083572     1.007825032230
         H           -1.367132875238     1.271874400005    -0.000005916428     1.007825032230
         H           -2.725201375238    -1.520957999995     0.000010683572     1.007825032230

  Basis Set: AUG-CC-PVTZ
    Blend: AUG-CC-PVTZ
  Basis Set: (AUG-CC-PVTZ AUX)
    Blend: AUG-CC-PVTZ-JKFIT
	 Reference Energy          =    -381.7023276012740212 [Eh]
	 Singles Energy            =      -0.0000000000000000 [Eh]
	 Same-Spin Energy          =      -0.3772157694842379 [Eh]
	 Opposite-Spin Energy      =      -1.2236061264855893 [Eh]
	 Correlation Energy        =      -1.6008218959698270 [Eh]
	 Total Energy              =    -383.3031494972438509 [Eh]

	 ================> DF-SCS-MP2 Energies <==================
	-----------------------------------------------------------
	 SCS Same-Spin Scale       =       0.3333333333333333 [-]
	 SCS Opposite-Spin Scale   =       1.2000000000000000 [-]
	 SCS Same-Spin Energy      =      -0.1257385898280793 [Eh]
	 SCS Opposite-Spin Energy  =      -1.4683273517827071 [Eh]
	 SCS Correlation Energy    =      -1.5940659416107863 [Eh]
	 SCS Total Energy          =    -383.2963935428848004 [Eh]
	-----------------------------------------------------------

  Dipole Moment: [D]
     X:     2.7666      Y:    -3.5516      Z:     0.0000     Total:     4.5020

*** Psi4 exiting successfully. Buy a developer a beer!
