                               Psi4 1.3.2 release

  ==> Input File <==

--------------------------------------------------------------------------
#psi4
#
memory 32 gb

molecule  {
0 1
  O        1.1855920    -1.3251230    -0.0110750
  O       -3.7874790    -0.1788050    -0.0307850
  C        2.2579520     0.8287430     0.0207180
  C        3.5859950     0.0918750    -0.0061980
  C        1.0665970    -0.1008810     0.0170560
  C       -0.2441970     0.4815557     0.0237035
  C       -1.4085440    -0.1910960     0.0012370
  C       -2.7646261     0.3779809    -0.0079943
  H        2.1768340     1.4746290     0.9052650
  H        2.1584520     1.5067170    -0.8392700
  H        3.6798240    -0.5618240     0.8622080
  H        3.6612870    -0.5322660    -0.8978130
  H        4.4176170     0.8001410    -0.0031560
  H       -0.3336460     1.6309400     0.0414110
  H       -1.3609630    -1.2775220    -0.0163660
  H       -2.7297600     1.5577740     0.0156350
units angstrom
no_reorient  #important for SAPT in psi4, default
symmetry c1  #important for SAPT in psi4, default
}

set PROPERTIES_ORIGIN ["COM"]
properties('MP2/aug-cc-pvtz', properties = ['dipole'])
--------------------------------------------------------------------------

    Molecular point group: c1
  Charge       = 0
  Multiplicity = 1
  Basis Set: AUG-CC-PVTZ
    Blend: AUG-CC-PVTZ
  Basis Set: (AUG-CC-PVTZ AUX)
    Blend: AUG-CC-PVTZ-JKFIT

    Orbital Energies [Eh]
    ---------------------

    Doubly Occupied:

       1A    -20.580250     2A    -20.561806     3A    -11.352551
       4A    -11.348921     5A    -11.283360     6A    -11.278056
       7A    -11.256480     8A    -11.227741     9A     -1.442642
      10A     -1.395236    11A     -1.114783    12A     -1.069678
      13A     -0.961682    14A     -0.878979    15A     -0.791179
      16A     -0.756555    17A     -0.699892    18A     -0.686164
      19A     -0.657029    20A     -0.646095    21A     -0.631763
      22A     -0.578657    23A     -0.558403    24A     -0.543486
      25A     -0.539724    26A     -0.528349    27A     -0.502042
      28A     -0.444501    29A     -0.435399    30A     -0.406006

  @DF-RHF Final Energy:  -381.69295432411252

   => Energetics <=

    Nuclear Repulsion Energy =            332.5811469987867213
    One-Electron Energy =               -1178.2333831433400064
    Two-Electron Energy =                 463.9592818204407649
    Total Energy =                       -381.6929543241125202
  Basis Set: (AUG-CC-PVTZ AUX)
    Blend: AUG-CC-PVTZ-RI
    Molecular point group: c1

    Geometry (in Angstrom), charge = 0, multiplicity = 1:

       Center              X                  Y                   Z               Mass
    ------------   -----------------  -----------------  -----------------  -----------------
         O            1.185037592267    -1.311178673635    -0.010906906396    15.994914619570
         O           -3.788033407733    -0.164860673635    -0.030616906396    15.994914619570
         C            2.257397592267     0.842687326365     0.020886093604    12.000000000000
         C            3.585440592267     0.105819326365    -0.006029906396    12.000000000000
         C            1.066042592267    -0.086936673635     0.017224093604    12.000000000000
         C           -0.244751407733     0.495500026365     0.023871593604    12.000000000000
         C           -1.409098407733    -0.177151673635     0.001405093604    12.000000000000
         C           -2.765180507733     0.391925226365    -0.007826206396    12.000000000000
         H            2.176279592267     1.488573326365     0.905433093604     1.007825032230
         H            2.157897592267     1.520661326365    -0.839101906396     1.007825032230
         H            3.679269592267    -0.547879673635     0.862376093604     1.007825032230
         H            3.660732592267    -0.518321673635    -0.897644906396     1.007825032230
         H            4.417062592267     0.814085326365    -0.002987906396     1.007825032230
         H           -0.334200407733     1.644884326365     0.041579093604     1.007825032230
         H           -1.361517407733    -1.263577673635    -0.016197906396     1.007825032230
         H           -2.730314407733     1.571718326365     0.015803093604     1.007825032230

  Basis Set: AUG-CC-PVTZ
    Blend: AUG-CC-PVTZ
  Basis Set: (AUG-CC-PVTZ AUX)
    Blend: AUG-CC-PVTZ-JKFIT
	 Reference Energy          =    -381.6929543241125202 [Eh]
	 Singles Energy            =      -0.0000000000000000 [Eh]
	 Same-Spin Energy          =      -0.3767994727041624 [Eh]
	 Opposite-Spin Energy      =      -1.2217079296410391 [Eh]
	 Correlation Energy        =      -1.5985074023452015 [Eh]
	 Total Energy              =    -383.2914617264577259 [Eh]

	 ================> DF-SCS-MP2 Energies <==================
	-----------------------------------------------------------
	 SCS Same-Spin Scale       =       0.3333333333333333 [-]
	 SCS Opposite-Spin Scale   =       1.2000000000000000 [-]
	 SCS Same-Spin Energy      =      -0.1255998242347208 [Eh]
	 SCS Opposite-Spin Energy  =      -1.4660495155692470 [Eh]
	 SCS Correlation Energy    =      -1.5916493398039677 [Eh]
	 SCS Total Energy          =    -383.2846036639164709 [Eh]
	-----------------------------------------------------------

  Dipole Moment: [D]
     X:     2.4975      Y:     3.1818      Z:     0.0809     Total:     4.0458

*** Psi4 exiting successfully. Buy a developer a beer!
