                               Psi4 1.3.2 release

  ==> Input File <==

--------------------------------------------------------------------------
#psi4
#
memory 32 gb

molecule  {
0 1
  O        1.1855920    -1.3251230    -0.0110750
  O       -3.7874790    -0.1788050    -0.0307850
  C        2.2579520     0.8287430     0.0207180
  C        3.5859950     0.0918750    -0.0061980
  C        1.0665970    -0.1008810     0.0170560
  C       -0.2810060     0.5415760     0.0240110
  C       -1.4085440    -0.1910960     0.0012370
  C       -2.7329950     0.4481680    -0.0067340
  H        2.1768340     1.4746290     0.9052650
  H        2.1584520     1.5067170    -0.8392700
  H        3.6798240    -0.5618240     0.8622080
  H        3.6612870    -0.5322660    -0.8978130
  H        4.4176170     0.8001410    -0.0031560
  H       -0.3336460     1.6309400     0.0414110
  H       -1.3609630    -1.2775220    -0.0163660
  H       -2.7300515     1.4577947     0.0136195
units angstrom
no_reorient  #important for SAPT in psi4, default
symmetry c1  #important for SAPT in psi4, default
}

set PROPERTIES_ORIGIN ["COM"]
properties('MP2/aug-cc-pvtz', properties = ['dipole'])
--------------------------------------------------------------------------

    Molecular point group: c1
  Charge       = 0
  Multiplicity = 1
  Basis Set: AUG-CC-PVTZ
    Blend: AUG-CC-PVTZ
  Basis Set: (AUG-CC-PVTZ AUX)
    Blend: AUG-CC-PVTZ-JKFIT

    Orbital Energies [Eh]
    ---------------------

    Doubly Occupied:

       1A    -20.572198     2A    -20.563585     3A    -11.353544
       4A    -11.339648     5A    -11.281568     6A    -11.276546
       7A    -11.256790     8A    -11.228081     9A     -1.394870
      10A     -1.393540    11A     -1.115087    12A     -1.070287
      13A     -0.957144    14A     -0.884521    15A     -0.816593
      16A     -0.755849    17A     -0.700885    18A     -0.687782
      19A     -0.645882    20A     -0.636616    21A     -0.632490
      22A     -0.573450    23A     -0.553853    24A     -0.543765
      25A     -0.535780    26A     -0.528650    27A     -0.501814
      28A     -0.455100    29A     -0.435682    30A     -0.404019

  @DF-RHF Final Energy:  -381.69860511736925

   => Energetics <=

    Nuclear Repulsion Energy =            331.6087879307464164
    One-Electron Energy =               -1176.4235480806371470
    Two-Electron Energy =                 463.1161550325214762
    Total Energy =                       -381.6986051173692545
  Basis Set: (AUG-CC-PVTZ AUX)
    Blend: AUG-CC-PVTZ-RI
    Molecular point group: c1

    Geometry (in Angstrom), charge = 0, multiplicity = 1:

       Center              X                  Y                   Z               Mass
    ------------   -----------------  -----------------  -----------------  -----------------
         O            1.185594729504    -1.324223702336    -0.011056678504    15.994914619570
         O           -3.787476270496    -0.177905702336    -0.030766678504    15.994914619570
         C            2.257954729504     0.829642297664     0.020736321496    12.000000000000
         C            3.585997729504     0.092774297664    -0.006179678504    12.000000000000
         C            1.066599729504    -0.099981702336     0.017074321496    12.000000000000
         C           -0.281003270496     0.542475297664     0.024029321496    12.000000000000
         C           -1.408541270496    -0.190196702336     0.001255321496    12.000000000000
         C           -2.732992270496     0.449067297664    -0.006715678504    12.000000000000
         H            2.176836729504     1.475528297664     0.905283321496     1.007825032230
         H            2.158454729504     1.507616297664    -0.839251678504     1.007825032230
         H            3.679826729504    -0.560924702336     0.862226321496     1.007825032230
         H            3.661289729504    -0.531366702336    -0.897794678504     1.007825032230
         H            4.417619729504     0.801040297664    -0.003137678504     1.007825032230
         H           -0.333643270496     1.631839297664     0.041429321496     1.007825032230
         H           -1.360960270496    -1.276622702336    -0.016347678504     1.007825032230
         H           -2.730048770496     1.458693997664     0.013637821496     1.007825032230

  Basis Set: AUG-CC-PVTZ
    Blend: AUG-CC-PVTZ
  Basis Set: (AUG-CC-PVTZ AUX)
    Blend: AUG-CC-PVTZ-JKFIT
	 Reference Energy          =    -381.6986051173692545 [Eh]
	 Singles Energy            =      -0.0000000000000000 [Eh]
	 Same-Spin Energy          =      -0.3770346982201632 [Eh]
	 Opposite-Spin Energy      =      -1.2231583039538902 [Eh]
	 Correlation Energy        =      -1.6001930021740534 [Eh]
	 Total Energy              =    -383.2987981195433349 [Eh]

	 ================> DF-SCS-MP2 Energies <==================
	-----------------------------------------------------------
	 SCS Same-Spin Scale       =       0.3333333333333333 [-]
	 SCS Opposite-Spin Scale   =       1.2000000000000000 [-]
	 SCS Same-Spin Energy      =      -0.1256782327400544 [Eh]
	 SCS Opposite-Spin Energy  =      -1.4677899647446682 [Eh]
	 SCS Correlation Energy    =      -1.5934681974847225 [Eh]
	 SCS Total Energy          =    -383.2920733148539512 [Eh]
	-----------------------------------------------------------

  Dipole Moment: [D]
     X:     2.7404      Y:     3.6030      Z:     0.0916     Total:     4.5277

*** Psi4 exiting successfully. Buy a developer a beer!
