                               Psi4 1.3.2 release

  ==> Input File <==

--------------------------------------------------------------------------
#psi4
#
memory 32 gb

molecule  {
0 1
  O        1.1749015    -1.3261130    -0.0111633
  O       -3.7874790    -0.1788050    -0.0307850
  C        2.2579520     0.8287430     0.0207180
  C        3.5859950     0.0918750    -0.0061980
  C        1.0665970    -0.1008810     0.0170560
  C       -0.2865609     0.5297955     0.0236996
  C       -1.4085440    -0.1910960     0.0012370
  C       -2.7329950     0.4481680    -0.0067340
  H        2.1768340     1.4746290     0.9052650
  H        2.1584520     1.5067170    -0.8392700
  H        3.6798240    -0.5618240     0.8622080
  H        3.6612870    -0.5322660    -0.8978130
  H        4.4176170     0.8001410    -0.0031560
  H       -0.3336460     1.6309400     0.0414110
  H       -1.3609630    -1.2775220    -0.0163660
  H       -2.7297600     1.5577740     0.0156350
units angstrom
no_reorient  #important for SAPT in psi4, default
symmetry c1  #important for SAPT in psi4, default
}

set PROPERTIES_ORIGIN ["COM"]
properties('MP2/aug-cc-pvtz', properties = ['dipole'])
--------------------------------------------------------------------------

    Molecular point group: c1
  Charge       = 0
  Multiplicity = 1
  Basis Set: AUG-CC-PVTZ
    Blend: AUG-CC-PVTZ
  Basis Set: (AUG-CC-PVTZ AUX)
    Blend: AUG-CC-PVTZ-JKFIT

    Orbital Energies [Eh]
    ---------------------

    Doubly Occupied:

       1A    -20.573656     2A    -20.564133     3A    -11.353971
       4A    -11.351061     5A    -11.281015     6A    -11.275380
       7A    -11.258004     8A    -11.228917     9A     -1.395527
      10A     -1.394205    11A     -1.116039    12A     -1.071285
      13A     -0.954210    14A     -0.879680    15A     -0.800881
      16A     -0.755700    17A     -0.696317    18A     -0.686043
      19A     -0.646601    20A     -0.637573    21A     -0.629843
      22A     -0.570366    23A     -0.555046    24A     -0.544859
      25A     -0.536661    26A     -0.529405    27A     -0.502555
      28A     -0.451409    29A     -0.435912    30A     -0.406260

  @DF-RHF Final Energy:  -381.70317519894229

   => Energetics <=

    Nuclear Repulsion Energy =            331.2793262369356739
    One-Electron Energy =               -1175.7999738558232821
    Two-Electron Energy =                 462.8174724199452612
    Total Energy =                       -381.7031751989422901
  Basis Set: (AUG-CC-PVTZ AUX)
    Blend: AUG-CC-PVTZ-RI
    Molecular point group: c1

    Geometry (in Angstrom), charge = 0, multiplicity = 1:

       Center              X                  Y                   Z               Mass
    ------------   -----------------  -----------------  -----------------  -----------------
         O            1.177022511587    -1.324710015584    -0.011117153319    15.994914619570
         O           -3.785357988413    -0.177402015584    -0.030738853319    15.994914619570
         C            2.260073011587     0.830145984416     0.020764146681    12.000000000000
         C            3.588116011587     0.093277984416    -0.006151853319    12.000000000000
         C            1.068718011587    -0.099478015584     0.017102146681    12.000000000000
         C           -0.284439888413     0.531198484416     0.023745746681    12.000000000000
         C           -1.406422988413    -0.189693015584     0.001283146681    12.000000000000
         C           -2.730873988413     0.449570984416    -0.006687853319    12.000000000000
         H            2.178955011587     1.476031984416     0.905311146681     1.007825032230
         H            2.160573011587     1.508119984416    -0.839223853319     1.007825032230
         H            3.681945011587    -0.560421015584     0.862254146681     1.007825032230
         H            3.663408011587    -0.530863015584    -0.897766853319     1.007825032230
         H            4.419738011587     0.801543984416    -0.003109853319     1.007825032230
         H           -0.331524988413     1.632342984416     0.041457146681     1.007825032230
         H           -1.358841988413    -1.276119015584    -0.016319853319     1.007825032230
         H           -2.727638988413     1.559176984416     0.015681146681     1.007825032230

  Basis Set: AUG-CC-PVTZ
    Blend: AUG-CC-PVTZ
  Basis Set: (AUG-CC-PVTZ AUX)
    Blend: AUG-CC-PVTZ-JKFIT
	 Reference Energy          =    -381.7031751989422901 [Eh]
	 Singles Energy            =      -0.0000000000000000 [Eh]
	 Same-Spin Energy          =      -0.3772993727593391 [Eh]
	 Opposite-Spin Energy      =      -1.2235696713178754 [Eh]
	 Correlation Energy        =      -1.6008690440772146 [Eh]
	 Total Energy              =    -383.3040442430195185 [Eh]

	 ================> DF-SCS-MP2 Energies <==================
	-----------------------------------------------------------
	 SCS Same-Spin Scale       =       0.3333333333333333 [-]
	 SCS Opposite-Spin Scale   =       1.2000000000000000 [-]
	 SCS Same-Spin Energy      =      -0.1257664575864464 [Eh]
	 SCS Opposite-Spin Energy  =      -1.4682836055814505 [Eh]
	 SCS Correlation Energy    =      -1.5940500631678969 [Eh]
	 SCS Total Energy          =    -383.2972252621102029 [Eh]
	-----------------------------------------------------------

  Dipole Moment: [D]
     X:     2.8008      Y:     3.5103      Z:     0.0901     Total:     4.4917

*** Psi4 exiting successfully. Buy a developer a beer!
