                               Psi4 1.3.2 release

  ==> Input File <==

--------------------------------------------------------------------------
#psi4
#
memory 32 gb

molecule  {
0 1
  O        1.1855920    -1.3251230    -0.0110750
  O       -3.7649472    -0.2152275    -0.0310476
  C        2.2579520     0.8287430     0.0207180
  C        3.5859950     0.0918750    -0.0061980
  C        1.0665970    -0.1008810     0.0170560
  C       -0.2810060     0.5415760     0.0240110
  C       -1.4316517    -0.2369232     0.0002098
  C       -2.7329950     0.4481680    -0.0067340
  H        2.1768340     1.4746290     0.9052650
  H        2.1584520     1.5067170    -0.8392700
  H        3.6798240    -0.5618240     0.8622080
  H        3.6612870    -0.5322660    -0.8978130
  H        4.4176170     0.8001410    -0.0031560
  H       -0.3336460     1.6309400     0.0414110
  H       -1.3609630    -1.2775220    -0.0163660
  H       -2.7297600     1.5577740     0.0156350
units angstrom
no_reorient  #important for SAPT in psi4, default
symmetry c1  #important for SAPT in psi4, default
}

set PROPERTIES_ORIGIN ["COM"]
properties('MP2/aug-cc-pvtz', properties = ['dipole'])
--------------------------------------------------------------------------

    Molecular point group: c1
  Charge       = 0
  Multiplicity = 1
  Basis Set: AUG-CC-PVTZ
    Blend: AUG-CC-PVTZ
  Basis Set: (AUG-CC-PVTZ AUX)
    Blend: AUG-CC-PVTZ-JKFIT

    Orbital Energies [Eh]
    ---------------------

    Doubly Occupied:

       1A    -20.572380     2A    -20.562428     3A    -11.352388
       4A    -11.351442     5A    -11.286507     6A    -11.280603
       7A    -11.256045     8A    -11.227570     9A     -1.395836
      10A     -1.392981    11A     -1.106000    12A     -1.068287
      13A     -0.954396    14A     -0.876040    15A     -0.809008
      16A     -0.753211    17A     -0.696370    18A     -0.682876
      19A     -0.645145    20A     -0.639089    21A     -0.626380
      22A     -0.583738    23A     -0.553312    24A     -0.542532
      25A     -0.536020    26A     -0.528025    27A     -0.501121
      28A     -0.452280    29A     -0.434258    30A     -0.394360

  @DF-RHF Final Energy:  -381.69694469900611

   => Energetics <=

    Nuclear Repulsion Energy =            330.9123647906607175
    One-Electron Energy =               -1175.0973601664443322
    Two-Electron Energy =                 462.4880506767775046
    Total Energy =                       -381.6969446990061101
  Basis Set: (AUG-CC-PVTZ AUX)
    Blend: AUG-CC-PVTZ-RI
    Molecular point group: c1

    Geometry (in Angstrom), charge = 0, multiplicity = 1:

       Center              X                  Y                   Z               Mass
    ------------   -----------------  -----------------  -----------------  -----------------
         O            1.184850474349    -1.315016052479    -0.010927315908    15.994914619570
         O           -3.765688725651    -0.205120552479    -0.030899915908    15.994914619570
         C            2.257210474349     0.838849947521     0.020865684092    12.000000000000
         C            3.585253474349     0.101981947521    -0.006050315908    12.000000000000
         C            1.065855474349    -0.090774052479     0.017203684092    12.000000000000
         C           -0.281747525651     0.551682947521     0.024158684092    12.000000000000
         C           -1.432393225651    -0.226816252479     0.000357484092    12.000000000000
         C           -2.733736525651     0.458274947521    -0.006586315908    12.000000000000
         H            2.176092474349     1.484735947521     0.905412684092     1.007825032230
         H            2.157710474349     1.516823947521    -0.839122315908     1.007825032230
         H            3.679082474349    -0.551717052479     0.862355684092     1.007825032230
         H            3.660545474349    -0.522159052479    -0.897665315908     1.007825032230
         H            4.416875474349     0.810247947521    -0.003008315908     1.007825032230
         H           -0.334387525651     1.641046947521     0.041558684092     1.007825032230
         H           -1.361704525651    -1.267415052479    -0.016218315908     1.007825032230
         H           -2.730501525651     1.567880947521     0.015782684092     1.007825032230

  Basis Set: AUG-CC-PVTZ
    Blend: AUG-CC-PVTZ
  Basis Set: (AUG-CC-PVTZ AUX)
    Blend: AUG-CC-PVTZ-JKFIT
	 Reference Energy          =    -381.6969446990061101 [Eh]
	 Singles Energy            =      -0.0000000000000000 [Eh]
	 Same-Spin Energy          =      -0.3778207594329753 [Eh]
	 Opposite-Spin Energy      =      -1.2248247488766593 [Eh]
	 Correlation Energy        =      -1.6026455083096347 [Eh]
	 Total Energy              =    -383.2995902073157595 [Eh]

	 ================> DF-SCS-MP2 Energies <==================
	-----------------------------------------------------------
	 SCS Same-Spin Scale       =       0.3333333333333333 [-]
	 SCS Opposite-Spin Scale   =       1.2000000000000000 [-]
	 SCS Same-Spin Energy      =      -0.1259402531443251 [Eh]
	 SCS Opposite-Spin Energy  =      -1.4697896986519912 [Eh]
	 SCS Correlation Energy    =      -1.5957299517963164 [Eh]
	 SCS Total Energy          =    -383.2926746508024394 [Eh]
	-----------------------------------------------------------

  Dipole Moment: [D]
     X:     2.6562      Y:     3.5918      Z:     0.0906     Total:     4.4682

*** Psi4 exiting successfully. Buy a developer a beer!
