                               Psi4 1.3.2 release

  ==> Input File <==

--------------------------------------------------------------------------
#psi4
#
memory 32 gb

molecule  {
0 1
  O        1.1855920    -1.3251230    -0.0110750
  O       -3.7874790    -0.1788050    -0.0307850
  C        2.2579520     0.8287430     0.0207180
  C        3.5859950     0.0918750    -0.0061980
  C        1.0665970    -0.1008810     0.0170560
  C       -0.2561169     0.5017755     0.0238129
  C       -1.4085440    -0.1910960     0.0012370
  C       -2.7544913     0.4015595    -0.0075769
  H        2.1768340     1.4746290     0.9052650
  H        2.1584520     1.5067170    -0.8392700
  H        3.6798240    -0.5618240     0.8622080
  H        3.6612870    -0.5322660    -0.8978130
  H        4.4176170     0.8001410    -0.0031560
  H       -0.3336460     1.6309400     0.0414110
  H       -1.3609630    -1.2775220    -0.0163660
  H       -2.7297600     1.5577740     0.0156350
units angstrom
no_reorient  #important for SAPT in psi4, default
symmetry c1  #important for SAPT in psi4, default
}

set PROPERTIES_ORIGIN ["COM"]
properties('MP2/aug-cc-pvtz', properties = ['dipole'])
--------------------------------------------------------------------------

    Molecular point group: c1
  Charge       = 0
  Multiplicity = 1
  Basis Set: AUG-CC-PVTZ
    Blend: AUG-CC-PVTZ
  Basis Set: (AUG-CC-PVTZ AUX)
    Blend: AUG-CC-PVTZ-JKFIT

    Orbital Energies [Eh]
    ---------------------

    Doubly Occupied:

       1A    -20.578011     2A    -20.562447     3A    -11.351958
       4A    -11.350577     5A    -11.282802     6A    -11.277717
       7A    -11.256625     8A    -11.227893     9A     -1.426484
      10A     -1.394840    11A     -1.114597    12A     -1.069850
      13A     -0.959156    14A     -0.878829    15A     -0.793552
      16A     -0.756565    17A     -0.697898    18A     -0.686273
      19A     -0.650041    20A     -0.646053    21A     -0.631816
      22A     -0.569301    23A     -0.562571    24A     -0.542141
      25A     -0.541825    26A     -0.528562    27A     -0.502026
      28A     -0.446481    29A     -0.436904    30A     -0.405652

  @DF-RHF Final Energy:  -381.69982102363883

   => Energetics <=

    Nuclear Repulsion Energy =            332.0852224375965420
    One-Electron Energy =               -1177.3111957581390925
    Two-Electron Energy =                 463.5261522969037742
    Total Energy =                       -381.6998210236388331
  Basis Set: (AUG-CC-PVTZ AUX)
    Blend: AUG-CC-PVTZ-RI
    Molecular point group: c1

    Geometry (in Angstrom), charge = 0, multiplicity = 1:

       Center              X                  Y                   Z               Mass
    ------------   -----------------  -----------------  -----------------  -----------------
         O            1.185228763490    -1.315869163635    -0.010963322843    15.994914619570
         O           -3.787842236510    -0.169551163635    -0.030673322843    15.994914619570
         C            2.257588763490     0.837996836365     0.020829677157    12.000000000000
         C            3.585631763490     0.101128836365    -0.006086322843    12.000000000000
         C            1.066233763490    -0.091627163635     0.017167677157    12.000000000000
         C           -0.256480136510     0.511029336365     0.023924577157    12.000000000000
         C           -1.408907236510    -0.181842163635     0.001348677157    12.000000000000
         C           -2.754854536510     0.410813336365    -0.007465222843    12.000000000000
         H            2.176470763490     1.483882836365     0.905376677157     1.007825032230
         H            2.158088763490     1.515970836365    -0.839158322843     1.007825032230
         H            3.679460763490    -0.552570163635     0.862319677157     1.007825032230
         H            3.660923763490    -0.523012163635    -0.897701322843     1.007825032230
         H            4.417253763490     0.809394836365    -0.003044322843     1.007825032230
         H           -0.334009236510     1.640193836365     0.041522677157     1.007825032230
         H           -1.361326236510    -1.268268163635    -0.016254322843     1.007825032230
         H           -2.730123236510     1.567027836365     0.015746677157     1.007825032230

  Basis Set: AUG-CC-PVTZ
    Blend: AUG-CC-PVTZ
  Basis Set: (AUG-CC-PVTZ AUX)
    Blend: AUG-CC-PVTZ-JKFIT
	 Reference Energy          =    -381.6998210236388331 [Eh]
	 Singles Energy            =      -0.0000000000000000 [Eh]
	 Same-Spin Energy          =      -0.3769095907019255 [Eh]
	 Opposite-Spin Energy      =      -1.2221825268264190 [Eh]
	 Correlation Energy        =      -1.5990921175283446 [Eh]
	 Total Energy              =    -383.2989131411671906 [Eh]

	 ================> DF-SCS-MP2 Energies <==================
	-----------------------------------------------------------
	 SCS Same-Spin Scale       =       0.3333333333333333 [-]
	 SCS Opposite-Spin Scale   =       1.2000000000000000 [-]
	 SCS Same-Spin Energy      =      -0.1256365302339752 [Eh]
	 SCS Opposite-Spin Energy  =      -1.4666190321917028 [Eh]
	 SCS Correlation Energy    =      -1.5922555624256780 [Eh]
	 SCS Total Energy          =    -383.2920765860645247 [Eh]
	-----------------------------------------------------------

  Dipole Moment: [D]
     X:     2.5810      Y:     3.3083      Z:     0.0843     Total:     4.1969

*** Psi4 exiting successfully. Buy a developer a beer!
