                               Psi4 1.3.2 release

  ==> Input File <==

--------------------------------------------------------------------------
#psi4
#
memory 32 gb

molecule  {
0 1
  O        1.1855920    -1.3251230    -0.0110750
  O       -3.7874790    -0.1788050    -0.0307850
  C        2.2579520     0.8287430     0.0207180
  C        3.4111388     0.1888944    -0.0026541
  C        1.0665970    -0.1008810     0.0170560
  C       -0.2810060     0.5415760     0.0240110
  C       -1.4085440    -0.1910960     0.0012370
  C       -2.7329950     0.4481680    -0.0067340
  H        2.1768340     1.4746290     0.9052650
  H        2.1584520     1.5067170    -0.8392700
  H        3.6798240    -0.5618240     0.8622080
  H        3.6612870    -0.5322660    -0.8978130
  H        4.4176170     0.8001410    -0.0031560
  H       -0.3336460     1.6309400     0.0414110
  H       -1.3609630    -1.2775220    -0.0163660
  H       -2.7297600     1.5577740     0.0156350
units angstrom
no_reorient  #important for SAPT in psi4, default
symmetry c1  #important for SAPT in psi4, default
}

set PROPERTIES_ORIGIN ["COM"]
properties('MP2/aug-cc-pvtz', properties = ['dipole'])
--------------------------------------------------------------------------

    Molecular point group: c1
  Charge       = 0
  Multiplicity = 1
  Basis Set: AUG-CC-PVTZ
    Blend: AUG-CC-PVTZ
  Basis Set: (AUG-CC-PVTZ AUX)
    Blend: AUG-CC-PVTZ-JKFIT

    Orbital Energies [Eh]
    ---------------------

    Doubly Occupied:

       1A    -20.574561     2A    -20.566550     3A    -11.355298
       4A    -11.351879     5A    -11.283131     6A    -11.278688
       7A    -11.249252     8A    -11.238975     9A     -1.397492
      10A     -1.395499    11A     -1.125427    12A     -1.105332
      13A     -0.956138    14A     -0.865179    15A     -0.800038
      16A     -0.759256    17A     -0.703229    18A     -0.689746
      19A     -0.660139    20A     -0.641012    21A     -0.637711
      22A     -0.595610    23A     -0.574254    24A     -0.553655
      25A     -0.529832    26A     -0.492732    27A     -0.465614
      28A     -0.451958    29A     -0.434108    30A     -0.405064

  @DF-RHF Final Energy:  -381.65149385780177

   => Energetics <=

    Nuclear Repulsion Energy =            334.1236317292974718
    One-Electron Energy =               -1181.2755330400109415
    Two-Electron Energy =                 465.5004074529117020
    Total Energy =                       -381.6514938578017677
  Basis Set: (AUG-CC-PVTZ AUX)
    Blend: AUG-CC-PVTZ-RI
    Molecular point group: c1

    Geometry (in Angstrom), charge = 0, multiplicity = 1:

       Center              X                  Y                   Z               Mass
    ------------   -----------------  -----------------  -----------------  -----------------
         O            1.204317934600    -1.335513010805    -0.011454332277    15.994914619570
         O           -3.768753065400    -0.189195010805    -0.031164332277    15.994914619570
         C            2.276677934600     0.818352989195     0.020338667723    12.000000000000
         C            3.429864734600     0.178504389195    -0.003033432277    12.000000000000
         C            1.085322934600    -0.111271010805     0.016676667723    12.000000000000
         C           -0.262280065400     0.531185989195     0.023631667723    12.000000000000
         C           -1.389818065400    -0.201486010805     0.000857667723    12.000000000000
         C           -2.714269065400     0.437777989195    -0.007113332277    12.000000000000
         H            2.195559934600     1.464238989195     0.904885667723     1.007825032230
         H            2.177177934600     1.496326989195    -0.839649332277     1.007825032230
         H            3.698549934600    -0.572214010805     0.861828667723     1.007825032230
         H            3.680012934600    -0.542656010805    -0.898192332277     1.007825032230
         H            4.436342934600     0.789750989195    -0.003535332277     1.007825032230
         H           -0.314920065400     1.620549989195     0.041031667723     1.007825032230
         H           -1.342237065400    -1.287912010805    -0.016745332277     1.007825032230
         H           -2.711034065400     1.547383989195     0.015255667723     1.007825032230

  Basis Set: AUG-CC-PVTZ
    Blend: AUG-CC-PVTZ
  Basis Set: (AUG-CC-PVTZ AUX)
    Blend: AUG-CC-PVTZ-JKFIT
	 Reference Energy          =    -381.6514938578017677 [Eh]
	 Singles Energy            =      -0.0000000000000000 [Eh]
	 Same-Spin Energy          =      -0.3804176130273308 [Eh]
	 Opposite-Spin Energy      =      -1.2280445605361929 [Eh]
	 Correlation Energy        =      -1.6084621735635238 [Eh]
	 Total Energy              =    -383.2599560313652773 [Eh]

	 ================> DF-SCS-MP2 Energies <==================
	-----------------------------------------------------------
	 SCS Same-Spin Scale       =       0.3333333333333333 [-]
	 SCS Opposite-Spin Scale   =       1.2000000000000000 [-]
	 SCS Same-Spin Energy      =      -0.1268058710091103 [Eh]
	 SCS Opposite-Spin Energy  =      -1.4736534726434314 [Eh]
	 SCS Correlation Energy    =      -1.6004593436525416 [Eh]
	 SCS Total Energy          =    -383.2519532014542847 [Eh]
	-----------------------------------------------------------

  Dipole Moment: [D]
     X:     2.6962      Y:     3.5108      Z:     0.0907     Total:     4.4276

*** Psi4 exiting successfully. Buy a developer a beer!
