                               Psi4 1.3.2 release

  ==> Input File <==

--------------------------------------------------------------------------
#psi4
#
memory 32 gb

molecule  {
0 1
  O        1.1855920    -1.3251230    -0.0110750
  O       -3.7874790    -0.1788050    -0.0307850
  C        2.2579520     0.8287430     0.0207180
  C        3.5859950     0.0918750    -0.0061980
  C        1.0776039    -0.0772712     0.0176488
  C       -0.2810060     0.5415760     0.0240110
  C       -1.4211647    -0.1713092     0.0016121
  C       -2.7329950     0.4481680    -0.0067340
  H        2.1768340     1.4746290     0.9052650
  H        2.1584520     1.5067170    -0.8392700
  H        3.6798240    -0.5618240     0.8622080
  H        3.6612870    -0.5322660    -0.8978130
  H        4.4176170     0.8001410    -0.0031560
  H       -0.3336460     1.6309400     0.0414110
  H       -1.3609630    -1.2775220    -0.0163660
  H       -2.7297600     1.5577740     0.0156350
units angstrom
no_reorient  #important for SAPT in psi4, default
symmetry c1  #important for SAPT in psi4, default
}

set PROPERTIES_ORIGIN ["COM"]
properties('MP2/aug-cc-pvtz', properties = ['dipole'])
--------------------------------------------------------------------------

    Molecular point group: c1
  Charge       = 0
  Multiplicity = 1
  Basis Set: AUG-CC-PVTZ
    Blend: AUG-CC-PVTZ
  Basis Set: (AUG-CC-PVTZ AUX)
    Blend: AUG-CC-PVTZ-JKFIT

    Orbital Energies [Eh]
    ---------------------

    Doubly Occupied:

       1A    -20.573923     2A    -20.563671     3A    -11.356974
       4A    -11.349939     5A    -11.284236     6A    -11.278197
       7A    -11.259009     8A    -11.229935     9A     -1.395348
      10A     -1.380952    11A     -1.116476    12A     -1.075900
      13A     -0.959428    14A     -0.884260    15A     -0.799312
      16A     -0.756896    17A     -0.695903    18A     -0.687258
      19A     -0.648891    20A     -0.638004    21A     -0.626432
      22A     -0.565196    23A     -0.554499    24A     -0.545412
      25A     -0.534738    26A     -0.529282    27A     -0.499493
      28A     -0.452221    29A     -0.440562    30A     -0.403628

  @DF-RHF Final Energy:  -381.69805494825067

   => Energetics <=

    Nuclear Repulsion Energy =            331.0669339976481069
    One-Electron Energy =               -1175.3580271101247945
    Two-Electron Energy =                 462.5930381642260159
    Total Energy =                       -381.6980549482506717
  Basis Set: (AUG-CC-PVTZ AUX)
    Blend: AUG-CC-PVTZ-RI
    Molecular point group: c1

    Geometry (in Angstrom), charge = 0, multiplicity = 1:

       Center              X                  Y                   Z               Mass
    ------------   -----------------  -----------------  -----------------  -----------------
         O            1.185764933926    -1.329770399039    -0.011178461418    15.994914619570
         O           -3.787306066074    -0.183452399039    -0.030888461418    15.994914619570
         C            2.258124933926     0.824095600961     0.020614538582    12.000000000000
         C            3.586167933926     0.087227600961    -0.006301461418    12.000000000000
         C            1.077776833926    -0.081918599039     0.017545338582    12.000000000000
         C           -0.280833066074     0.536928600961     0.023907538582    12.000000000000
         C           -1.420991766074    -0.175956599039     0.001508638582    12.000000000000
         C           -2.732822066074     0.443520600961    -0.006837461418    12.000000000000
         H            2.177006933926     1.469981600961     0.905161538582     1.007825032230
         H            2.158624933926     1.502069600961    -0.839373461418     1.007825032230
         H            3.679996933926    -0.566471399039     0.862104538582     1.007825032230
         H            3.661459933926    -0.536913399039    -0.897916461418     1.007825032230
         H            4.417789933926     0.795493600961    -0.003259461418     1.007825032230
         H           -0.333473066074     1.626292600961     0.041307538582     1.007825032230
         H           -1.360790066074    -1.282169399039    -0.016469461418     1.007825032230
         H           -2.729587066074     1.553126600961     0.015531538582     1.007825032230

  Basis Set: AUG-CC-PVTZ
    Blend: AUG-CC-PVTZ
  Basis Set: (AUG-CC-PVTZ AUX)
    Blend: AUG-CC-PVTZ-JKFIT
	 Reference Energy          =    -381.6980549482506717 [Eh]
	 Singles Energy            =      -0.0000000000000000 [Eh]
	 Same-Spin Energy          =      -0.3784475742396337 [Eh]
	 Opposite-Spin Energy      =      -1.2257780182235942 [Eh]
	 Correlation Energy        =      -1.6042255924632278 [Eh]
	 Total Energy              =    -383.3022805407139231 [Eh]

	 ================> DF-SCS-MP2 Energies <==================
	-----------------------------------------------------------
	 SCS Same-Spin Scale       =       0.3333333333333333 [-]
	 SCS Opposite-Spin Scale   =       1.2000000000000000 [-]
	 SCS Same-Spin Energy      =      -0.1261491914132112 [Eh]
	 SCS Opposite-Spin Energy  =      -1.4709336218683131 [Eh]
	 SCS Correlation Energy    =      -1.5970828132815242 [Eh]
	 SCS Total Energy          =    -383.2951377615322031 [Eh]
	-----------------------------------------------------------

  Dipole Moment: [D]
     X:     2.8931      Y:     3.5934      Z:     0.0912     Total:     4.6143

*** Psi4 exiting successfully. Buy a developer a beer!
