                               Psi4 1.3.2 release

  ==> Input File <==

--------------------------------------------------------------------------
#psi4
#
memory 32 gb

molecule  {
0 1
  O        1.1855920    -1.3251230    -0.0110750
  O       -3.7874790    -0.1788050    -0.0307850
  C        2.2579520     0.8287430     0.0207180
  C        3.5795114     0.0803138    -0.0063316
  C        1.0747536    -0.1112395     0.0167887
  C       -0.2810060     0.5415760     0.0240110
  C       -1.4085440    -0.1910960     0.0012370
  C       -2.7329950     0.4481680    -0.0067340
  H        2.1768340     1.4746290     0.9052650
  H        2.1584520     1.5067170    -0.8392700
  H        3.6798240    -0.5618240     0.8622080
  H        3.6612870    -0.5322660    -0.8978130
  H        4.4176170     0.8001410    -0.0031560
  H       -0.3336460     1.6309400     0.0414110
  H       -1.3609630    -1.2775220    -0.0163660
  H       -2.7297600     1.5577740     0.0156350
units angstrom
no_reorient  #important for SAPT in psi4, default
symmetry c1  #important for SAPT in psi4, default
}

set PROPERTIES_ORIGIN ["COM"]
properties('MP2/aug-cc-pvtz', properties = ['dipole'])
--------------------------------------------------------------------------

    Molecular point group: c1
  Charge       = 0
  Multiplicity = 1
  Basis Set: AUG-CC-PVTZ
    Blend: AUG-CC-PVTZ
  Basis Set: (AUG-CC-PVTZ AUX)
    Blend: AUG-CC-PVTZ-JKFIT

    Orbital Energies [Eh]
    ---------------------

    Doubly Occupied:

       1A    -20.572958     2A    -20.565254     3A    -11.353487
       4A    -11.350488     5A    -11.281735     6A    -11.276368
       7A    -11.256957     8A    -11.228444     9A     -1.402410
      10A     -1.394242    11A     -1.113129    12A     -1.070713
      13A     -0.952471    14A     -0.878369    15A     -0.800100
      16A     -0.756111    17A     -0.697078    18A     -0.685324
      19A     -0.647694    20A     -0.638741    21A     -0.630245
      22A     -0.573616    23A     -0.555641    24A     -0.540673
      25A     -0.538759    26A     -0.530151    27A     -0.505246
      28A     -0.451148    29A     -0.434012    30A     -0.404490

  @DF-RHF Final Energy:  -381.70390622179502

   => Energetics <=

    Nuclear Repulsion Energy =            331.2697152298351284
    One-Electron Energy =               -1175.7751331160020527
    Two-Electron Energy =                 462.8015116643719011
    Total Energy =                       -381.7039062217950232
  Basis Set: (AUG-CC-PVTZ AUX)
    Blend: AUG-CC-PVTZ-RI
    Molecular point group: c1

    Geometry (in Angstrom), charge = 0, multiplicity = 1:

       Center              X                  Y                   Z               Mass
    ------------   -----------------  -----------------  -----------------  -----------------
         O            1.185412941558    -1.322775498495    -0.011031872896    15.994914619570
         O           -3.787658058442    -0.176457498495    -0.030741872896    15.994914619570
         C            2.257772941558     0.831090501505     0.020761127104    12.000000000000
         C            3.579332341558     0.082661301505    -0.006288472896    12.000000000000
         C            1.074574541558    -0.108891998495     0.016831827104    12.000000000000
         C           -0.281185058442     0.543923501505     0.024054127104    12.000000000000
         C           -1.408723058442    -0.188748498495     0.001280127104    12.000000000000
         C           -2.733174058442     0.450515501505    -0.006690872896    12.000000000000
         H            2.176654941558     1.476976501505     0.905308127104     1.007825032230
         H            2.158272941558     1.509064501505    -0.839226872896     1.007825032230
         H            3.679644941558    -0.559476498495     0.862251127104     1.007825032230
         H            3.661107941558    -0.529918498495    -0.897769872896     1.007825032230
         H            4.417437941558     0.802488501505    -0.003112872896     1.007825032230
         H           -0.333825058442     1.633287501505     0.041454127104     1.007825032230
         H           -1.361142058442    -1.275174498495    -0.016322872896     1.007825032230
         H           -2.729939058442     1.560121501505     0.015678127104     1.007825032230

  Basis Set: AUG-CC-PVTZ
    Blend: AUG-CC-PVTZ
  Basis Set: (AUG-CC-PVTZ AUX)
    Blend: AUG-CC-PVTZ-JKFIT
	 Reference Energy          =    -381.7039062217950232 [Eh]
	 Singles Energy            =      -0.0000000000000000 [Eh]
	 Same-Spin Energy          =      -0.3770596592862752 [Eh]
	 Opposite-Spin Energy      =      -1.2230775797820324 [Eh]
	 Correlation Energy        =      -1.6001372390683075 [Eh]
	 Total Energy              =    -383.3040434608633404 [Eh]

	 ================> DF-SCS-MP2 Energies <==================
	-----------------------------------------------------------
	 SCS Same-Spin Scale       =       0.3333333333333333 [-]
	 SCS Opposite-Spin Scale   =       1.2000000000000000 [-]
	 SCS Same-Spin Energy      =      -0.1256865530954251 [Eh]
	 SCS Opposite-Spin Energy  =      -1.4676930957384389 [Eh]
	 SCS Correlation Energy    =      -1.5933796488338638 [Eh]
	 SCS Total Energy          =    -383.2972858706289117 [Eh]
	-----------------------------------------------------------

  Dipole Moment: [D]
     X:     2.8090      Y:     3.4771      Z:     0.0898     Total:     4.4708

*** Psi4 exiting successfully. Buy a developer a beer!
