                               Psi4 1.4a3.dev225

  ==> Input File <==

--------------------------------------------------------------------------
#psi4
#
memory 32 gb

molecule  {
0 1
  O        1.0820120     1.3681640     0.0000000
  O       -3.8882340     0.1997640    -0.0000030
  C        2.1679760    -0.7815440    -0.0000070
  C        3.4943680    -0.0370920     0.0000040
  C        0.9301212     0.1726150     0.0000002
  C       -0.3759970    -0.5069640     0.0000040
  C       -1.5077040     0.2230700     0.0000000
  C       -2.8299410    -0.4231870     0.0000020
  H        2.0818540    -1.4423830    -0.8738950
  H        2.0818510    -1.4424050     0.8738640
  H        3.5776630     0.6025590    -0.8807220
  H        3.5776700     0.6025230     0.8807550
  H        4.3292850    -0.7422630    -0.0000140
  H       -0.4236580    -1.5964830     0.0000100
  H       -1.4638710     1.3098110    -0.0000060
  H       -2.8215620    -1.5330200     0.0000110
units angstrom
no_reorient  #important for SAPT in psi4, default
symmetry c1  #important for SAPT in psi4, default
}

set PROPERTIES_ORIGIN ["COM"]
properties('MP2/aug-cc-pvtz', properties = ['dipole'])
--------------------------------------------------------------------------

    Molecular point group: c1
  Charge       = 0
  Multiplicity = 1
  Basis Set: AUG-CC-PVTZ
    Blend: AUG-CC-PVTZ
  Basis Set: (AUG-CC-PVTZ AUX)
    Blend: AUG-CC-PVTZ-JKFIT

    Orbital Energies [Eh]
    ---------------------

    Doubly Occupied:

       1A    -20.575949     2A    -20.565163     3A    -11.353018
       4A    -11.351004     5A    -11.282136     6A    -11.280330
       7A    -11.254265     8A    -11.225859     9A     -1.410783
      10A     -1.396238    11A     -1.117974    12A     -1.059531
      13A     -0.955208    14A     -0.874385    15A     -0.802436
      16A     -0.757876    17A     -0.698065    18A     -0.687046
      19A     -0.640537    20A     -0.637364    21A     -0.632657
      22A     -0.578631    23A     -0.558459    24A     -0.541865
      25A     -0.539989    26A     -0.526604    27A     -0.502800
      28A     -0.452517    29A     -0.428877    30A     -0.407141

  @DF-RHF Final Energy:  -381.70258490249057

   => Energetics <=

    Nuclear Repulsion Energy =            331.1036665338812668
    One-Electron Energy =               -1175.4230929336263216
    Two-Electron Energy =                 462.6168414972544269
    Total Energy =                       -381.7025849024905710
  Basis Set: (AUG-CC-PVTZ AUX)
    Blend: AUG-CC-PVTZ-RI
    Molecular point group: c1

    Geometry (in Angstrom), charge = 0, multiplicity = 1:

       Center              X                  Y                   Z               Mass
    ------------   -----------------  -----------------  -----------------  -----------------
         O            1.182987687019     1.327408093358     0.000000058555    15.994914619570
         O           -3.787258312981     0.159008093358    -0.000002941445    15.994914619570
         C            2.268951687019    -0.822299906642    -0.000006941445    12.000000000000
         C            3.595343687019    -0.077847906642     0.000004058555    12.000000000000
         C            1.031096887019     0.131859093358     0.000000258555    12.000000000000
         C           -0.275021312981    -0.547719906642     0.000004058555    12.000000000000
         C           -1.406728312981     0.182314093358     0.000000058555    12.000000000000
         C           -2.728965312981    -0.463942906642     0.000002058555    12.000000000000
         H            2.182829687019    -1.483138906642    -0.873894941445     1.007825032230
         H            2.182826687019    -1.483160906642     0.873864058555     1.007825032230
         H            3.678638687019     0.561803093358    -0.880721941445     1.007825032230
         H            3.678645687019     0.561767093358     0.880755058555     1.007825032230
         H            4.430260687019    -0.783018906642    -0.000013941445     1.007825032230
         H           -0.322682312981    -1.637238906642     0.000010058555     1.007825032230
         H           -1.362895312981     1.269055093358    -0.000005941445     1.007825032230
         H           -2.720586312981    -1.573775906642     0.000011058555     1.007825032230

  Basis Set: AUG-CC-PVTZ
    Blend: AUG-CC-PVTZ
  Basis Set: (AUG-CC-PVTZ AUX)
    Blend: AUG-CC-PVTZ-JKFIT
	 Reference Energy          =    -381.7025849024905710 [Eh]
	 Singles Energy            =      -0.0000000000000000 [Eh]
	 Same-Spin Energy          =      -0.3767427596975456 [Eh]
	 Opposite-Spin Energy      =      -1.2225801347817551 [Eh]
	 Correlation Energy        =      -1.5993228944793008 [Eh]
	 Total Energy              =    -383.3019077969698856 [Eh]

	 ================> DF-SCS-MP2 Energies <==================
	-----------------------------------------------------------
	 SCS Same-Spin Scale       =       0.3333333333333333 [-]
	 SCS Opposite-Spin Scale   =       1.2000000000000000 [-]
	 SCS Same-Spin Energy      =      -0.1255809198991819 [Eh]
	 SCS Opposite-Spin Energy  =      -1.4670961617381060 [Eh]
	 SCS Correlation Energy    =      -1.5926770816372877 [Eh]
	 SCS Total Energy          =    -383.2952619841278761 [Eh]
	-----------------------------------------------------------

  Dipole Moment: [D]
     X:     2.4726      Y:    -3.3715      Z:     0.0000     Total:     4.1810

*** Psi4 exiting successfully. Buy a developer a beer!
