                               Psi4 1.3.2 release

  ==> Input File <==

--------------------------------------------------------------------------
#psi4
#
memory 32 gb

molecule  {
0 1
  O        1.1855920    -1.3251230    -0.0110750
  O       -3.7874790    -0.1788050    -0.0307850
  C        2.2579520     0.8287430     0.0207180
  C        3.5859950     0.0918750    -0.0061980
  C        1.0665970    -0.1008810     0.0170560
  C       -0.2441933     0.4815607     0.0233600
  C       -1.4085440    -0.1910960     0.0012370
  C       -2.7329950     0.4481680    -0.0067340
  H        2.1768340     1.4746290     0.9052650
  H        2.1584520     1.5067170    -0.8392700
  H        3.6798240    -0.5618240     0.8622080
  H        3.6612870    -0.5322660    -0.8978130
  H        4.4176170     0.8001410    -0.0031560
  H       -0.3336460     1.6309400     0.0414110
  H       -1.3041641    -1.2735520    -0.0157660
  H       -2.7297600     1.5577740     0.0156350
units angstrom
no_reorient  #important for SAPT in psi4, default
symmetry c1  #important for SAPT in psi4, default
}

set PROPERTIES_ORIGIN ["COM"]
properties('MP2/aug-cc-pvtz', properties = ['dipole'])
--------------------------------------------------------------------------

    Molecular point group: c1
  Charge       = 0
  Multiplicity = 1
  Basis Set: AUG-CC-PVTZ
    Blend: AUG-CC-PVTZ
  Basis Set: (AUG-CC-PVTZ AUX)
    Blend: AUG-CC-PVTZ-JKFIT

    Orbital Energies [Eh]
    ---------------------

    Doubly Occupied:

       1A    -20.577603     2A    -20.562707     3A    -11.355655
       4A    -11.349364     5A    -11.282498     6A    -11.279289
       7A    -11.256985     8A    -11.228175     9A     -1.398358
      10A     -1.396029    11A     -1.116895    12A     -1.070541
      13A     -0.962463    14A     -0.881629    15A     -0.804136
      16A     -0.753964    17A     -0.698452    18A     -0.685421
      19A     -0.646638    20A     -0.641798    21A     -0.631109
      22A     -0.557624    23A     -0.557219    24A     -0.539920
      25A     -0.538195    26A     -0.528856    27A     -0.502392
      28A     -0.454361    29A     -0.440844    30A     -0.403566

  @DF-RHF Final Energy:  -381.69525865474509

   => Energetics <=

    Nuclear Repulsion Energy =            331.8955695963737185
    One-Electron Energy =               -1176.9762845652255692
    Two-Electron Energy =                 463.3854563141068184
    Total Energy =                       -381.6952586547450892
  Basis Set: (AUG-CC-PVTZ AUX)
    Blend: AUG-CC-PVTZ-RI
    Molecular point group: c1

    Geometry (in Angstrom), charge = 0, multiplicity = 1:

       Center              X                  Y                   Z               Mass
    ------------   -----------------  -----------------  -----------------  -----------------
         O            1.181138873112    -1.318731443970    -0.011010485542    15.994914619570
         O           -3.791932126888    -0.172413443970    -0.030720485542    15.994914619570
         C            2.253498873112     0.835134556030     0.020782514458    12.000000000000
         C            3.581541873112     0.098266556030    -0.006133485542    12.000000000000
         C            1.062143873112    -0.094489443970     0.017120514458    12.000000000000
         C           -0.248646426888     0.487952256030     0.023424514458    12.000000000000
         C           -1.412997126888    -0.184704443970     0.001301514458    12.000000000000
         C           -2.737448126888     0.454559556030    -0.006669485542    12.000000000000
         H            2.172380873112     1.481020556030     0.905329514458     1.007825032230
         H            2.153998873112     1.513108556030    -0.839205485542     1.007825032230
         H            3.675370873112    -0.555432443970     0.862272514458     1.007825032230
         H            3.656833873112    -0.525874443970    -0.897748485542     1.007825032230
         H            4.413163873112     0.806532556030    -0.003091485542     1.007825032230
         H           -0.338099126888     1.637331556030     0.041475514458     1.007825032230
         H           -1.308617226888    -1.267160443970    -0.015701485542     1.007825032230
         H           -2.734213126888     1.564165556030     0.015699514458     1.007825032230

  Basis Set: AUG-CC-PVTZ
    Blend: AUG-CC-PVTZ
  Basis Set: (AUG-CC-PVTZ AUX)
    Blend: AUG-CC-PVTZ-JKFIT
	 Reference Energy          =    -381.6952586547450892 [Eh]
	 Singles Energy            =      -0.0000000000000000 [Eh]
	 Same-Spin Energy          =      -0.3782274392113945 [Eh]
	 Opposite-Spin Energy      =      -1.2251599252002685 [Eh]
	 Correlation Energy        =      -1.6033873644116630 [Eh]
	 Total Energy              =    -383.2986460191567630 [Eh]

	 ================> DF-SCS-MP2 Energies <==================
	-----------------------------------------------------------
	 SCS Same-Spin Scale       =       0.3333333333333333 [-]
	 SCS Opposite-Spin Scale   =       1.2000000000000000 [-]
	 SCS Same-Spin Energy      =      -0.1260758130704648 [Eh]
	 SCS Opposite-Spin Energy  =      -1.4701919102403223 [Eh]
	 SCS Correlation Energy    =      -1.5962677233107871 [Eh]
	 SCS Total Energy          =    -383.2915263780558917 [Eh]
	-----------------------------------------------------------

  Dipole Moment: [D]
     X:     2.6589      Y:     3.4891      Z:     0.0888     Total:     4.3876

*** Psi4 exiting successfully. Buy a developer a beer!
