                               Psi4 1.3.2 release

  ==> Input File <==

--------------------------------------------------------------------------
#psi4
#
memory 32 gb

molecule  {
0 1
  O        1.1855920    -1.3251230    -0.0110750
  O       -3.7874790    -0.1788050    -0.0307850
  C        2.2579520     0.8287430     0.0207180
  C        3.5859950     0.0918750    -0.0061980
  C        1.0551796    -0.1242951     0.0164653
  C       -0.2810060     0.5415760     0.0240110
  C       -1.3955799    -0.2106596     0.0008688
  C       -2.7329950     0.4481680    -0.0067340
  H        2.1768340     1.4746290     0.9052650
  H        2.1584520     1.5067170    -0.8392700
  H        3.6798240    -0.5618240     0.8622080
  H        3.6612870    -0.5322660    -0.8978130
  H        4.4176170     0.8001410    -0.0031560
  H       -0.3336460     1.6309400     0.0414110
  H       -1.3609630    -1.2775220    -0.0163660
  H       -2.7297600     1.5577740     0.0156350
units angstrom
no_reorient  #important for SAPT in psi4, default
symmetry c1  #important for SAPT in psi4, default
}

set PROPERTIES_ORIGIN ["COM"]
properties('MP2/aug-cc-pvtz', properties = ['dipole'])
--------------------------------------------------------------------------

    Molecular point group: c1
  Charge       = 0
  Multiplicity = 1
  Basis Set: AUG-CC-PVTZ
    Blend: AUG-CC-PVTZ
  Basis Set: (AUG-CC-PVTZ AUX)
    Blend: AUG-CC-PVTZ-JKFIT

    Orbital Energies [Eh]
    ---------------------

    Doubly Occupied:

       1A    -20.574148     2A    -20.564507     3A    -11.352707
       4A    -11.351000     5A    -11.280526     6A    -11.277727
       7A    -11.254804     8A    -11.226588     9A     -1.408659
      10A     -1.395114    11A     -1.113681    12A     -1.064963
      13A     -0.950263    14A     -0.874386    15A     -0.803555
      16A     -0.755873    17A     -0.697559    18A     -0.685003
      19A     -0.643583    20A     -0.638884    21A     -0.630746
      22A     -0.582028    23A     -0.556075    24A     -0.542920
      25A     -0.538764    26A     -0.528039    27A     -0.503385
      28A     -0.450774    29A     -0.430104    30A     -0.405833

  @DF-RHF Final Energy:  -381.70435117527688

   => Energetics <=

    Nuclear Repulsion Energy =            331.2274151621346050
    One-Electron Energy =               -1175.6991347895332183
    Two-Electron Energy =                 462.7673684521217865
    Total Energy =                       -381.7043511752768836
  Basis Set: (AUG-CC-PVTZ AUX)
    Blend: AUG-CC-PVTZ-RI
    Molecular point group: c1

    Geometry (in Angstrom), charge = 0, multiplicity = 1:

       Center              X                  Y                   Z               Mass
    ------------   -----------------  -----------------  -----------------  -----------------
         O            1.185426467369    -1.320520339896    -0.010972115156    15.994914619570
         O           -3.787644532631    -0.174202339896    -0.030682115156    15.994914619570
         C            2.257786467369     0.833345660104     0.020820884844    12.000000000000
         C            3.585829467369     0.096477660104    -0.006095115156    12.000000000000
         C            1.055014067369    -0.119692439896     0.016568184844    12.000000000000
         C           -0.281171532631     0.546178660104     0.024113884844    12.000000000000
         C           -1.395745432631    -0.206056939896     0.000971684844    12.000000000000
         C           -2.733160532631     0.452770660104    -0.006631115156    12.000000000000
         H            2.176668467369     1.479231660104     0.905367884844     1.007825032230
         H            2.158286467369     1.511319660104    -0.839167115156     1.007825032230
         H            3.679658467369    -0.557221339896     0.862310884844     1.007825032230
         H            3.661121467369    -0.527663339896    -0.897710115156     1.007825032230
         H            4.417451467369     0.804743660104    -0.003053115156     1.007825032230
         H           -0.333811532631     1.635542660104     0.041513884844     1.007825032230
         H           -1.361128532631    -1.272919339896    -0.016263115156     1.007825032230
         H           -2.729925532631     1.562376660104     0.015737884844     1.007825032230

  Basis Set: AUG-CC-PVTZ
    Blend: AUG-CC-PVTZ
  Basis Set: (AUG-CC-PVTZ AUX)
    Blend: AUG-CC-PVTZ-JKFIT
	 Reference Energy          =    -381.7043511752768836 [Eh]
	 Singles Energy            =      -0.0000000000000000 [Eh]
	 Same-Spin Energy          =      -0.3765221999946999 [Eh]
	 Opposite-Spin Energy      =      -1.2221402679682516 [Eh]
	 Correlation Energy        =      -1.5986624679629515 [Eh]
	 Total Energy              =    -383.3030136432398081 [Eh]

	 ================> DF-SCS-MP2 Energies <==================
	-----------------------------------------------------------
	 SCS Same-Spin Scale       =       0.3333333333333333 [-]
	 SCS Opposite-Spin Scale   =       1.2000000000000000 [-]
	 SCS Same-Spin Energy      =      -0.1255073999982333 [Eh]
	 SCS Opposite-Spin Energy  =      -1.4665683215619019 [Eh]
	 SCS Correlation Energy    =      -1.5920757215601351 [Eh]
	 SCS Total Energy          =    -383.2964268968370334 [Eh]
	-----------------------------------------------------------

  Dipole Moment: [D]
     X:     2.6042      Y:     3.4268      Z:     0.0888     Total:     4.3050

*** Psi4 exiting successfully. Buy a developer a beer!
