                               Psi4 1.3.2 release

  ==> Input File <==

--------------------------------------------------------------------------
#psi4
#
memory 32 gb

molecule  {
0 1
  O        1.1855920    -1.3251230    -0.0110750
  O       -3.7874790    -0.1788050    -0.0307850
  C        2.2579520     0.8287430     0.0207180
  C        3.5859950     0.0918750    -0.0061980
  C        1.0665970    -0.1008810     0.0170560
  C       -0.2810060     0.5415760     0.0240110
  C       -1.4085440    -0.1910960     0.0012370
  C       -2.5528806     0.3612334    -0.0056500
  H        2.1768340     1.4746290     0.9052650
  H        2.1584520     1.5067170    -0.8392700
  H        3.6798240    -0.5618240     0.8622080
  H        3.6612870    -0.5322660    -0.8978130
  H        4.4176170     0.8001410    -0.0031560
  H       -0.3336460     1.6309400     0.0414110
  H       -1.3609630    -1.2775220    -0.0163660
  H       -2.7297600     1.5577740     0.0156350
units angstrom
no_reorient  #important for SAPT in psi4, default
symmetry c1  #important for SAPT in psi4, default
}

set PROPERTIES_ORIGIN ["COM"]
properties('MP2/aug-cc-pvtz', properties = ['dipole'])
--------------------------------------------------------------------------

    Molecular point group: c1
  Charge       = 0
  Multiplicity = 1
  Basis Set: AUG-CC-PVTZ
    Blend: AUG-CC-PVTZ
  Basis Set: (AUG-CC-PVTZ AUX)
    Blend: AUG-CC-PVTZ-JKFIT

    Orbital Energies [Eh]
    ---------------------

    Doubly Occupied:

       1A    -20.580710     2A    -20.558405     3A    -11.366759
       4A    -11.346110     5A    -11.310419     6A    -11.268160
       7A    -11.266778     8A    -11.235686     9A     -1.409225
      10A     -1.316483    11A     -1.155392    12A     -1.084720
      13A     -0.990552    14A     -0.896972    15A     -0.788950
      16A     -0.773994    17A     -0.700651    18A     -0.692594
      19A     -0.655665    20A     -0.644821    21A     -0.604618
      22A     -0.560662    23A     -0.559052    24A     -0.549195
      25A     -0.537083    26A     -0.524942    27A     -0.508311
      28A     -0.453300    29A     -0.434656    30A     -0.396171

  @DF-RHF Final Energy:  -381.62719855896188

   => Energetics <=

    Nuclear Repulsion Energy =            332.7139410584207440
    One-Electron Energy =               -1178.3402110501533571
    Two-Electron Energy =                 463.9990714327707906
    Total Energy =                       -381.6271985589618794
  Basis Set: (AUG-CC-PVTZ AUX)
    Blend: AUG-CC-PVTZ-RI
    Molecular point group: c1

    Geometry (in Angstrom), charge = 0, multiplicity = 1:

       Center              X                  Y                   Z               Mass
    ------------   -----------------  -----------------  -----------------  -----------------
         O            1.166303165807    -1.315812875699    -0.011190894884    15.994914619570
         O           -3.806767834193    -0.169494875699    -0.030900894884    15.994914619570
         C            2.238663165807     0.838053124301     0.020602105116    12.000000000000
         C            3.566706165807     0.101185124301    -0.006313894884    12.000000000000
         C            1.047308165807    -0.091570875699     0.016940105116    12.000000000000
         C           -0.300294834193     0.550886124301     0.023895105116    12.000000000000
         C           -1.427832834193    -0.181785875699     0.001121105116    12.000000000000
         C           -2.572169434193     0.370543524301    -0.005765894884    12.000000000000
         H            2.157545165807     1.483939124301     0.905149105116     1.007825032230
         H            2.139163165807     1.516027124301    -0.839385894884     1.007825032230
         H            3.660535165807    -0.552513875699     0.862092105116     1.007825032230
         H            3.641998165807    -0.522955875699    -0.897928894884     1.007825032230
         H            4.398328165807     0.809451124301    -0.003271894884     1.007825032230
         H           -0.352934834193     1.640250124301     0.041295105116     1.007825032230
         H           -1.380251834193    -1.268211875699    -0.016481894884     1.007825032230
         H           -2.749048834193     1.567084124301     0.015519105116     1.007825032230

  Basis Set: AUG-CC-PVTZ
    Blend: AUG-CC-PVTZ
  Basis Set: (AUG-CC-PVTZ AUX)
    Blend: AUG-CC-PVTZ-JKFIT
	 Reference Energy          =    -381.6271985589618794 [Eh]
	 Singles Energy            =      -0.0000000000000000 [Eh]
	 Same-Spin Energy          =      -0.3851250513854290 [Eh]
	 Opposite-Spin Energy      =      -1.2383589881453068 [Eh]
	 Correlation Energy        =      -1.6234840395307357 [Eh]
	 Total Energy              =    -383.2506825984926309 [Eh]

	 ================> DF-SCS-MP2 Energies <==================
	-----------------------------------------------------------
	 SCS Same-Spin Scale       =       0.3333333333333333 [-]
	 SCS Opposite-Spin Scale   =       1.2000000000000000 [-]
	 SCS Same-Spin Energy      =      -0.1283750171284763 [Eh]
	 SCS Opposite-Spin Energy  =      -1.4860307857743680 [Eh]
	 SCS Correlation Energy    =      -1.6144058029028443 [Eh]
	 SCS Total Energy          =    -383.2416043618647450 [Eh]
	-----------------------------------------------------------

  Dipole Moment: [D]
     X:     3.6971      Y:     3.2813      Z:     0.0968     Total:     4.9441

*** Psi4 exiting successfully. Buy a developer a beer!
