                               Psi4 1.3.2 release

  ==> Input File <==

--------------------------------------------------------------------------
#psi4
#
memory 32 gb

molecule  {
0 1
  O        1.1855920    -1.3251230    -0.0110750
  O       -3.7874790    -0.1788050    -0.0307850
  C        2.2579520     0.8287430     0.0207180
  C        3.5859950     0.0918750    -0.0061980
  C        1.0665970    -0.1008810     0.0170560
  C       -0.2810060     0.5415760     0.0240110
  C       -1.4030191    -0.1795165     0.0015568
  C       -2.7329950     0.4481680    -0.0067340
  H        2.1768340     1.4746290     0.9052650
  H        2.1584520     1.5067170    -0.8392700
  H        3.6798240    -0.5618240     0.8622080
  H        3.6612870    -0.5322660    -0.8978130
  H        4.4176170     0.8001410    -0.0031560
  H       -0.3336460     1.6309400     0.0414110
  H       -1.3609630    -1.2775220    -0.0163660
  H       -2.7200763     1.5577005     0.0157858
units angstrom
no_reorient  #important for SAPT in psi4, default
symmetry c1  #important for SAPT in psi4, default
}

set PROPERTIES_ORIGIN ["COM"]
properties('MP2/aug-cc-pvtz', properties = ['dipole'])
--------------------------------------------------------------------------

    Molecular point group: c1
  Charge       = 0
  Multiplicity = 1
  Basis Set: AUG-CC-PVTZ
    Blend: AUG-CC-PVTZ
  Basis Set: (AUG-CC-PVTZ AUX)
    Blend: AUG-CC-PVTZ-JKFIT

    Orbital Energies [Eh]
    ---------------------

    Doubly Occupied:

       1A    -20.574816     2A    -20.564259     3A    -11.354119
       4A    -11.351709     5A    -11.280749     6A    -11.276801
       7A    -11.257138     8A    -11.228335     9A     -1.395830
      10A     -1.394328    11A     -1.117078    12A     -1.070681
      13A     -0.954882    14A     -0.880090    15A     -0.799739
      16A     -0.756876    17A     -0.696488    18A     -0.686605
      19A     -0.646228    20A     -0.637547    21A     -0.630435
      22A     -0.570356    23A     -0.555231    24A     -0.544163
      25A     -0.536678    26A     -0.528927    27A     -0.502195
      28A     -0.451643    29A     -0.435923    30A     -0.407089

  @DF-RHF Final Energy:  -381.70300804180795

   => Energetics <=

    Nuclear Repulsion Energy =            331.2629160026976933
    One-Electron Energy =               -1175.7579731996445389
    Two-Electron Energy =                 462.7920491551388977
    Total Energy =                       -381.7030080418079478
  Basis Set: (AUG-CC-PVTZ AUX)
    Blend: AUG-CC-PVTZ-RI
    Molecular point group: c1

    Geometry (in Angstrom), charge = 0, multiplicity = 1:

       Center              X                  Y                   Z               Mass
    ------------   -----------------  -----------------  -----------------  -----------------
         O            1.184913333691    -1.326362358028    -0.011110410953    15.994914619570
         O           -3.788157666309    -0.180044358028    -0.030820410953    15.994914619570
         C            2.257273333691     0.827503641972     0.020682589047    12.000000000000
         C            3.585316333691     0.090635641972    -0.006233410953    12.000000000000
         C            1.065918333691    -0.102120358028     0.017020589047    12.000000000000
         C           -0.281684666309     0.540336641972     0.023975589047    12.000000000000
         C           -1.403697766309    -0.180755858028     0.001521389047    12.000000000000
         C           -2.733673666309     0.446928641972    -0.006769410953    12.000000000000
         H            2.176155333691     1.473389641972     0.905229589047     1.007825032230
         H            2.157773333691     1.505477641972    -0.839305410953     1.007825032230
         H            3.679145333691    -0.563063358028     0.862172589047     1.007825032230
         H            3.660608333691    -0.533505358028    -0.897848410953     1.007825032230
         H            4.416938333691     0.798901641972    -0.003191410953     1.007825032230
         H           -0.334324666309     1.629700641972     0.041375589047     1.007825032230
         H           -1.361641666309    -1.278761358028    -0.016401410953     1.007825032230
         H           -2.720754966309     1.556461141972     0.015750389047     1.007825032230

  Basis Set: AUG-CC-PVTZ
    Blend: AUG-CC-PVTZ
  Basis Set: (AUG-CC-PVTZ AUX)
    Blend: AUG-CC-PVTZ-JKFIT
	 Reference Energy          =    -381.7030080418079478 [Eh]
	 Singles Energy            =      -0.0000000000000000 [Eh]
	 Same-Spin Energy          =      -0.3773740460275664 [Eh]
	 Opposite-Spin Energy      =      -1.2236816986775119 [Eh]
	 Correlation Energy        =      -1.6010557447050782 [Eh]
	 Total Energy              =    -383.3040637865130407 [Eh]

	 ================> DF-SCS-MP2 Energies <==================
	-----------------------------------------------------------
	 SCS Same-Spin Scale       =       0.3333333333333333 [-]
	 SCS Opposite-Spin Scale   =       1.2000000000000000 [-]
	 SCS Same-Spin Energy      =      -0.1257913486758555 [Eh]
	 SCS Opposite-Spin Energy  =      -1.4684180384130141 [Eh]
	 SCS Correlation Energy    =      -1.5942093870888696 [Eh]
	 SCS Total Energy          =    -383.2972174288968290 [Eh]
	-----------------------------------------------------------

  Dipole Moment: [D]
     X:     2.7514      Y:     3.5105      Z:     0.0900     Total:     4.4611

*** Psi4 exiting successfully. Buy a developer a beer!
