                               Psi4 1.3.2 release

  ==> Input File <==

--------------------------------------------------------------------------
#psi4
#
memory 32 gb

molecule  {
0 1
  O        1.2282521    -1.3202122    -0.0115578
  O       -3.7874790    -0.1788050    -0.0307850
  C        2.2896618     0.7866145     0.0193686
  C        3.5859950     0.0918750    -0.0061980
  C        1.0665970    -0.1008810     0.0170560
  C       -0.2810060     0.5415760     0.0240110
  C       -1.4085440    -0.1910960     0.0012370
  C       -2.7329950     0.4481680    -0.0067340
  H        2.1768340     1.4746290     0.9052650
  H        2.1584520     1.5067170    -0.8392700
  H        3.6798240    -0.5618240     0.8622080
  H        3.6612870    -0.5322660    -0.8978130
  H        4.4176170     0.8001410    -0.0031560
  H       -0.3336460     1.6309400     0.0414110
  H       -1.3609630    -1.2775220    -0.0163660
  H       -2.7297600     1.5577740     0.0156350
units angstrom
no_reorient  #important for SAPT in psi4, default
symmetry c1  #important for SAPT in psi4, default
}

set PROPERTIES_ORIGIN ["COM"]
properties('MP2/aug-cc-pvtz', properties = ['dipole'])
--------------------------------------------------------------------------

    Molecular point group: c1
  Charge       = 0
  Multiplicity = 1
  Basis Set: AUG-CC-PVTZ
    Blend: AUG-CC-PVTZ
  Basis Set: (AUG-CC-PVTZ AUX)
    Blend: AUG-CC-PVTZ-JKFIT

    Orbital Energies [Eh]
    ---------------------

    Doubly Occupied:

       1A    -20.575594     2A    -20.562063     3A    -11.353332
       4A    -11.352879     5A    -11.285578     6A    -11.280379
       7A    -11.258136     8A    -11.224868     9A     -1.396823
      10A     -1.393877    11A     -1.116634    12A     -1.074520
      13A     -0.957472    14A     -0.878353    15A     -0.801880
      16A     -0.754325    17A     -0.697005    18A     -0.687860
      19A     -0.641430    20A     -0.638442    21A     -0.630385
      22A     -0.575666    23A     -0.556106    24A     -0.555599
      25A     -0.536093    26A     -0.526781    27A     -0.489831
      28A     -0.452415    29A     -0.434677    30A     -0.406841

  @DF-RHF Final Energy:  -381.69868320518049

   => Energetics <=

    Nuclear Repulsion Energy =            331.3738660044479047
    One-Electron Energy =               -1175.9534132629619307
    Two-Electron Energy =                 462.8808640533335392
    Total Energy =                       -381.6986832051804868
  Basis Set: (AUG-CC-PVTZ AUX)
    Blend: AUG-CC-PVTZ-RI
    Molecular point group: c1

    Geometry (in Angstrom), charge = 0, multiplicity = 1:

       Center              X                  Y                   Z               Mass
    ------------   -----------------  -----------------  -----------------  -----------------
         O            1.218766806416    -1.316401474770    -0.011344178202    15.994914619570
         O           -3.796964293584    -0.174994274770    -0.030571378202    15.994914619570
         C            2.280176506416     0.790425225230     0.019582221798    12.000000000000
         C            3.576509706416     0.095685725230    -0.005984378202    12.000000000000
         C            1.057111706416    -0.097070274770     0.017269621798    12.000000000000
         C           -0.290491293584     0.545386725230     0.024224621798    12.000000000000
         C           -1.418029293584    -0.187285274770     0.001450621798    12.000000000000
         C           -2.742480293584     0.451978725230    -0.006520378202    12.000000000000
         H            2.167348706416     1.478439725230     0.905478621798     1.007825032230
         H            2.148966706416     1.510527725230    -0.839056378202     1.007825032230
         H            3.670338706416    -0.558013274770     0.862421621798     1.007825032230
         H            3.651801706416    -0.528455274770    -0.897599378202     1.007825032230
         H            4.408131706416     0.803951725230    -0.002942378202     1.007825032230
         H           -0.343131293584     1.634750725230     0.041624621798     1.007825032230
         H           -1.370448293584    -1.273711274770    -0.016152378202     1.007825032230
         H           -2.739245293584     1.561584725230     0.015848621798     1.007825032230

  Basis Set: AUG-CC-PVTZ
    Blend: AUG-CC-PVTZ
  Basis Set: (AUG-CC-PVTZ AUX)
    Blend: AUG-CC-PVTZ-JKFIT
	 Reference Energy          =    -381.6986832051804868 [Eh]
	 Singles Energy            =      -0.0000000000000000 [Eh]
	 Same-Spin Energy          =      -0.3778759529511576 [Eh]
	 Opposite-Spin Energy      =      -1.2243286037781353 [Eh]
	 Correlation Energy        =      -1.6022045567292929 [Eh]
	 Total Energy              =    -383.3008877619097916 [Eh]

	 ================> DF-SCS-MP2 Energies <==================
	-----------------------------------------------------------
	 SCS Same-Spin Scale       =       0.3333333333333333 [-]
	 SCS Opposite-Spin Scale   =       1.2000000000000000 [-]
	 SCS Same-Spin Energy      =      -0.1259586509837192 [Eh]
	 SCS Opposite-Spin Energy  =      -1.4691943245337624 [Eh]
	 SCS Correlation Energy    =      -1.5951529755174816 [Eh]
	 SCS Total Energy          =    -383.2938361806979515 [Eh]
	-----------------------------------------------------------

  Dipole Moment: [D]
     X:     2.6279      Y:     3.4998      Z:     0.0898     Total:     4.3774

*** Psi4 exiting successfully. Buy a developer a beer!
