                               Psi4 1.3.2 release

  ==> Input File <==

--------------------------------------------------------------------------
#psi4
#
memory 32 gb

molecule  {
0 1
  O        1.1855920    -1.3251230    -0.0110750
  O       -3.7874790    -0.1788050    -0.0307850
  C        2.2579520     0.8287430     0.0207180
  C        3.5859950     0.0918750    -0.0061980
  C        1.0665970    -0.1008810     0.0170560
  C       -0.2683878     0.5217843     0.0239154
  C       -1.4085440    -0.1910960     0.0012370
  C       -2.7439465     0.4249576    -0.0071567
  H        2.1768340     1.4746290     0.9052650
  H        2.1584520     1.5067170    -0.8392700
  H        3.6798240    -0.5618240     0.8622080
  H        3.6612870    -0.5322660    -0.8978130
  H        4.4176170     0.8001410    -0.0031560
  H       -0.3336460     1.6309400     0.0414110
  H       -1.3609630    -1.2775220    -0.0163660
  H       -2.7297600     1.5577740     0.0156350
units angstrom
no_reorient  #important for SAPT in psi4, default
symmetry c1  #important for SAPT in psi4, default
}

set PROPERTIES_ORIGIN ["COM"]
properties('MP2/aug-cc-pvtz', properties = ['dipole'])
--------------------------------------------------------------------------

    Molecular point group: c1
  Charge       = 0
  Multiplicity = 1
  Basis Set: AUG-CC-PVTZ
    Blend: AUG-CC-PVTZ
  Basis Set: (AUG-CC-PVTZ AUX)
    Blend: AUG-CC-PVTZ-JKFIT

    Orbital Energies [Eh]
    ---------------------

    Doubly Occupied:

       1A    -20.575950     2A    -20.563204     3A    -11.352253
       4A    -11.351567     5A    -11.282420     6A    -11.277680
       7A    -11.256809     8A    -11.228069     9A     -1.410680
      10A     -1.394604    11A     -1.114637    12A     -1.070078
      13A     -0.956870    14A     -0.878897    15A     -0.796969
      16A     -0.756452    17A     -0.696674    18A     -0.686390
      19A     -0.646062    20A     -0.642866    21A     -0.631752
      22A     -0.567831    23A     -0.561128    24A     -0.543376
      25A     -0.539704    26A     -0.528718    27A     -0.502044
      28A     -0.449159    29A     -0.436735    30A     -0.405234

  @DF-RHF Final Energy:  -381.70316493631157

   => Energetics <=

    Nuclear Repulsion Energy =            331.6037439406970293
    One-Electron Energy =               -1176.4041987873483777
    Two-Electron Energy =                 463.0972899103397253
    Total Energy =                       -381.7031649363115662
  Basis Set: (AUG-CC-PVTZ AUX)
    Blend: AUG-CC-PVTZ-RI
    Molecular point group: c1

    Geometry (in Angstrom), charge = 0, multiplicity = 1:

       Center              X                  Y                   Z               Mass
    ------------   -----------------  -----------------  -----------------  -----------------
         O            1.185413616242    -1.320517726833    -0.011019300210    15.994914619570
         O           -3.787657383758    -0.174199726833    -0.030729300210    15.994914619570
         C            2.257773616242     0.833348273167     0.020773699790    12.000000000000
         C            3.585816616242     0.096480273167    -0.006142300210    12.000000000000
         C            1.066418616242    -0.096275726833     0.017111699790    12.000000000000
         C           -0.268566183758     0.526389573167     0.023971099790    12.000000000000
         C           -1.408722383758    -0.186490726833     0.001292699790    12.000000000000
         C           -2.744124883758     0.429562873167    -0.007101000210    12.000000000000
         H            2.176655616242     1.479234273167     0.905320699790     1.007825032230
         H            2.158273616242     1.511322273167    -0.839214300210     1.007825032230
         H            3.679645616242    -0.557218726833     0.862263699790     1.007825032230
         H            3.661108616242    -0.527660726833    -0.897757300210     1.007825032230
         H            4.417438616242     0.804746273167    -0.003100300210     1.007825032230
         H           -0.333824383758     1.635545273167     0.041466699790     1.007825032230
         H           -1.361141383758    -1.272916726833    -0.016310300210     1.007825032230
         H           -2.729938383758     1.562379273167     0.015690699790     1.007825032230

  Basis Set: AUG-CC-PVTZ
    Blend: AUG-CC-PVTZ
  Basis Set: (AUG-CC-PVTZ AUX)
    Blend: AUG-CC-PVTZ-JKFIT
	 Reference Energy          =    -381.7031649363115662 [Eh]
	 Singles Energy            =      -0.0000000000000000 [Eh]
	 Same-Spin Energy          =      -0.3771136672177791 [Eh]
	 Opposite-Spin Energy      =      -1.2228865587455904 [Eh]
	 Correlation Energy        =      -1.6000002259633694 [Eh]
	 Total Energy              =    -383.3031651622749223 [Eh]

	 ================> DF-SCS-MP2 Energies <==================
	-----------------------------------------------------------
	 SCS Same-Spin Scale       =       0.3333333333333333 [-]
	 SCS Opposite-Spin Scale   =       1.2000000000000000 [-]
	 SCS Same-Spin Energy      =      -0.1257045557392597 [Eh]
	 SCS Opposite-Spin Energy  =      -1.4674638704947085 [Eh]
	 SCS Correlation Energy    =      -1.5931684262339683 [Eh]
	 SCS Total Energy          =    -383.2963333625455107 [Eh]
	-----------------------------------------------------------

  Dipole Moment: [D]
     X:     2.6652      Y:     3.4186      Z:     0.0873     Total:     4.3357

*** Psi4 exiting successfully. Buy a developer a beer!
