                               Psi4 1.3.2 release

  ==> Input File <==

--------------------------------------------------------------------------
#psi4
#
memory 32 gb

molecule  {
0 1
  O        1.1855920    -1.3251230    -0.0110750
  O       -3.7874790    -0.1788050    -0.0307850
  C        2.2579520     0.8287430     0.0207180
  C        3.5859950     0.0918750    -0.0061980
  C        1.0710009    -0.1063874     0.0059122
  C       -0.2810060     0.5415760     0.0240110
  C       -1.4085440    -0.1910960     0.0012370
  C       -2.7329950     0.4481680    -0.0067340
  H        2.1849995     1.4789879     0.9027791
  H        2.1584520     1.5067170    -0.8392700
  H        3.6798240    -0.5618240     0.8622080
  H        3.6612870    -0.5322660    -0.8978130
  H        4.4176170     0.8001410    -0.0031560
  H       -0.3336460     1.6309400     0.0414110
  H       -1.3609630    -1.2775220    -0.0163660
  H       -2.7297600     1.5577740     0.0156350
units angstrom
no_reorient  #important for SAPT in psi4, default
symmetry c1  #important for SAPT in psi4, default
}

set PROPERTIES_ORIGIN ["COM"]
properties('MP2/aug-cc-pvtz', properties = ['dipole'])
--------------------------------------------------------------------------

    Molecular point group: c1
  Charge       = 0
  Multiplicity = 1
  Basis Set: AUG-CC-PVTZ
    Blend: AUG-CC-PVTZ
  Basis Set: (AUG-CC-PVTZ AUX)
    Blend: AUG-CC-PVTZ-JKFIT

    Orbital Energies [Eh]
    ---------------------

    Doubly Occupied:

       1A    -20.573470     2A    -20.564866     3A    -11.353944
       4A    -11.350909     5A    -11.282025     6A    -11.277124
       7A    -11.256895     8A    -11.228258     9A     -1.399015
      10A     -1.394648    11A     -1.113963    12A     -1.070466
      13A     -0.953561    14A     -0.878694    15A     -0.800664
      16A     -0.756364    17A     -0.697138    18A     -0.685655
      19A     -0.646208    20A     -0.638302    21A     -0.630250
      22A     -0.573758    23A     -0.554857    24A     -0.544022
      25A     -0.537245    26A     -0.529178    27A     -0.502785
      28A     -0.451444    29A     -0.435154    30A     -0.404634

  @DF-RHF Final Energy:  -381.70364291468923

   => Energetics <=

    Nuclear Repulsion Energy =            331.1587952145379177
    One-Electron Energy =               -1175.5538771691713009
    Two-Electron Energy =                 462.6914390399441572
    Total Energy =                       -381.7036429146892260
  Basis Set: (AUG-CC-PVTZ AUX)
    Blend: AUG-CC-PVTZ-RI
    Molecular point group: c1

    Geometry (in Angstrom), charge = 0, multiplicity = 1:

       Center              X                  Y                   Z               Mass
    ------------   -----------------  -----------------  -----------------  -----------------
         O            1.185047039672    -1.324572448454    -0.009859027713    15.994914619570
         O           -3.788023960328    -0.178254448454    -0.029569027713    15.994914619570
         C            2.257407039672     0.829293551546     0.021933972287    12.000000000000
         C            3.585450039672     0.092425551546    -0.004982027713    12.000000000000
         C            1.070455939672    -0.105836848454     0.007128172287    12.000000000000
         C           -0.281550960328     0.542126551546     0.025226972287    12.000000000000
         C           -1.409088960328    -0.190545448454     0.002452972287    12.000000000000
         C           -2.733539960328     0.448718551546    -0.005518027713    12.000000000000
         H            2.184454539672     1.479538451546     0.903995072287     1.007825032230
         H            2.157907039672     1.507267551546    -0.838054027713     1.007825032230
         H            3.679279039672    -0.561273448454     0.863423972287     1.007825032230
         H            3.660742039672    -0.531715448454    -0.896597027713     1.007825032230
         H            4.417072039672     0.800691551546    -0.001940027713     1.007825032230
         H           -0.334190960328     1.631490551546     0.042626972287     1.007825032230
         H           -1.361507960328    -1.276971448454    -0.015150027713     1.007825032230
         H           -2.730304960328     1.558324551546     0.016850972287     1.007825032230

  Basis Set: AUG-CC-PVTZ
    Blend: AUG-CC-PVTZ
  Basis Set: (AUG-CC-PVTZ AUX)
    Blend: AUG-CC-PVTZ-JKFIT
	 Reference Energy          =    -381.7036429146892260 [Eh]
	 Singles Energy            =      -0.0000000000000000 [Eh]
	 Same-Spin Energy          =      -0.3772122244654399 [Eh]
	 Opposite-Spin Energy      =      -1.2234078466119918 [Eh]
	 Correlation Energy        =      -1.6006200710774316 [Eh]
	 Total Energy              =    -383.3042629857666839 [Eh]

	 ================> DF-SCS-MP2 Energies <==================
	-----------------------------------------------------------
	 SCS Same-Spin Scale       =       0.3333333333333333 [-]
	 SCS Opposite-Spin Scale   =       1.2000000000000000 [-]
	 SCS Same-Spin Energy      =      -0.1257374081551466 [Eh]
	 SCS Opposite-Spin Energy  =      -1.4680894159343900 [Eh]
	 SCS Correlation Energy    =      -1.5938268240895366 [Eh]
	 SCS Total Energy          =    -383.2974697387787728 [Eh]
	-----------------------------------------------------------

  Dipole Moment: [D]
     X:     2.7818      Y:     3.4977      Z:     0.0837     Total:     4.4698

*** Psi4 exiting successfully. Buy a developer a beer!
