                               Psi4 1.4a3.dev225

  ==> Input File <==

--------------------------------------------------------------------------
#psi4
#
memory 32 gb

molecule  {
0 1
  O        1.0820120     1.3681640     0.0000000
  O       -3.8882340     0.1997640    -0.0000030
  C        2.1679760    -0.7815440    -0.0000070
  C        3.4943680    -0.0370920     0.0000040
  C        0.9697220     0.1420900     0.0000000
  C       -0.3759970    -0.5069640     0.0000040
  C       -1.5077040     0.2230700     0.0000000
  C       -2.8127053    -0.4333326     0.0000021
  H        2.0818540    -1.4423830    -0.8738950
  H        2.0818510    -1.4424050     0.8738640
  H        3.5776630     0.6025590    -0.8807220
  H        3.5776700     0.6025230     0.8807550
  H        4.3292850    -0.7422630    -0.0000140
  H       -0.4236580    -1.5964830     0.0000100
  H       -1.4638710     1.3098110    -0.0000060
  H       -2.8215620    -1.5330200     0.0000110
units angstrom
no_reorient  #important for SAPT in psi4, default
symmetry c1  #important for SAPT in psi4, default
}

set PROPERTIES_ORIGIN ["COM"]
properties('MP2/aug-cc-pvtz', properties = ['dipole'])
--------------------------------------------------------------------------

    Molecular point group: c1
  Charge       = 0
  Multiplicity = 1
  Basis Set: AUG-CC-PVTZ
    Blend: AUG-CC-PVTZ
  Basis Set: (AUG-CC-PVTZ AUX)
    Blend: AUG-CC-PVTZ-JKFIT

    Orbital Energies [Eh]
    ---------------------

    Doubly Occupied:

       1A    -20.572905     2A    -20.565129     3A    -11.355089
       4A    -11.352198     5A    -11.284110     6A    -11.279031
       7A    -11.258102     8A    -11.229211     9A     -1.394886
      10A     -1.381110    11A     -1.116650    12A     -1.070619
      13A     -0.956525    14A     -0.880660    15A     -0.803662
      16A     -0.756864    17A     -0.697080    18A     -0.684956
      19A     -0.646548    20A     -0.636141    21A     -0.624753
      22A     -0.574942    23A     -0.551702    24A     -0.544129
      25A     -0.532611    26A     -0.529062    27A     -0.502651
      28A     -0.453289    29A     -0.436968    30A     -0.403877

  @DF-RHF Final Energy:  -381.69951787766780

   => Energetics <=

    Nuclear Repulsion Energy =            330.7746103131511859
    One-Electron Energy =               -1174.7973293421382550
    Two-Electron Energy =                 462.3232011513192106
    Total Energy =                       -381.6995178776678017
  Basis Set: (AUG-CC-PVTZ AUX)
    Blend: AUG-CC-PVTZ-RI
    Molecular point group: c1

    Geometry (in Angstrom), charge = 0, multiplicity = 1:

       Center              X                  Y                   Z               Mass
    ------------   -----------------  -----------------  -----------------  -----------------
         O            1.176900911363     1.331763618733     0.000000069265    15.994914619570
         O           -3.793345088637     0.163363618733    -0.000002930735    15.994914619570
         C            2.262864911363    -0.817944381267    -0.000006930735    12.000000000000
         C            3.589256911363    -0.073492381267     0.000004069265    12.000000000000
         C            1.064610911363     0.105689618733     0.000000069265    12.000000000000
         C           -0.281108088637    -0.543364381267     0.000004069265    12.000000000000
         C           -1.412815088637     0.186669618733     0.000000069265    12.000000000000
         C           -2.717816388637    -0.469732981267     0.000002169265    12.000000000000
         H            2.176742911363    -1.478783381267    -0.873894930735     1.007825032230
         H            2.176739911363    -1.478805381267     0.873864069265     1.007825032230
         H            3.672551911363     0.566158618733    -0.880721930735     1.007825032230
         H            3.672558911363     0.566122618733     0.880755069265     1.007825032230
         H            4.424173911363    -0.778663381267    -0.000013930735     1.007825032230
         H           -0.328769088637    -1.632883381267     0.000010069265     1.007825032230
         H           -1.368982088637     1.273410618733    -0.000005930735     1.007825032230
         H           -2.726673088637    -1.569420381267     0.000011069265     1.007825032230

  Basis Set: AUG-CC-PVTZ
    Blend: AUG-CC-PVTZ
  Basis Set: (AUG-CC-PVTZ AUX)
    Blend: AUG-CC-PVTZ-JKFIT
	 Reference Energy          =    -381.6995178776678017 [Eh]
	 Singles Energy            =      -0.0000000000000000 [Eh]
	 Same-Spin Energy          =      -0.3780788551506421 [Eh]
	 Opposite-Spin Energy      =      -1.2254473642440542 [Eh]
	 Correlation Energy        =      -1.6035262193946962 [Eh]
	 Total Energy              =    -383.3030440970625250 [Eh]

	 ================> DF-SCS-MP2 Energies <==================
	-----------------------------------------------------------
	 SCS Same-Spin Scale       =       0.3333333333333333 [-]
	 SCS Opposite-Spin Scale   =       1.2000000000000000 [-]
	 SCS Same-Spin Energy      =      -0.1260262850502140 [Eh]
	 SCS Opposite-Spin Energy  =      -1.4705368370928651 [Eh]
	 SCS Correlation Energy    =      -1.5965631221430792 [Eh]
	 SCS Total Energy          =    -383.2960809998108971 [Eh]
	-----------------------------------------------------------

  Dipole Moment: [D]
     X:     2.8677      Y:    -3.5417      Z:     0.0000     Total:     4.5571

*** Psi4 exiting successfully. Buy a developer a beer!
