                               Psi4 1.3.2 release

  ==> Input File <==

--------------------------------------------------------------------------
#psi4
#
memory 32 gb

molecule  {
0 1
  O        1.1855920    -1.3251230    -0.0110750
  O       -3.7874790    -0.1788050    -0.0307850
  C        2.2579520     0.8287430     0.0207180
  C        3.5859950     0.0918750    -0.0061980
  C        1.0665970    -0.1008810     0.0170560
  C       -0.4615376     0.6276427     0.0249427
  C       -1.4085440    -0.1910960     0.0012370
  C       -2.7329950     0.4481680    -0.0067340
  H        2.1768340     1.4746290     0.9052650
  H        2.1584520     1.5067170    -0.8392700
  H        3.6798240    -0.5618240     0.8622080
  H        3.6612870    -0.5322660    -0.8978130
  H        4.4176170     0.8001410    -0.0031560
  H       -0.3336460     1.6309400     0.0414110
  H       -1.3609630    -1.2775220    -0.0163660
  H       -2.7297600     1.5577740     0.0156350
units angstrom
no_reorient  #important for SAPT in psi4, default
symmetry c1  #important for SAPT in psi4, default
}

set PROPERTIES_ORIGIN ["COM"]
properties('MP2/aug-cc-pvtz', properties = ['dipole'])
--------------------------------------------------------------------------

    Molecular point group: c1
  Charge       = 0
  Multiplicity = 1
  Basis Set: AUG-CC-PVTZ
    Blend: AUG-CC-PVTZ
  Basis Set: (AUG-CC-PVTZ AUX)
    Blend: AUG-CC-PVTZ-JKFIT

    Orbital Energies [Eh]
    ---------------------

    Doubly Occupied:

       1A    -20.568177     2A    -20.564640     3A    -11.361587
       4A    -11.342810     5A    -11.274619     6A    -11.259737
       7A    -11.259155     8A    -11.229899     9A     -1.392978
      10A     -1.387643    11A     -1.132349    12A     -1.072001
      13A     -0.932553    14A     -0.874078    15A     -0.807742
      16A     -0.749193    17A     -0.704597    18A     -0.685061
      19A     -0.645766    20A     -0.636749    21A     -0.622985
      22A     -0.588121    23A     -0.552623    24A     -0.543037
      25A     -0.533808    26A     -0.526956    27A     -0.502513
      28A     -0.446315    29A     -0.426039    30A     -0.410770

  @DF-RHF Final Energy:  -381.66947161864942

   => Energetics <=

    Nuclear Repulsion Energy =            330.2837499178081089
    One-Electron Energy =               -1173.8374461236267052
    Two-Electron Energy =                 461.8842245871691716
    Total Energy =                       -381.6694716186494247
  Basis Set: (AUG-CC-PVTZ AUX)
    Blend: AUG-CC-PVTZ-RI
    Molecular point group: c1

    Geometry (in Angstrom), charge = 0, multiplicity = 1:

       Center              X                  Y                   Z               Mass
    ------------   -----------------  -----------------  -----------------  -----------------
         O            1.204925728651    -1.334340056317    -0.011174584662    15.994914619570
         O           -3.768145271349    -0.188022056317    -0.030884584662    15.994914619570
         C            2.277285728651     0.819525943683     0.020618415338    12.000000000000
         C            3.605328728651     0.082657943683    -0.006297584662    12.000000000000
         C            1.085930728651    -0.110098056317     0.016956415338    12.000000000000
         C           -0.442203871349     0.618425643683     0.024843115338    12.000000000000
         C           -1.389210271349    -0.200313056317     0.001137415338    12.000000000000
         C           -2.713661271349     0.438950943683    -0.006833584662    12.000000000000
         H            2.196167728651     1.465411943683     0.905165415338     1.007825032230
         H            2.177785728651     1.497499943683    -0.839369584662     1.007825032230
         H            3.699157728651    -0.571041056317     0.862108415338     1.007825032230
         H            3.680620728651    -0.541483056317    -0.897912584662     1.007825032230
         H            4.436950728651     0.790923943683    -0.003255584662     1.007825032230
         H           -0.314312271349     1.621722943683     0.041311415338     1.007825032230
         H           -1.341629271349    -1.286739056317    -0.016465584662     1.007825032230
         H           -2.710426271349     1.548556943683     0.015535415338     1.007825032230

  Basis Set: AUG-CC-PVTZ
    Blend: AUG-CC-PVTZ
  Basis Set: (AUG-CC-PVTZ AUX)
    Blend: AUG-CC-PVTZ-JKFIT
	 Reference Energy          =    -381.6694716186494247 [Eh]
	 Singles Energy            =      -0.0000000000000000 [Eh]
	 Same-Spin Energy          =      -0.3768452439523942 [Eh]
	 Opposite-Spin Energy      =      -1.2226553586244133 [Eh]
	 Correlation Energy        =      -1.5995006025768075 [Eh]
	 Total Energy              =    -383.2689722212262495 [Eh]

	 ================> DF-SCS-MP2 Energies <==================
	-----------------------------------------------------------
	 SCS Same-Spin Scale       =       0.3333333333333333 [-]
	 SCS Opposite-Spin Scale   =       1.2000000000000000 [-]
	 SCS Same-Spin Energy      =      -0.1256150813174647 [Eh]
	 SCS Opposite-Spin Energy  =      -1.4671864303492959 [Eh]
	 SCS Correlation Energy    =      -1.5928015116667606 [Eh]
	 SCS Total Energy          =    -383.2622731303162027 [Eh]
	-----------------------------------------------------------

  Dipole Moment: [D]
     X:     3.1775      Y:     3.5038      Z:     0.0911     Total:     4.7309

*** Psi4 exiting successfully. Buy a developer a beer!
