                               Psi4 1.3.2 release

  ==> Input File <==

--------------------------------------------------------------------------
#psi4
#
memory 32 gb

molecule  {
0 1
  O        1.1855920    -1.3251230    -0.0110750
  O       -3.7874790    -0.1788050    -0.0307850
  C        2.2579520     0.8287430     0.0207180
  C        3.5859950     0.0918750    -0.0061980
  C        1.0665970    -0.1008810     0.0170560
  C       -0.2874448     0.5513877     0.0241135
  C       -1.4085440    -0.1910960     0.0012370
  C       -2.7329950     0.4481680    -0.0067340
  H        2.1768340     1.4746290     0.9052650
  H        2.1584520     1.5067170    -0.8392700
  H        3.6798240    -0.5618240     0.8622080
  H        3.6612870    -0.5322660    -0.8978130
  H        4.4176170     0.8001410    -0.0031560
  H       -0.3336460     1.6309400     0.0414110
  H       -1.3704464    -1.2778943    -0.0164613
  H       -2.7297600     1.5577740     0.0156350
units angstrom
no_reorient  #important for SAPT in psi4, default
symmetry c1  #important for SAPT in psi4, default
}

set PROPERTIES_ORIGIN ["COM"]
properties('MP2/aug-cc-pvtz', properties = ['dipole'])
--------------------------------------------------------------------------

    Molecular point group: c1
  Charge       = 0
  Multiplicity = 1
  Basis Set: AUG-CC-PVTZ
    Blend: AUG-CC-PVTZ
  Basis Set: (AUG-CC-PVTZ AUX)
    Blend: AUG-CC-PVTZ-JKFIT

    Orbital Energies [Eh]
    ---------------------

    Doubly Occupied:

       1A    -20.573455     2A    -20.564327     3A    -11.354661
       4A    -11.350660     5A    -11.282237     6A    -11.277804
       7A    -11.257043     8A    -11.228282     9A     -1.395238
      10A     -1.393892    11A     -1.114676    12A     -1.070334
      13A     -0.953690    14A     -0.878886    15A     -0.801258
      16A     -0.756463    17A     -0.696553    18A     -0.685977
      19A     -0.646041    20A     -0.636658    21A     -0.629552
      22A     -0.576546    23A     -0.554324    24A     -0.543995
      25A     -0.536293    26A     -0.528796    27A     -0.502050
      28A     -0.451185    29A     -0.434857    30A     -0.404934

  @DF-RHF Final Energy:  -381.70302521434303

   => Energetics <=

    Nuclear Repulsion Energy =            331.0166083755361797
    One-Electron Energy =               -1175.2779286904840319
    Two-Electron Energy =                 462.5582951006048233
    Total Energy =                       -381.7030252143430289
  Basis Set: (AUG-CC-PVTZ AUX)
    Blend: AUG-CC-PVTZ-RI
    Molecular point group: c1

    Geometry (in Angstrom), charge = 0, multiplicity = 1:

       Center              X                  Y                   Z               Mass
    ------------   -----------------  -----------------  -----------------  -----------------
         O            1.186366952179    -1.326170352034    -0.011084926224    15.994914619570
         O           -3.786704047821    -0.179852352034    -0.030794926224    15.994914619570
         C            2.258726952179     0.827695647966     0.020708073776    12.000000000000
         C            3.586769952179     0.090827647966    -0.006207926224    12.000000000000
         C            1.067371952179    -0.101928352034     0.017046073776    12.000000000000
         C           -0.286669847821     0.550340347966     0.024103573776    12.000000000000
         C           -1.407769047821    -0.192143352034     0.001227073776    12.000000000000
         C           -2.732220047821     0.447120647966    -0.006743926224    12.000000000000
         H            2.177608952179     1.473581647966     0.905255073776     1.007825032230
         H            2.159226952179     1.505669647966    -0.839279926224     1.007825032230
         H            3.680598952179    -0.562871352034     0.862198073776     1.007825032230
         H            3.662061952179    -0.533313352034    -0.897822926224     1.007825032230
         H            4.418391952179     0.799093647966    -0.003165926224     1.007825032230
         H           -0.332871047821     1.629892647966     0.041401073776     1.007825032230
         H           -1.369671447821    -1.278941652034    -0.016471226224     1.007825032230
         H           -2.728985047821     1.556726647966     0.015625073776     1.007825032230

  Basis Set: AUG-CC-PVTZ
    Blend: AUG-CC-PVTZ
  Basis Set: (AUG-CC-PVTZ AUX)
    Blend: AUG-CC-PVTZ-JKFIT
	 Reference Energy          =    -381.7030252143430289 [Eh]
	 Singles Energy            =      -0.0000000000000000 [Eh]
	 Same-Spin Energy          =      -0.3773247563478286 [Eh]
	 Opposite-Spin Energy      =      -1.2236999629318341 [Eh]
	 Correlation Energy        =      -1.6010247192796627 [Eh]
	 Total Energy              =    -383.3040499336227072 [Eh]

	 ================> DF-SCS-MP2 Energies <==================
	-----------------------------------------------------------
	 SCS Same-Spin Scale       =       0.3333333333333333 [-]
	 SCS Opposite-Spin Scale   =       1.2000000000000000 [-]
	 SCS Same-Spin Energy      =      -0.1257749187826095 [Eh]
	 SCS Opposite-Spin Energy  =      -1.4684399555182008 [Eh]
	 SCS Correlation Energy    =      -1.5942148743008104 [Eh]
	 SCS Total Energy          =    -383.2972400886438322 [Eh]
	-----------------------------------------------------------

  Dipole Moment: [D]
     X:     2.7654      Y:     3.5149      Z:     0.0902     Total:     4.4733

*** Psi4 exiting successfully. Buy a developer a beer!
