                               Psi4 1.3.2 release

  ==> Input File <==

--------------------------------------------------------------------------
#psi4
#
memory 32 gb

molecule  {
0 1
  O        1.1855920    -1.3251230    -0.0110750
  O       -3.7874790    -0.1788050    -0.0307850
  C        2.2579520     0.8287430     0.0207180
  C        3.5859950     0.0918750    -0.0061980
  C        1.0665970    -0.1008810     0.0170560
  C       -0.2810060     0.5415760     0.0240110
  C       -1.3975955    -0.1678891     0.0018760
  C       -2.7329950     0.4481680    -0.0067340
  H        2.1768340     1.4746290     0.9052650
  H        2.1584520     1.5067170    -0.8392700
  H        3.6798240    -0.5618240     0.8622080
  H        3.6612870    -0.5322660    -0.8978130
  H        4.4176170     0.8001410    -0.0031560
  H       -0.3336460     1.6309400     0.0414110
  H       -1.3609630    -1.2775220    -0.0163660
  H       -2.7103937     1.5575424     0.0159349
units angstrom
no_reorient  #important for SAPT in psi4, default
symmetry c1  #important for SAPT in psi4, default
}

set PROPERTIES_ORIGIN ["COM"]
properties('MP2/aug-cc-pvtz', properties = ['dipole'])
--------------------------------------------------------------------------

    Molecular point group: c1
  Charge       = 0
  Multiplicity = 1
  Basis Set: AUG-CC-PVTZ
    Blend: AUG-CC-PVTZ
  Basis Set: (AUG-CC-PVTZ AUX)
    Blend: AUG-CC-PVTZ-JKFIT

    Orbital Energies [Eh]
    ---------------------

    Doubly Occupied:

       1A    -20.575614     2A    -20.564462     3A    -11.354314
       4A    -11.352092     5A    -11.279294     6A    -11.275673
       7A    -11.257251     8A    -11.228405     9A     -1.396053
      10A     -1.394499    11A     -1.119310    12A     -1.070996
      13A     -0.954954    14A     -0.880997    15A     -0.798319
      16A     -0.757400    17A     -0.696388    18A     -0.687265
      19A     -0.646344    20A     -0.638413    21A     -0.630440
      22A     -0.566853    23A     -0.555760    24A     -0.544379
      25A     -0.536837    26A     -0.529011    27A     -0.502310
      28A     -0.451645    29A     -0.436008    30A     -0.409473

  @DF-RHF Final Energy:  -381.70245544902065

   => Energetics <=

    Nuclear Repulsion Energy =            331.3888508039451040
    One-Electron Energy =               -1176.0010975827456150
    Two-Electron Energy =                 462.9097913297798073
    Total Energy =                       -381.7024554490206469
  Basis Set: (AUG-CC-PVTZ AUX)
    Blend: AUG-CC-PVTZ-RI
    Molecular point group: c1

    Geometry (in Angstrom), charge = 0, multiplicity = 1:

       Center              X                  Y                   Z               Mass
    ------------   -----------------  -----------------  -----------------  -----------------
         O            1.184245418082    -1.327606145989    -0.011145935990    15.994914619570
         O           -3.788825581918    -0.181288145989    -0.030855935990    15.994914619570
         C            2.256605418082     0.826259854011     0.020647064010    12.000000000000
         C            3.584648418082     0.089391854011    -0.006268935990    12.000000000000
         C            1.065250418082    -0.103364145989     0.016985064010    12.000000000000
         C           -0.282352581918     0.539092854011     0.023940064010    12.000000000000
         C           -1.398942081918    -0.170372245989     0.001805064010    12.000000000000
         C           -2.734341581918     0.445684854011    -0.006804935990    12.000000000000
         H            2.175487418082     1.472145854011     0.905194064010     1.007825032230
         H            2.157105418082     1.504233854011    -0.839340935990     1.007825032230
         H            3.678477418082    -0.564307145989     0.862137064010     1.007825032230
         H            3.659940418082    -0.534749145989    -0.897883935990     1.007825032230
         H            4.416270418082     0.797657854011    -0.003226935990     1.007825032230
         H           -0.334992581918     1.628456854011     0.041340064010     1.007825032230
         H           -1.362309581918    -1.280005145989    -0.016436935990     1.007825032230
         H           -2.711740281918     1.555059254011     0.015863964010     1.007825032230

  Basis Set: AUG-CC-PVTZ
    Blend: AUG-CC-PVTZ
  Basis Set: (AUG-CC-PVTZ AUX)
    Blend: AUG-CC-PVTZ-JKFIT
	 Reference Energy          =    -381.7024554490206469 [Eh]
	 Singles Energy            =      -0.0000000000000000 [Eh]
	 Same-Spin Energy          =      -0.3773475441694877 [Eh]
	 Opposite-Spin Energy      =      -1.2235708753615757 [Eh]
	 Correlation Energy        =      -1.6009184195310635 [Eh]
	 Total Energy              =    -383.3033738685517164 [Eh]

	 ================> DF-SCS-MP2 Energies <==================
	-----------------------------------------------------------
	 SCS Same-Spin Scale       =       0.3333333333333333 [-]
	 SCS Opposite-Spin Scale   =       1.2000000000000000 [-]
	 SCS Same-Spin Energy      =      -0.1257825147231626 [Eh]
	 SCS Opposite-Spin Energy  =      -1.4682850504338909 [Eh]
	 SCS Correlation Energy    =      -1.5940675651570535 [Eh]
	 SCS Total Energy          =    -383.2965230141776942 [Eh]
	-----------------------------------------------------------

  Dipole Moment: [D]
     X:     2.7536      Y:     3.5078      Z:     0.0899     Total:     4.4604

*** Psi4 exiting successfully. Buy a developer a beer!
