                               Psi4 1.3.2 release

  ==> Input File <==

--------------------------------------------------------------------------
#psi4
#
memory 32 gb

molecule  {
0 1
  O        1.1855920    -1.3251230    -0.0110750
  O       -3.7874790    -0.1788050    -0.0307850
  C        2.2579520     0.8287430     0.0207180
  C        3.5859950     0.0918750    -0.0061980
  C        1.0881969    -0.0534730     0.0182435
  C       -0.2810060     0.5415760     0.0240110
  C       -1.4334380    -0.1513053     0.0019940
  C       -2.7329950     0.4481680    -0.0067340
  H        2.1768340     1.4746290     0.9052650
  H        2.1584520     1.5067170    -0.8392700
  H        3.6798240    -0.5618240     0.8622080
  H        3.6612870    -0.5322660    -0.8978130
  H        4.4176170     0.8001410    -0.0031560
  H       -0.3336460     1.6309400     0.0414110
  H       -1.3609630    -1.2775220    -0.0163660
  H       -2.7297600     1.5577740     0.0156350
units angstrom
no_reorient  #important for SAPT in psi4, default
symmetry c1  #important for SAPT in psi4, default
}

set PROPERTIES_ORIGIN ["COM"]
properties('MP2/aug-cc-pvtz', properties = ['dipole'])
--------------------------------------------------------------------------

    Molecular point group: c1
  Charge       = 0
  Multiplicity = 1
  Basis Set: AUG-CC-PVTZ
    Blend: AUG-CC-PVTZ
  Basis Set: (AUG-CC-PVTZ AUX)
    Blend: AUG-CC-PVTZ-JKFIT

    Orbital Energies [Eh]
    ---------------------

    Doubly Occupied:

       1A    -20.573828     2A    -20.563284     3A    -11.360091
       4A    -11.348458     5A    -11.286532     6A    -11.278534
       7A    -11.260787     8A    -11.231605     9A     -1.395407
      10A     -1.367937    11A     -1.118370    12A     -1.081590
      13A     -0.964016    14A     -0.889509    15A     -0.797718
      16A     -0.757556    17A     -0.695324    18A     -0.689007
      19A     -0.651877    20A     -0.639604    21A     -0.621800
      22A     -0.556727    23A     -0.554903    24A     -0.547260
      25A     -0.533856    26A     -0.529276    27A     -0.495721
      28A     -0.452600    29A     -0.444351    30A     -0.402521

  @DF-RHF Final Energy:  -381.68962617143865

   => Energetics <=

    Nuclear Repulsion Energy =            331.0142488771687681
    One-Electron Energy =               -1175.2276559510908100
    Two-Electron Energy =                 462.5237809024834519
    Total Energy =                       -381.6896261714386469
  Basis Set: (AUG-CC-PVTZ AUX)
    Blend: AUG-CC-PVTZ-RI
    Molecular point group: c1

    Geometry (in Angstrom), charge = 0, multiplicity = 1:

       Center              X                  Y                   Z               Mass
    ------------   -----------------  -----------------  -----------------  -----------------
         O            1.185944881831    -1.334461285282    -0.011283048173    15.994914619570
         O           -3.787126118169    -0.188143285282    -0.030993048173    15.994914619570
         C            2.258304881831     0.819404714718     0.020509951827    12.000000000000
         C            3.586347881831     0.082536714718    -0.006406048173    12.000000000000
         C            1.088549781831    -0.062811285282     0.018035451827    12.000000000000
         C           -0.280653118169     0.532237714718     0.023802951827    12.000000000000
         C           -1.433085118169    -0.160643585282     0.001785951827    12.000000000000
         C           -2.732642118169     0.438829714718    -0.006942048173    12.000000000000
         H            2.177186881831     1.465290714718     0.905056951827     1.007825032230
         H            2.158804881831     1.497378714718    -0.839478048173     1.007825032230
         H            3.680176881831    -0.571162285282     0.861999951827     1.007825032230
         H            3.661639881831    -0.541604285282    -0.898021048173     1.007825032230
         H            4.417969881831     0.790802714718    -0.003364048173     1.007825032230
         H           -0.333293118169     1.621601714718     0.041202951827     1.007825032230
         H           -1.360610118169    -1.286860285282    -0.016574048173     1.007825032230
         H           -2.729407118169     1.548435714718     0.015426951827     1.007825032230

  Basis Set: AUG-CC-PVTZ
    Blend: AUG-CC-PVTZ
  Basis Set: (AUG-CC-PVTZ AUX)
    Blend: AUG-CC-PVTZ-JKFIT
	 Reference Energy          =    -381.6896261714386469 [Eh]
	 Singles Energy            =      -0.0000000000000000 [Eh]
	 Same-Spin Energy          =      -0.3796167596751066 [Eh]
	 Opposite-Spin Energy      =      -1.2279911154267635 [Eh]
	 Correlation Energy        =      -1.6076078751018701 [Eh]
	 Total Energy              =    -383.2972340465404955 [Eh]

	 ================> DF-SCS-MP2 Energies <==================
	-----------------------------------------------------------
	 SCS Same-Spin Scale       =       0.3333333333333333 [-]
	 SCS Opposite-Spin Scale   =       1.2000000000000000 [-]
	 SCS Same-Spin Energy      =      -0.1265389198917022 [Eh]
	 SCS Opposite-Spin Energy  =      -1.4735893385121162 [Eh]
	 SCS Correlation Energy    =      -1.6001282584038183 [Eh]
	 SCS Total Energy          =    -383.2897544298424464 [Eh]
	-----------------------------------------------------------

  Dipole Moment: [D]
     X:     3.0376      Y:     3.6671      Z:     0.0923     Total:     4.7627

*** Psi4 exiting successfully. Buy a developer a beer!
