                               Psi4 1.3.2 release

  ==> Input File <==

--------------------------------------------------------------------------
#psi4
#
memory 32 gb

molecule  {
0 1
  O        1.1855920    -1.3251230    -0.0110750
  O       -3.7874790    -0.1788050    -0.0307850
  C        2.2579520     0.8287430     0.0207180
  C        3.5859950     0.0918750    -0.0061980
  C        1.0665970    -0.1008810     0.0170560
  C       -0.2810060     0.5415760     0.0240110
  C       -1.4085440    -0.1910960     0.0012370
  C       -2.9131094     0.5351026    -0.0078180
  H        2.1768340     1.4746290     0.9052650
  H        2.1584520     1.5067170    -0.8392700
  H        3.6798240    -0.5618240     0.8622080
  H        3.6612870    -0.5322660    -0.8978130
  H        4.4176170     0.8001410    -0.0031560
  H       -0.3336460     1.6309400     0.0414110
  H       -1.3609630    -1.2775220    -0.0163660
  H       -2.7297600     1.5577740     0.0156350
units angstrom
no_reorient  #important for SAPT in psi4, default
symmetry c1  #important for SAPT in psi4, default
}

set PROPERTIES_ORIGIN ["COM"]
properties('MP2/aug-cc-pvtz', properties = ['dipole'])
--------------------------------------------------------------------------

    Molecular point group: c1
  Charge       = 0
  Multiplicity = 1
  Basis Set: AUG-CC-PVTZ
    Blend: AUG-CC-PVTZ
  Basis Set: (AUG-CC-PVTZ AUX)
    Blend: AUG-CC-PVTZ-JKFIT

    Orbital Energies [Eh]
    ---------------------

    Doubly Occupied:

       1A    -20.590283     2A    -20.549618     3A    -11.357526
       4A    -11.341411     5A    -11.269094     6A    -11.258709
       7A    -11.247877     8A    -11.221350     9A     -1.476893
      10A     -1.381385    11A     -1.088242    12A     -1.055782
      13A     -0.930417    14A     -0.872140    15A     -0.809124
      16A     -0.741995    17A     -0.706369    18A     -0.689752
      19A     -0.655414    20A     -0.637318    21A     -0.627206
      22A     -0.595792    23A     -0.565221    24A     -0.536199
      25A     -0.533590    26A     -0.521076    27A     -0.493781
      28A     -0.439249    29A     -0.411335    30A     -0.393220

  @DF-RHF Final Energy:  -381.67578326909279

   => Energetics <=

    Nuclear Repulsion Energy =            330.1021764829430367
    One-Electron Energy =               -1173.5611842514581440
    Two-Electron Energy =                 461.7832244994223174
    Total Energy =                       -381.6757832690927899
  Basis Set: (AUG-CC-PVTZ AUX)
    Blend: AUG-CC-PVTZ-RI
    Molecular point group: c1

    Geometry (in Angstrom), charge = 0, multiplicity = 1:

       Center              X                  Y                   Z               Mass
    ------------   -----------------  -----------------  -----------------  -----------------
         O            1.204881049566    -1.334433002093    -0.010958717856    15.994914619570
         O           -3.768189950434    -0.188115002093    -0.030668717856    15.994914619570
         C            2.277241049566     0.819432997907     0.020834282144    12.000000000000
         C            3.605284049566     0.082564997907    -0.006081717856    12.000000000000
         C            1.085886049566    -0.110191002093     0.017172282144    12.000000000000
         C           -0.261716950434     0.532265997907     0.024127282144    12.000000000000
         C           -1.389254950434    -0.200406002093     0.001353282144    12.000000000000
         C           -2.893820350434     0.525792597907    -0.007701717856    12.000000000000
         H            2.196123049566     1.465318997907     0.905381282144     1.007825032230
         H            2.177741049566     1.497406997907    -0.839153717856     1.007825032230
         H            3.699113049566    -0.571134002093     0.862324282144     1.007825032230
         H            3.680576049566    -0.541576002093    -0.897696717856     1.007825032230
         H            4.436906049566     0.790830997907    -0.003039717856     1.007825032230
         H           -0.314356950434     1.621629997907     0.041527282144     1.007825032230
         H           -1.341673950434    -1.286832002093    -0.016249717856     1.007825032230
         H           -2.710470950434     1.548463997907     0.015751282144     1.007825032230

  Basis Set: AUG-CC-PVTZ
    Blend: AUG-CC-PVTZ
  Basis Set: (AUG-CC-PVTZ AUX)
    Blend: AUG-CC-PVTZ-JKFIT
	 Reference Energy          =    -381.6757832690927899 [Eh]
	 Singles Energy            =      -0.0000000000000000 [Eh]
	 Same-Spin Energy          =      -0.3743701535737939 [Eh]
	 Opposite-Spin Energy      =      -1.2179512810584896 [Eh]
	 Correlation Energy        =      -1.5923214346322836 [Eh]
	 Total Energy              =    -383.2681047037251005 [Eh]

	 ================> DF-SCS-MP2 Energies <==================
	-----------------------------------------------------------
	 SCS Same-Spin Scale       =       0.3333333333333333 [-]
	 SCS Opposite-Spin Scale   =       1.2000000000000000 [-]
	 SCS Same-Spin Energy      =      -0.1247900511912646 [Eh]
	 SCS Opposite-Spin Energy  =      -1.4615415372701874 [Eh]
	 SCS Correlation Energy    =      -1.5863315884614522 [Eh]
	 SCS Total Energy          =    -383.2621148575542520 [Eh]
	-----------------------------------------------------------

  Dipole Moment: [D]
     X:     1.2042      Y:     3.7443      Z:     0.0765     Total:     3.9340

*** Psi4 exiting successfully. Buy a developer a beer!
