                               Psi4 1.4a3.dev225

  ==> Input File <==

--------------------------------------------------------------------------
#psi4
#
memory 32 gb

molecule  {
0 1
  O        1.0820120     1.3681640     0.0000000
  O       -3.8882340     0.1997640    -0.0000030
  C        2.1679760    -0.7815440    -0.0000070
  C        3.4943680    -0.0370920     0.0000040
  C        0.9715461     0.1620066     0.0000000
  C       -0.3759970    -0.5069640     0.0000040
  C       -1.5077040     0.2230700     0.0000000
  C       -2.8299410    -0.4231870     0.0000020
  H        2.0818540    -1.4423830    -0.8738950
  H        2.0818510    -1.4424050     0.8738640
  H        3.5776630     0.6025590    -0.8807220
  H        3.5776700     0.6025230     0.8807550
  H        4.3292850    -0.7422630    -0.0000140
  H       -0.4236580    -1.5964830     0.0000100
  H       -1.4638710     1.3098110    -0.0000060
  H       -2.8215620    -1.5330200     0.0000110
units angstrom
no_reorient  #important for SAPT in psi4, default
symmetry c1  #important for SAPT in psi4, default
}

set PROPERTIES_ORIGIN ["COM"]
properties('MP2/aug-cc-pvtz', properties = ['dipole'])
--------------------------------------------------------------------------

    Molecular point group: c1
  Charge       = 0
  Multiplicity = 1
  Basis Set: AUG-CC-PVTZ
    Blend: AUG-CC-PVTZ
  Basis Set: (AUG-CC-PVTZ AUX)
    Blend: AUG-CC-PVTZ-JKFIT

    Orbital Energies [Eh]
    ---------------------

    Doubly Occupied:

       1A    -20.573144     2A    -20.565939     3A    -11.353300
       4A    -11.350898     5A    -11.282042     6A    -11.277002
       7A    -11.256698     8A    -11.228321     9A     -1.407786
      10A     -1.393746    11A     -1.112734    12A     -1.067779
      13A     -0.951603    14A     -0.877227    15A     -0.800114
      16A     -0.756146    17A     -0.697297    18A     -0.685261
      19A     -0.645614    20A     -0.639591    21A     -0.630419
      22A     -0.574926    23A     -0.555768    24A     -0.543770
      25A     -0.538640    26A     -0.529072    27A     -0.504554
      28A     -0.451178    29A     -0.432659    30A     -0.404666

  @DF-RHF Final Energy:  -381.70443755548922

   => Energetics <=

    Nuclear Repulsion Energy =            330.9777049655056658
    One-Electron Energy =               -1175.1884974763297578
    Two-Electron Energy =                 462.5063549553349276
    Total Energy =                       -381.7044375554892213
  Basis Set: (AUG-CC-PVTZ AUX)
    Blend: AUG-CC-PVTZ-RI
    Molecular point group: c1

    Geometry (in Angstrom), charge = 0, multiplicity = 1:

       Center              X                  Y                   Z               Mass
    ------------   -----------------  -----------------  -----------------  -----------------
         O            1.178551381602     1.328544175820     0.000000079974    15.994914619570
         O           -3.791694618398     0.160144175820    -0.000002920026    15.994914619570
         C            2.264515381602    -0.821163824180    -0.000006920026    12.000000000000
         C            3.590907381602    -0.076711824180     0.000004079974    12.000000000000
         C            1.068085481602     0.122386775820     0.000000079974    12.000000000000
         C           -0.279457618398    -0.546583824180     0.000004079974    12.000000000000
         C           -1.411164618398     0.183450175820     0.000000079974    12.000000000000
         C           -2.733401618398    -0.462806824180     0.000002079974    12.000000000000
         H            2.178393381602    -1.482002824180    -0.873894920026     1.007825032230
         H            2.178390381602    -1.482024824180     0.873864079974     1.007825032230
         H            3.674202381602     0.562939175820    -0.880721920026     1.007825032230
         H            3.674209381602     0.562903175820     0.880755079974     1.007825032230
         H            4.425824381602    -0.781882824180    -0.000013920026     1.007825032230
         H           -0.327118618398    -1.636102824180     0.000010079974     1.007825032230
         H           -1.367331618398     1.270191175820    -0.000005920026     1.007825032230
         H           -2.725022618398    -1.572639824180     0.000011079974     1.007825032230

  Basis Set: AUG-CC-PVTZ
    Blend: AUG-CC-PVTZ
  Basis Set: (AUG-CC-PVTZ AUX)
    Blend: AUG-CC-PVTZ-JKFIT
	 Reference Energy          =    -381.7044375554892213 [Eh]
	 Singles Energy            =      -0.0000000000000000 [Eh]
	 Same-Spin Energy          =      -0.3767919825516364 [Eh]
	 Opposite-Spin Energy      =      -1.2226844980472635 [Eh]
	 Correlation Energy        =      -1.5994764805988999 [Eh]
	 Total Energy              =    -383.3039140360881447 [Eh]

	 ================> DF-SCS-MP2 Energies <==================
	-----------------------------------------------------------
	 SCS Same-Spin Scale       =       0.3333333333333333 [-]
	 SCS Opposite-Spin Scale   =       1.2000000000000000 [-]
	 SCS Same-Spin Energy      =      -0.1255973275172121 [Eh]
	 SCS Opposite-Spin Energy  =      -1.4672213976567161 [Eh]
	 SCS Correlation Energy    =      -1.5928187251739283 [Eh]
	 SCS Total Energy          =    -383.2972562806631345 [Eh]
	-----------------------------------------------------------

  Dipole Moment: [D]
     X:     2.7869      Y:    -3.4322      Z:     0.0000     Total:     4.4212

*** Psi4 exiting successfully. Buy a developer a beer!
