                               Psi4 1.3.2 release

  ==> Input File <==

--------------------------------------------------------------------------
#psi4
#
memory 32 gb

molecule  {
0 1
  O        1.1855920    -1.3251230    -0.0110750
  O       -3.7874790    -0.1788050    -0.0307850
  C        2.2579520     0.8287430     0.0207180
  C        3.7608512    -0.0051444    -0.0097419
  C        1.0665970    -0.1008810     0.0170560
  C       -0.2810060     0.5415760     0.0240110
  C       -1.4085440    -0.1910960     0.0012370
  C       -2.7329950     0.4481680    -0.0067340
  H        2.1768340     1.4746290     0.9052650
  H        2.1584520     1.5067170    -0.8392700
  H        3.6798240    -0.5618240     0.8622080
  H        3.6612870    -0.5322660    -0.8978130
  H        4.4176170     0.8001410    -0.0031560
  H       -0.3336460     1.6309400     0.0414110
  H       -1.3609630    -1.2775220    -0.0163660
  H       -2.7297600     1.5577740     0.0156350
units angstrom
no_reorient  #important for SAPT in psi4, default
symmetry c1  #important for SAPT in psi4, default
}

set PROPERTIES_ORIGIN ["COM"]
properties('MP2/aug-cc-pvtz', properties = ['dipole'])
--------------------------------------------------------------------------

    Molecular point group: c1
  Charge       = 0
  Multiplicity = 1
  Basis Set: AUG-CC-PVTZ
    Blend: AUG-CC-PVTZ
  Basis Set: (AUG-CC-PVTZ AUX)
    Blend: AUG-CC-PVTZ-JKFIT

    Orbital Energies [Eh]
    ---------------------

    Doubly Occupied:

       1A    -20.573463     2A    -20.562196     3A    -11.353177
       4A    -11.350810     5A    -11.281432     6A    -11.277138
       7A    -11.260445     8A    -11.229870     9A     -1.394884
      10A     -1.392416    11A     -1.113271    12A     -1.047203
      13A     -0.956461    14A     -0.888890    15A     -0.800915
      16A     -0.754058    17A     -0.692993    18A     -0.683600
      19A     -0.641920    20A     -0.636889    21A     -0.627522
      22A     -0.578833    23A     -0.569411    24A     -0.565952
      25A     -0.546384    26A     -0.510338    27A     -0.471028
      28A     -0.450743    29A     -0.432196    30A     -0.404079

  @DF-RHF Final Energy:  -381.67614234650250

   => Energetics <=

    Nuclear Repulsion Energy =            328.5226696915039497
    One-Electron Energy =               -1170.3005903787038733
    Two-Electron Energy =                 460.1017783406973649
    Total Energy =                       -381.6761423465025018
  Basis Set: (AUG-CC-PVTZ AUX)
    Blend: AUG-CC-PVTZ-RI
    Molecular point group: c1

    Geometry (in Angstrom), charge = 0, multiplicity = 1:

       Center              X                  Y                   Z               Mass
    ------------   -----------------  -----------------  -----------------  -----------------
         O            1.166866280773    -1.314732866988    -0.010695280462    15.994914619570
         O           -3.806204719227    -0.168414866988    -0.030405280462    15.994914619570
         C            2.239226280773     0.839133133012     0.021097719538    12.000000000000
         C            3.742125480773     0.005245733012    -0.009362180462    12.000000000000
         C            1.047871280773    -0.090490866988     0.017435719538    12.000000000000
         C           -0.299731719227     0.551966133012     0.024390719538    12.000000000000
         C           -1.427269719227    -0.180705866988     0.001616719538    12.000000000000
         C           -2.751720719227     0.458558133012    -0.006354280462    12.000000000000
         H            2.158108280773     1.485019133012     0.905644719538     1.007825032230
         H            2.139726280773     1.517107133012    -0.838890280462     1.007825032230
         H            3.661098280773    -0.551433866988     0.862587719538     1.007825032230
         H            3.642561280773    -0.521875866988    -0.897433280462     1.007825032230
         H            4.398891280773     0.810531133012    -0.002776280462     1.007825032230
         H           -0.352371719227     1.641330133012     0.041790719538     1.007825032230
         H           -1.379688719227    -1.267131866988    -0.015986280462     1.007825032230
         H           -2.748485719227     1.568164133012     0.016014719538     1.007825032230

  Basis Set: AUG-CC-PVTZ
    Blend: AUG-CC-PVTZ
  Basis Set: (AUG-CC-PVTZ AUX)
    Blend: AUG-CC-PVTZ-JKFIT
	 Reference Energy          =    -381.6761423465025018 [Eh]
	 Singles Energy            =      -0.0000000000000000 [Eh]
	 Same-Spin Energy          =      -0.3772630968728644 [Eh]
	 Opposite-Spin Energy      =      -1.2248028811432154 [Eh]
	 Correlation Energy        =      -1.6020659780160798 [Eh]
	 Total Energy              =    -383.2782083245185731 [Eh]

	 ================> DF-SCS-MP2 Energies <==================
	-----------------------------------------------------------
	 SCS Same-Spin Scale       =       0.3333333333333333 [-]
	 SCS Opposite-Spin Scale   =       1.2000000000000000 [-]
	 SCS Same-Spin Energy      =      -0.1257543656242881 [Eh]
	 SCS Opposite-Spin Energy  =      -1.4697634573718585 [Eh]
	 SCS Correlation Energy    =      -1.5955178229961466 [Eh]
	 SCS Total Energy          =    -383.2716601694986593 [Eh]
	-----------------------------------------------------------

  Dipole Moment: [D]
     X:     2.7489      Y:     3.5229      Z:     0.0900     Total:     4.4694

*** Psi4 exiting successfully. Buy a developer a beer!
