                               Psi4 1.3.2 release

  ==> Input File <==

--------------------------------------------------------------------------
#psi4
#
memory 32 gb

molecule  {
0 1
  O        1.1855920    -1.3251230    -0.0110750
  O       -3.7874790    -0.1788050    -0.0307850
  C        2.2579520     0.8287430     0.0207180
  C        3.5859950     0.0918750    -0.0061980
  C        1.0665970    -0.1008810     0.0170560
  C       -0.2810060     0.5415760     0.0240110
  C       -1.4148969    -0.1812285     0.0013387
  C       -2.7329950     0.4481680    -0.0067340
  H        2.1768340     1.4746290     0.9052650
  H        2.1584520     1.5067170    -0.8392700
  H        3.6798240    -0.5618240     0.8622080
  H        3.6612870    -0.5322660    -0.8978130
  H        4.4176170     0.8001410    -0.0031560
  H       -0.3431512     1.6304407     0.0413123
  H       -1.3609630    -1.2775220    -0.0163660
  H       -2.7297600     1.5577740     0.0156350
units angstrom
no_reorient  #important for SAPT in psi4, default
symmetry c1  #important for SAPT in psi4, default
}

set PROPERTIES_ORIGIN ["COM"]
properties('MP2/aug-cc-pvtz', properties = ['dipole'])
--------------------------------------------------------------------------

    Molecular point group: c1
  Charge       = 0
  Multiplicity = 1
  Basis Set: AUG-CC-PVTZ
    Blend: AUG-CC-PVTZ
  Basis Set: (AUG-CC-PVTZ AUX)
    Blend: AUG-CC-PVTZ-JKFIT

    Orbital Energies [Eh]
    ---------------------

    Doubly Occupied:

       1A    -20.573958     2A    -20.564770     3A    -11.354725
       4A    -11.350611     5A    -11.282721     6A    -11.277722
       7A    -11.257347     8A    -11.228493     9A     -1.395835
      10A     -1.394530    11A     -1.115635    12A     -1.070782
      13A     -0.956071    14A     -0.880358    15A     -0.799898
      16A     -0.757129    17A     -0.696928    18A     -0.686226
      19A     -0.646389    20A     -0.638030    21A     -0.629869
      22A     -0.570282    23A     -0.555267    24A     -0.544184
      25A     -0.536827    26A     -0.529106    27A     -0.502327
      28A     -0.451966    29A     -0.436779    30A     -0.404735

  @DF-RHF Final Energy:  -381.70253131717874

   => Energetics <=

    Nuclear Repulsion Energy =            331.1773518534036498
    One-Electron Energy =               -1175.5807665607710533
    Two-Electron Energy =                 462.7008833901886078
    Total Energy =                       -381.7025313171787388
  Basis Set: (AUG-CC-PVTZ AUX)
    Blend: AUG-CC-PVTZ-RI
    Molecular point group: c1

    Geometry (in Angstrom), charge = 0, multiplicity = 1:

       Center              X                  Y                   Z               Mass
    ------------   -----------------  -----------------  -----------------  -----------------
         O            1.186357948988    -1.326175185541    -0.011084809970    15.994914619570
         O           -3.786713051012    -0.179857185541    -0.030794809970    15.994914619570
         C            2.258717948988     0.827690814459     0.020708190030    12.000000000000
         C            3.586760948988     0.090822814459    -0.006207809970    12.000000000000
         C            1.067362948988    -0.101933185541     0.017046190030    12.000000000000
         C           -0.280240051012     0.540523814459     0.024001190030    12.000000000000
         C           -1.414130951012    -0.182280685541     0.001328890030    12.000000000000
         C           -2.732229051012     0.447115814459    -0.006743809970    12.000000000000
         H            2.177599948988     1.473576814459     0.905255190030     1.007825032230
         H            2.159217948988     1.505664814459    -0.839279809970     1.007825032230
         H            3.680589948988    -0.562876185541     0.862198190030     1.007825032230
         H            3.662052948988    -0.533318185541    -0.897822809970     1.007825032230
         H            4.418382948988     0.799088814459    -0.003165809970     1.007825032230
         H           -0.342385251012     1.629388514459     0.041302490030     1.007825032230
         H           -1.360197051012    -1.278574185541    -0.016375809970     1.007825032230
         H           -2.728994051012     1.556721814459     0.015625190030     1.007825032230

  Basis Set: AUG-CC-PVTZ
    Blend: AUG-CC-PVTZ
  Basis Set: (AUG-CC-PVTZ AUX)
    Blend: AUG-CC-PVTZ-JKFIT
	 Reference Energy          =    -381.7025313171787388 [Eh]
	 Singles Energy            =      -0.0000000000000000 [Eh]
	 Same-Spin Energy          =      -0.3775569557437651 [Eh]
	 Opposite-Spin Energy      =      -1.2240258456159481 [Eh]
	 Correlation Energy        =      -1.6015828013597133 [Eh]
	 Total Energy              =    -383.3041141185384504 [Eh]

	 ================> DF-SCS-MP2 Energies <==================
	-----------------------------------------------------------
	 SCS Same-Spin Scale       =       0.3333333333333333 [-]
	 SCS Opposite-Spin Scale   =       1.2000000000000000 [-]
	 SCS Same-Spin Energy      =      -0.1258523185812550 [Eh]
	 SCS Opposite-Spin Energy  =      -1.4688310147391377 [Eh]
	 SCS Correlation Energy    =      -1.5946833333203927 [Eh]
	 SCS Total Energy          =    -383.2972146504991429 [Eh]
	-----------------------------------------------------------

  Dipole Moment: [D]
     X:     2.7786      Y:     3.5098      Z:     0.0902     Total:     4.4774

*** Psi4 exiting successfully. Buy a developer a beer!
