                               Psi4 1.3.2 release

  ==> Input File <==

--------------------------------------------------------------------------
#psi4
#
memory 32 gb

molecule  {
0 1
  O        1.1855920    -1.3251230    -0.0110750
  O       -3.7874790    -0.1788050    -0.0307850
  C        2.2579520     0.8287430     0.0207180
  C        3.5859950     0.0918750    -0.0061980
  C        1.0498917    -0.0781516     0.0616256
  C       -0.2810060     0.5415760     0.0240110
  C       -1.4085440    -0.1910960     0.0012370
  C       -2.7329950     0.4481680    -0.0067340
  H        2.1442402     1.4567048     0.9145333
  H        2.1584520     1.5067170    -0.8392700
  H        3.6798240    -0.5618240     0.8622080
  H        3.6612870    -0.5322660    -0.8978130
  H        4.4176170     0.8001410    -0.0031560
  H       -0.3336460     1.6309400     0.0414110
  H       -1.3609630    -1.2775220    -0.0163660
  H       -2.7297600     1.5577740     0.0156350
units angstrom
no_reorient  #important for SAPT in psi4, default
symmetry c1  #important for SAPT in psi4, default
}

set PROPERTIES_ORIGIN ["COM"]
properties('MP2/aug-cc-pvtz', properties = ['dipole'])
--------------------------------------------------------------------------

    Molecular point group: c1
  Charge       = 0
  Multiplicity = 1
  Basis Set: AUG-CC-PVTZ
    Blend: AUG-CC-PVTZ
  Basis Set: (AUG-CC-PVTZ AUX)
    Blend: AUG-CC-PVTZ-JKFIT

    Orbital Energies [Eh]
    ---------------------

    Doubly Occupied:

       1A    -20.576175     2A    -20.561113     3A    -11.354297
       4A    -11.353069     5A    -11.283055     6A    -11.280949
       7A    -11.257787     8A    -11.228380     9A     -1.397140
      10A     -1.376780    11A     -1.118563    12A     -1.070087
      13A     -0.959857    14A     -0.881332    15A     -0.803623
      16A     -0.756412    17A     -0.695279    18A     -0.686113
      19A     -0.646244    20A     -0.635375    21A     -0.626178
      22A     -0.572912    23A     -0.554868    24A     -0.544122
      25A     -0.533700    26A     -0.527036    27A     -0.498463
      28A     -0.452190    29A     -0.437748    30A     -0.404455

  @DF-RHF Final Energy:  -381.69704928316651

   => Energetics <=

    Nuclear Repulsion Energy =            331.0266375439844637
    One-Electron Energy =               -1175.3007785620866343
    Two-Electron Energy =                 462.5770917349357205
    Total Energy =                       -381.6970492831665069
  Basis Set: (AUG-CC-PVTZ AUX)
    Blend: AUG-CC-PVTZ-RI
    Molecular point group: c1

    Geometry (in Angstrom), charge = 0, multiplicity = 1:

       Center              X                  Y                   Z               Mass
    ------------   -----------------  -----------------  -----------------  -----------------
         O            1.187674279832    -1.327395877945    -0.015931247477    15.994914619570
         O           -3.785396720168    -0.181077877945    -0.035641247477    15.994914619570
         C            2.260034279832     0.826470122055     0.015861752523    12.000000000000
         C            3.588077279832     0.089602122055    -0.011054247477    12.000000000000
         C            1.051973979832    -0.080424477945     0.056769352523    12.000000000000
         C           -0.278923720168     0.539303122055     0.019154752523    12.000000000000
         C           -1.406461720168    -0.193368877945    -0.003619247477    12.000000000000
         C           -2.730912720168     0.445895122055    -0.011590247477    12.000000000000
         H            2.146322479832     1.454431922055     0.909677052523     1.007825032230
         H            2.160534279832     1.504444122055    -0.844126247477     1.007825032230
         H            3.681906279832    -0.564096877945     0.857351752523     1.007825032230
         H            3.663369279832    -0.534538877945    -0.902669247477     1.007825032230
         H            4.419699279832     0.797868122055    -0.008012247477     1.007825032230
         H           -0.331563720168     1.628667122055     0.036554752523     1.007825032230
         H           -1.358880720168    -1.279794877945    -0.021222247477     1.007825032230
         H           -2.727677720168     1.555501122055     0.010778752523     1.007825032230

  Basis Set: AUG-CC-PVTZ
    Blend: AUG-CC-PVTZ
  Basis Set: (AUG-CC-PVTZ AUX)
    Blend: AUG-CC-PVTZ-JKFIT
	 Reference Energy          =    -381.6970492831665069 [Eh]
	 Singles Energy            =      -0.0000000000000000 [Eh]
	 Same-Spin Energy          =      -0.3783989944744733 [Eh]
	 Opposite-Spin Energy      =      -1.2258669704954630 [Eh]
	 Correlation Energy        =      -1.6042659649699362 [Eh]
	 Total Energy              =    -383.3013152481364614 [Eh]

	 ================> DF-SCS-MP2 Energies <==================
	-----------------------------------------------------------
	 SCS Same-Spin Scale       =       0.3333333333333333 [-]
	 SCS Opposite-Spin Scale   =       1.2000000000000000 [-]
	 SCS Same-Spin Energy      =      -0.1261329981581578 [Eh]
	 SCS Opposite-Spin Energy  =      -1.4710403645945556 [Eh]
	 SCS Correlation Energy    =      -1.5971733627527134 [Eh]
	 SCS Total Energy          =    -383.2942226459192057 [Eh]
	-----------------------------------------------------------

  Dipole Moment: [D]
     X:     2.6352      Y:     3.5693      Z:     0.1117     Total:     4.4381

*** Psi4 exiting successfully. Buy a developer a beer!
