                               Psi4 1.3.2 release

  ==> Input File <==

--------------------------------------------------------------------------
#psi4
#
memory 32 gb

molecule  {
0 1
  O        1.1855920    -1.3251230    -0.0110750
  O       -3.7874790    -0.1788050    -0.0307850
  C        2.2579520     0.8287430     0.0207180
  C        3.5859950     0.0918750    -0.0061980
  C        1.0665970    -0.1008810     0.0170560
  C       -0.2810060     0.5415760     0.0240110
  C       -1.4021053    -0.2009077     0.0011371
  C       -2.7329950     0.4481680    -0.0067340
  H        2.1768340     1.4746290     0.9052650
  H        2.1584520     1.5067170    -0.8392700
  H        3.6798240    -0.5618240     0.8622080
  H        3.6612870    -0.5322660    -0.8978130
  H        4.4176170     0.8001410    -0.0031560
  H       -0.3241368     1.6313564     0.0415084
  H       -1.3609630    -1.2775220    -0.0163660
  H       -2.7297600     1.5577740     0.0156350
units angstrom
no_reorient  #important for SAPT in psi4, default
symmetry c1  #important for SAPT in psi4, default
}

set PROPERTIES_ORIGIN ["COM"]
properties('MP2/aug-cc-pvtz', properties = ['dipole'])
--------------------------------------------------------------------------

    Molecular point group: c1
  Charge       = 0
  Multiplicity = 1
  Basis Set: AUG-CC-PVTZ
    Blend: AUG-CC-PVTZ
  Basis Set: (AUG-CC-PVTZ AUX)
    Blend: AUG-CC-PVTZ-JKFIT

    Orbital Energies [Eh]
    ---------------------

    Doubly Occupied:

       1A    -20.574097     2A    -20.563367     3A    -11.353144
       4A    -11.352083     5A    -11.281757     6A    -11.278150
       7A    -11.256716     8A    -11.228045     9A     -1.395475
      10A     -1.393735    11A     -1.114228    12A     -1.069939
      13A     -0.953650    14A     -0.878085    15A     -0.802665
      16A     -0.755541    17A     -0.696362    18A     -0.685567
      19A     -0.645850    20A     -0.636483    21A     -0.630127
      22A     -0.576909    23A     -0.554194    24A     -0.543674
      25A     -0.536229    26A     -0.528584    27A     -0.501846
      28A     -0.451217    29A     -0.434835    30A     -0.404719

  @DF-RHF Final Energy:  -381.70308201927685

   => Energetics <=

    Nuclear Repulsion Energy =            331.1000361613297969
    One-Electron Energy =               -1175.4516848380042120
    Two-Electron Energy =                 462.6485666573975095
    Total Energy =                       -381.7030820192768488
  Basis Set: (AUG-CC-PVTZ AUX)
    Blend: AUG-CC-PVTZ-RI
    Molecular point group: c1

    Geometry (in Angstrom), charge = 0, multiplicity = 1:

       Center              X                  Y                   Z               Mass
    ------------   -----------------  -----------------  -----------------  -----------------
         O            1.184817041852    -1.324075922404    -0.011064983844    15.994914619570
         O           -3.788253958148    -0.177757922404    -0.030774983844    15.994914619570
         C            2.257177041852     0.829790077596     0.020728016156    12.000000000000
         C            3.585220041852     0.092922077596    -0.006187983844    12.000000000000
         C            1.065822041852    -0.099833922404     0.017066016156    12.000000000000
         C           -0.281780958148     0.542623077596     0.024021016156    12.000000000000
         C           -1.402880258148    -0.199860622404     0.001147116156    12.000000000000
         C           -2.733769958148     0.449215077596    -0.006723983844    12.000000000000
         H            2.176059041852     1.475676077596     0.905275016156     1.007825032230
         H            2.157677041852     1.507764077596    -0.839259983844     1.007825032230
         H            3.679049041852    -0.560776922404     0.862218016156     1.007825032230
         H            3.660512041852    -0.531218922404    -0.897802983844     1.007825032230
         H            4.416842041852     0.801188077596    -0.003145983844     1.007825032230
         H           -0.324911758148     1.632403477596     0.041518416156     1.007825032230
         H           -1.361737958148    -1.276474922404    -0.016355983844     1.007825032230
         H           -2.730534958148     1.558821077596     0.015645016156     1.007825032230

  Basis Set: AUG-CC-PVTZ
    Blend: AUG-CC-PVTZ
  Basis Set: (AUG-CC-PVTZ AUX)
    Blend: AUG-CC-PVTZ-JKFIT
	 Reference Energy          =    -381.7030820192768488 [Eh]
	 Singles Energy            =      -0.0000000000000000 [Eh]
	 Same-Spin Energy          =      -0.3772877962756038 [Eh]
	 Opposite-Spin Energy      =      -1.2236534760001199 [Eh]
	 Correlation Energy        =      -1.6009412722757237 [Eh]
	 Total Energy              =    -383.3040232915525962 [Eh]

	 ================> DF-SCS-MP2 Energies <==================
	-----------------------------------------------------------
	 SCS Same-Spin Scale       =       0.3333333333333333 [-]
	 SCS Opposite-Spin Scale   =       1.2000000000000000 [-]
	 SCS Same-Spin Energy      =      -0.1257625987585346 [Eh]
	 SCS Opposite-Spin Energy  =      -1.4683841712001438 [Eh]
	 SCS Correlation Energy    =      -1.5941467699586784 [Eh]
	 SCS Total Energy          =    -383.2972287892355325 [Eh]
	-----------------------------------------------------------

  Dipole Moment: [D]
     X:     2.7201      Y:     3.5171      Z:     0.0900     Total:     4.4472

*** Psi4 exiting successfully. Buy a developer a beer!
