                               Psi4 1.4a3.dev225

  ==> Input File <==

--------------------------------------------------------------------------
#psi4
#
memory 32 gb

molecule  {
0 1
  O        1.0820120     1.3681640     0.0000000
  O       -3.8882340     0.1997640    -0.0000030
  C        2.1679760    -0.7815440    -0.0000070
  C        3.4943680    -0.0370920     0.0000040
  C        0.9697220     0.1420900     0.0000000
  C       -0.3579828    -0.4982756     0.0000039
  C       -1.5077040     0.2230700     0.0000000
  C       -2.8299410    -0.4231870     0.0000020
  H        2.0818540    -1.4423830    -0.8738950
  H        2.0818510    -1.4424050     0.8738640
  H        3.5776630     0.6025590    -0.8807220
  H        3.5776700     0.6025230     0.8807550
  H        4.3292850    -0.7422630    -0.0000140
  H       -0.4236580    -1.5964830     0.0000100
  H       -1.4638710     1.3098110    -0.0000060
  H       -2.8215620    -1.5330200     0.0000110
units angstrom
no_reorient  #important for SAPT in psi4, default
symmetry c1  #important for SAPT in psi4, default
}

set PROPERTIES_ORIGIN ["COM"]
properties('MP2/aug-cc-pvtz', properties = ['dipole'])
--------------------------------------------------------------------------

    Molecular point group: c1
  Charge       = 0
  Multiplicity = 1
  Basis Set: AUG-CC-PVTZ
    Blend: AUG-CC-PVTZ
  Basis Set: (AUG-CC-PVTZ AUX)
    Blend: AUG-CC-PVTZ-JKFIT

    Orbital Energies [Eh]
    ---------------------

    Doubly Occupied:

       1A    -20.575299     2A    -20.563496     3A    -11.352800
       4A    -11.352786     5A    -11.283711     6A    -11.280968
       7A    -11.257012     8A    -11.228420     9A     -1.395833
      10A     -1.393804    11A     -1.113449    12A     -1.069173
      13A     -0.957479    14A     -0.879390    15A     -0.801681
      16A     -0.756483    17A     -0.696530    18A     -0.684959
      19A     -0.645875    20A     -0.637256    21A     -0.630521
      22A     -0.571360    23A     -0.554805    24A     -0.542898
      25A     -0.536683    26A     -0.528427    27A     -0.502092
      28A     -0.452255    29A     -0.437315    30A     -0.402191

  @DF-RHF Final Energy:  -381.70133300325404

   => Energetics <=

    Nuclear Repulsion Energy =            330.9664271372997746
    One-Electron Energy =               -1175.1656163555326202
    Two-Electron Energy =                 462.4978562149788104
    Total Energy =                       -381.7013330032540352
  Basis Set: (AUG-CC-PVTZ AUX)
    Blend: AUG-CC-PVTZ-RI
    Molecular point group: c1

    Geometry (in Angstrom), charge = 0, multiplicity = 1:

       Center              X                  Y                   Z               Mass
    ------------   -----------------  -----------------  -----------------  -----------------
         O            1.176817539677     1.329746634353     0.000000090683    15.994914619570
         O           -3.793428460323     0.161346634353    -0.000002909317    15.994914619570
         C            2.262781539677    -0.819961365647    -0.000006909317    12.000000000000
         C            3.589173539677    -0.075509365647     0.000004090683    12.000000000000
         C            1.064527539677     0.103672634353     0.000000090683    12.000000000000
         C           -0.263177260323    -0.536692965647     0.000003990683    12.000000000000
         C           -1.412898460323     0.184652634353     0.000000090683    12.000000000000
         C           -2.735135460323    -0.461604365647     0.000002090683    12.000000000000
         H            2.176659539677    -1.480800365647    -0.873894909317     1.007825032230
         H            2.176656539677    -1.480822365647     0.873864090683     1.007825032230
         H            3.672468539677     0.564141634353    -0.880721909317     1.007825032230
         H            3.672475539677     0.564105634353     0.880755090683     1.007825032230
         H            4.424090539677    -0.780680365647    -0.000013909317     1.007825032230
         H           -0.328852460323    -1.634900365647     0.000010090683     1.007825032230
         H           -1.369065460323     1.271393634353    -0.000005909317     1.007825032230
         H           -2.726756460323    -1.571437365647     0.000011090683     1.007825032230

  Basis Set: AUG-CC-PVTZ
    Blend: AUG-CC-PVTZ
  Basis Set: (AUG-CC-PVTZ AUX)
    Blend: AUG-CC-PVTZ-JKFIT
	 Reference Energy          =    -381.7013330032540352 [Eh]
	 Singles Energy            =      -0.0000000000000000 [Eh]
	 Same-Spin Energy          =      -0.3777303152823217 [Eh]
	 Opposite-Spin Energy      =      -1.2245560220758351 [Eh]
	 Correlation Energy        =      -1.6022863373581568 [Eh]
	 Total Energy              =    -383.3036193406122152 [Eh]

	 ================> DF-SCS-MP2 Energies <==================
	-----------------------------------------------------------
	 SCS Same-Spin Scale       =       0.3333333333333333 [-]
	 SCS Opposite-Spin Scale   =       1.2000000000000000 [-]
	 SCS Same-Spin Energy      =      -0.1259101050941072 [Eh]
	 SCS Opposite-Spin Energy  =      -1.4694672264910020 [Eh]
	 SCS Correlation Energy    =      -1.5953773315851092 [Eh]
	 SCS Total Energy          =    -383.2967103348391333 [Eh]
	-----------------------------------------------------------

  Dipole Moment: [D]
     X:     2.7203      Y:    -3.5034      Z:     0.0000     Total:     4.4355

*** Psi4 exiting successfully. Buy a developer a beer!
