                               Psi4 1.3.2 release

  ==> Input File <==

--------------------------------------------------------------------------
#psi4
#
memory 32 gb

molecule  {
0 1
  O        1.1427836    -1.3285229    -0.0114152
  O       -3.7874790    -0.1788050    -0.0307850
  C        2.2579520     0.8287430     0.0207180
  C        3.5859950     0.0918750    -0.0061980
  C        1.0665970    -0.1008810     0.0170560
  C       -0.3026056     0.4941694     0.0227625
  C       -1.4085440    -0.1910960     0.0012370
  C       -2.7329950     0.4481680    -0.0067340
  H        2.1768340     1.4746290     0.9052650
  H        2.1584520     1.5067170    -0.8392700
  H        3.6798240    -0.5618240     0.8622080
  H        3.6612870    -0.5322660    -0.8978130
  H        4.4176170     0.8001410    -0.0031560
  H       -0.3336460     1.6309400     0.0414110
  H       -1.3609630    -1.2775220    -0.0163660
  H       -2.7297600     1.5577740     0.0156350
units angstrom
no_reorient  #important for SAPT in psi4, default
symmetry c1  #important for SAPT in psi4, default
}

set PROPERTIES_ORIGIN ["COM"]
properties('MP2/aug-cc-pvtz', properties = ['dipole'])
--------------------------------------------------------------------------

    Molecular point group: c1
  Charge       = 0
  Multiplicity = 1
  Basis Set: AUG-CC-PVTZ
    Blend: AUG-CC-PVTZ
  Basis Set: (AUG-CC-PVTZ AUX)
    Blend: AUG-CC-PVTZ-JKFIT

    Orbital Energies [Eh]
    ---------------------

    Doubly Occupied:

       1A    -20.572642     2A    -20.564392     3A    -11.354273
       4A    -11.350260     5A    -11.277566     6A    -11.267708
       7A    -11.260904     8A    -11.230857     9A     -1.396199
      10A     -1.393663    11A     -1.119797    12A     -1.074006
      13A     -0.952429    14A     -0.881128    15A     -0.800392
      16A     -0.754015    17A     -0.696320    18A     -0.685498
      19A     -0.648085    20A     -0.638769    21A     -0.629345
      22A     -0.560130    23A     -0.556236    24A     -0.547298
      25A     -0.537058    26A     -0.530909    27A     -0.504015
      28A     -0.450847    29A     -0.435701    30A     -0.410968

  @DF-RHF Final Energy:  -381.70006569526049

   => Energetics <=

    Nuclear Repulsion Energy =            331.7275036795741130
    One-Electron Energy =               -1176.6923207289680704
    Two-Electron Energy =                 463.2647513541335229
    Total Energy =                       -381.7000656952604913
  Basis Set: (AUG-CC-PVTZ AUX)
    Blend: AUG-CC-PVTZ-RI
    Molecular point group: c1

    Geometry (in Angstrom), charge = 0, multiplicity = 1:

       Center              X                  Y                   Z               Mass
    ------------   -----------------  -----------------  -----------------  -----------------
         O            1.151207549162    -1.322960618487    -0.011232739282    15.994914619570
         O           -3.779055050838    -0.173242718487    -0.030602539282    15.994914619570
         C            2.266375949162     0.834305281513     0.020900460718    12.000000000000
         C            3.594418949162     0.097437281513    -0.006015539282    12.000000000000
         C            1.075020949162    -0.095318718487     0.017238460718    12.000000000000
         C           -0.294181650838     0.499731681513     0.022944960718    12.000000000000
         C           -1.400120050838    -0.185533718487     0.001419460718    12.000000000000
         C           -2.724571050838     0.453730281513    -0.006551539282    12.000000000000
         H            2.185257949162     1.480191281513     0.905447460718     1.007825032230
         H            2.166875949162     1.512279281513    -0.839087539282     1.007825032230
         H            3.688247949162    -0.556261718487     0.862390460718     1.007825032230
         H            3.669710949162    -0.526703718487    -0.897630539282     1.007825032230
         H            4.426040949162     0.805703281513    -0.002973539282     1.007825032230
         H           -0.325222050838     1.636502281513     0.041593460718     1.007825032230
         H           -1.352539050838    -1.271959718487    -0.016183539282     1.007825032230
         H           -2.721336050838     1.563336281513     0.015817460718     1.007825032230

  Basis Set: AUG-CC-PVTZ
    Blend: AUG-CC-PVTZ
  Basis Set: (AUG-CC-PVTZ AUX)
    Blend: AUG-CC-PVTZ-JKFIT
	 Reference Energy          =    -381.7000656952604913 [Eh]
	 Singles Energy            =      -0.0000000000000000 [Eh]
	 Same-Spin Energy          =      -0.3770447460071992 [Eh]
	 Opposite-Spin Energy      =      -1.2230224696954930 [Eh]
	 Correlation Energy        =      -1.6000672157026923 [Eh]
	 Total Energy              =    -383.3001329109631570 [Eh]

	 ================> DF-SCS-MP2 Energies <==================
	-----------------------------------------------------------
	 SCS Same-Spin Scale       =       0.3333333333333333 [-]
	 SCS Opposite-Spin Scale   =       1.2000000000000000 [-]
	 SCS Same-Spin Energy      =      -0.1256815820023997 [Eh]
	 SCS Opposite-Spin Energy  =      -1.4676269636345916 [Eh]
	 SCS Correlation Energy    =      -1.5933085456369913 [Eh]
	 SCS Total Energy          =    -383.2933742408974922 [Eh]
	-----------------------------------------------------------

  Dipole Moment: [D]
     X:     2.9572      Y:     3.4922      Z:     0.0901     Total:     4.5770

*** Psi4 exiting successfully. Buy a developer a beer!
