                               Psi4 1.4a3.dev225

  ==> Input File <==

--------------------------------------------------------------------------
#psi4
#
memory 32 gb

molecule  {
0 1
  O        1.0820120     1.3681640     0.0000000
  O       -3.8882340     0.1997640    -0.0000030
  C        2.1679760    -0.7815440    -0.0000070
  C        3.4943680    -0.0370920     0.0000040
  C        0.9697220     0.1420900     0.0000000
  C       -0.3759970    -0.5069640     0.0000040
  C       -1.5497205     0.2501737    -0.0000001
  C       -2.8299410    -0.4231870     0.0000020
  H        2.0818540    -1.4423830    -0.8738950
  H        2.0818510    -1.4424050     0.8738640
  H        3.5776630     0.6025590    -0.8807220
  H        3.5776700     0.6025230     0.8807550
  H        4.3292850    -0.7422630    -0.0000140
  H       -0.4236580    -1.5964830     0.0000100
  H       -1.4638710     1.3098110    -0.0000060
  H       -2.8215620    -1.5330200     0.0000110
units angstrom
no_reorient  #important for SAPT in psi4, default
symmetry c1  #important for SAPT in psi4, default
}

set PROPERTIES_ORIGIN ["COM"]
properties('MP2/aug-cc-pvtz', properties = ['dipole'])
--------------------------------------------------------------------------

    Molecular point group: c1
  Charge       = 0
  Multiplicity = 1
  Basis Set: AUG-CC-PVTZ
    Blend: AUG-CC-PVTZ
  Basis Set: (AUG-CC-PVTZ AUX)
    Blend: AUG-CC-PVTZ-JKFIT

    Orbital Energies [Eh]
    ---------------------

    Doubly Occupied:

       1A    -20.571414     2A    -20.564743     3A    -11.354972
       4A    -11.348988     5A    -11.290562     6A    -11.282407
       7A    -11.257877     8A    -11.229039     9A     -1.394910
      10A     -1.393589    11A     -1.107296    12A     -1.069243
      13A     -0.958153    14A     -0.878556    15A     -0.805326
      16A     -0.754758    17A     -0.696884    18A     -0.683683
      19A     -0.646165    20A     -0.640129    21A     -0.626080
      22A     -0.578885    23A     -0.553847    24A     -0.543245
      25A     -0.536554    26A     -0.528843    27A     -0.502363
      28A     -0.452292    29A     -0.437045    30A     -0.394026

  @DF-RHF Final Energy:  -381.69662940781308

   => Energetics <=

    Nuclear Repulsion Energy =            330.4534841486791947
    One-Electron Energy =               -1174.1364825742068660
    Two-Electron Energy =                 461.9863690177145941
    Total Energy =                       -381.6966294078130773
  Basis Set: (AUG-CC-PVTZ AUX)
    Blend: AUG-CC-PVTZ-RI
    Molecular point group: c1

    Geometry (in Angstrom), charge = 0, multiplicity = 1:

       Center              X                  Y                   Z               Mass
    ------------   -----------------  -----------------  -----------------  -----------------
         O            1.183246390914     1.327774489697     0.000000090683    15.994914619570
         O           -3.786999609086     0.159374489697    -0.000002909317    15.994914619570
         C            2.269210390914    -0.821933510303    -0.000006909317    12.000000000000
         C            3.595602390914    -0.077481510303     0.000004090683    12.000000000000
         C            1.070956390914     0.101700489697     0.000000090683    12.000000000000
         C           -0.274762609086    -0.547353510303     0.000004090683    12.000000000000
         C           -1.448486109086     0.209784189697    -0.000000009317    12.000000000000
         C           -2.728706609086    -0.463576510303     0.000002090683    12.000000000000
         H            2.183088390914    -1.482772510303    -0.873894909317     1.007825032230
         H            2.183085390914    -1.482794510303     0.873864090683     1.007825032230
         H            3.678897390914     0.562169489697    -0.880721909317     1.007825032230
         H            3.678904390914     0.562133489697     0.880755090683     1.007825032230
         H            4.430519390914    -0.782652510303    -0.000013909317     1.007825032230
         H           -0.322423609086    -1.636872510303     0.000010090683     1.007825032230
         H           -1.362636609086     1.269421489697    -0.000005909317     1.007825032230
         H           -2.720327609086    -1.573409510303     0.000011090683     1.007825032230

  Basis Set: AUG-CC-PVTZ
    Blend: AUG-CC-PVTZ
  Basis Set: (AUG-CC-PVTZ AUX)
    Blend: AUG-CC-PVTZ-JKFIT
	 Reference Energy          =    -381.6966294078130773 [Eh]
	 Singles Energy            =      -0.0000000000000000 [Eh]
	 Same-Spin Energy          =      -0.3781823302523482 [Eh]
	 Opposite-Spin Energy      =      -1.2255585980500321 [Eh]
	 Correlation Energy        =      -1.6037409283023802 [Eh]
	 Total Energy              =    -383.3003703361154635 [Eh]

	 ================> DF-SCS-MP2 Energies <==================
	-----------------------------------------------------------
	 SCS Same-Spin Scale       =       0.3333333333333333 [-]
	 SCS Opposite-Spin Scale   =       1.2000000000000000 [-]
	 SCS Same-Spin Energy      =      -0.1260607767507827 [Eh]
	 SCS Opposite-Spin Energy  =      -1.4706703176600384 [Eh]
	 SCS Correlation Energy    =      -1.5967310944108211 [Eh]
	 SCS Total Energy          =    -383.2933605022238908 [Eh]
	-----------------------------------------------------------

  Dipole Moment: [D]
     X:     2.8373      Y:    -3.5011      Z:     0.0000     Total:     4.5064

*** Psi4 exiting successfully. Buy a developer a beer!
