                               Psi4 1.4a3.dev225

  ==> Input File <==

--------------------------------------------------------------------------
#psi4
#
memory 32 gb

molecule  {
0 1
  O        1.0820120     1.3681640     0.0000000
  O       -3.8882340     0.1997640    -0.0000030
  C        2.1679760    -0.7815440    -0.0000070
  C        3.4943680    -0.0370920     0.0000040
  C        0.9697220     0.1420900     0.0000000
  C       -0.3759970    -0.5069640     0.0000040
  C       -1.5077040     0.2230700     0.0000000
  C       -2.8299410    -0.4231870     0.0000020
  H        2.0818540    -1.4423830    -0.8738950
  H        2.0818510    -1.4424050     0.8738640
  H        3.5776630     0.6025590    -0.8807220
  H        3.5776700     0.6025230     0.8807550
  H        4.3292850    -0.7422630    -0.0000140
  H       -0.4245321    -1.6164639     0.0000101
  H       -1.4638710     1.3098110    -0.0000060
  H       -2.8215620    -1.5330200     0.0000110
units angstrom
no_reorient  #important for SAPT in psi4, default
symmetry c1  #important for SAPT in psi4, default
}

set PROPERTIES_ORIGIN ["COM"]
properties('MP2/aug-cc-pvtz', properties = ['dipole'])
--------------------------------------------------------------------------

    Molecular point group: c1
  Charge       = 0
  Multiplicity = 1
  Basis Set: AUG-CC-PVTZ
    Blend: AUG-CC-PVTZ
  Basis Set: (AUG-CC-PVTZ AUX)
    Blend: AUG-CC-PVTZ-JKFIT

    Orbital Energies [Eh]
    ---------------------

    Doubly Occupied:

       1A    -20.574077     2A    -20.564314     3A    -11.354605
       4A    -11.351684     5A    -11.284883     6A    -11.278683
       7A    -11.257476     8A    -11.228729     9A     -1.395043
      10A     -1.393672    11A     -1.113651    12A     -1.069669
      13A     -0.954182    14A     -0.878880    15A     -0.800644
      16A     -0.754938    17A     -0.695217    18A     -0.684764
      19A     -0.645943    20A     -0.636814    21A     -0.629606
      22A     -0.572112    23A     -0.554380    24A     -0.543577
      25A     -0.536320    26A     -0.528542    27A     -0.502289
      28A     -0.451618    29A     -0.435855    30A     -0.404457

  @DF-RHF Final Energy:  -381.70197108354648

   => Energetics <=

    Nuclear Repulsion Energy =            330.7573975263027251
    One-Electron Energy =               -1174.7654890619689922
    Two-Electron Energy =                 462.3061204521197851
    Total Energy =                       -381.7019710835464821
  Basis Set: (AUG-CC-PVTZ AUX)
    Blend: AUG-CC-PVTZ-RI
    Molecular point group: c1

    Geometry (in Angstrom), charge = 0, multiplicity = 1:

       Center              X                  Y                   Z               Mass
    ------------   -----------------  -----------------  -----------------  -----------------
         O            1.178754591295     1.330856811542     0.000000079074    15.994914619570
         O           -3.791491408705     0.162456811542    -0.000002920926    15.994914619570
         C            2.264718591295    -0.818851188458    -0.000006920926    12.000000000000
         C            3.591110591295    -0.074399188458     0.000004079074    12.000000000000
         C            1.066464591295     0.104782811542     0.000000079074    12.000000000000
         C           -0.279254408705    -0.544271188458     0.000004079074    12.000000000000
         C           -1.410961408705     0.185762811542     0.000000079074    12.000000000000
         C           -2.733198408705    -0.460494188458     0.000002079074    12.000000000000
         H            2.178596591295    -1.479690188458    -0.873894920926     1.007825032230
         H            2.178593591295    -1.479712188458     0.873864079074     1.007825032230
         H            3.674405591295     0.565251811542    -0.880721920926     1.007825032230
         H            3.674412591295     0.565215811542     0.880755079074     1.007825032230
         H            4.426027591295    -0.779570188458    -0.000013920926     1.007825032230
         H           -0.327789508705    -1.653771088458     0.000010179074     1.007825032230
         H           -1.367128408705     1.272503811542    -0.000005920926     1.007825032230
         H           -2.724819408705    -1.570327188458     0.000011079074     1.007825032230

  Basis Set: AUG-CC-PVTZ
    Blend: AUG-CC-PVTZ
  Basis Set: (AUG-CC-PVTZ AUX)
    Blend: AUG-CC-PVTZ-JKFIT
	 Reference Energy          =    -381.7019710835464821 [Eh]
	 Singles Energy            =      -0.0000000000000000 [Eh]
	 Same-Spin Energy          =      -0.3774817133368088 [Eh]
	 Opposite-Spin Energy      =      -1.2241558907164736 [Eh]
	 Correlation Energy        =      -1.6016376040532823 [Eh]
	 Total Energy              =    -383.3036086875997626 [Eh]

	 ================> DF-SCS-MP2 Energies <==================
	-----------------------------------------------------------
	 SCS Same-Spin Scale       =       0.3333333333333333 [-]
	 SCS Opposite-Spin Scale   =       1.2000000000000000 [-]
	 SCS Same-Spin Energy      =      -0.1258272377789363 [Eh]
	 SCS Opposite-Spin Energy  =      -1.4689870688597682 [Eh]
	 SCS Correlation Energy    =      -1.5948143066387044 [Eh]
	 SCS Total Energy          =    -383.2967853901851640 [Eh]
	-----------------------------------------------------------

  Dipole Moment: [D]
     X:     2.7732      Y:    -3.4976      Z:     0.0000     Total:     4.4636

*** Psi4 exiting successfully. Buy a developer a beer!
