                               Psi4 1.3.2 release

  ==> Input File <==

--------------------------------------------------------------------------
#psi4
#
memory 32 gb

molecule  {
0 1
  O        1.1855920    -1.3251230    -0.0110750
  O       -3.7874790    -0.1788050    -0.0307850
  C        2.2579520     0.8287430     0.0207180
  C        3.5859950     0.0918750    -0.0061980
  C        1.0665970    -0.1008810     0.0170560
  C       -0.2810060     0.5415760     0.0240110
  C       -1.4085440    -0.1910960     0.0012370
  C       -2.7329950     0.4481680    -0.0067340
  H        2.1768340     1.4746290     0.9052650
  H        2.1584520     1.5067170    -0.8392700
  H        3.6798240    -0.5618240     0.8622080
  H        3.6612870    -0.5322660    -0.8978130
  H        4.4176170     0.8001410    -0.0031560
  H       -0.3384719     1.7308107     0.0430062
  H       -1.3609630    -1.2775220    -0.0163660
  H       -2.7297600     1.5577740     0.0156350
units angstrom
no_reorient  #important for SAPT in psi4, default
symmetry c1  #important for SAPT in psi4, default
}

set PROPERTIES_ORIGIN ["COM"]
properties('MP2/aug-cc-pvtz', properties = ['dipole'])
--------------------------------------------------------------------------

    Molecular point group: c1
  Charge       = 0
  Multiplicity = 1
  Basis Set: AUG-CC-PVTZ
    Blend: AUG-CC-PVTZ
  Basis Set: (AUG-CC-PVTZ AUX)
    Blend: AUG-CC-PVTZ-JKFIT

    Orbital Energies [Eh]
    ---------------------

    Doubly Occupied:

       1A    -20.574051     2A    -20.565048     3A    -11.355268
       4A    -11.351387     5A    -11.292865     6A    -11.278863
       7A    -11.256899     8A    -11.228188     9A     -1.396029
      10A     -1.394730    11A     -1.112255    12A     -1.070353
      13A     -0.953671    14A     -0.878391    15A     -0.798483
      16A     -0.751252    17A     -0.693340    18A     -0.680595
      19A     -0.646087    20A     -0.637569    21A     -0.629635
      22A     -0.564081    23A     -0.555007    24A     -0.543081
      25A     -0.536806    26A     -0.528846    27A     -0.502232
      28A     -0.451669    29A     -0.436224    30A     -0.405328

  @DF-RHF Final Energy:  -381.69559463028889

   => Energetics <=

    Nuclear Repulsion Energy =            330.6891498603542914
    One-Electron Energy =               -1174.6330253581643319
    Two-Electron Energy =                 462.2482808675211459
    Total Energy =                       -381.6955946302888947
  Basis Set: (AUG-CC-PVTZ AUX)
    Blend: AUG-CC-PVTZ-RI
    Molecular point group: c1

    Geometry (in Angstrom), charge = 0, multiplicity = 1:

       Center              X                  Y                   Z               Mass
    ------------   -----------------  -----------------  -----------------  -----------------
         O            1.185635512929    -1.326021198683    -0.011089153961    15.994914619570
         O           -3.787435487071    -0.179703198683    -0.030799153961    15.994914619570
         C            2.257995512929     0.827844801317     0.020703846039    12.000000000000
         C            3.586038512929     0.090976801317    -0.006212153961    12.000000000000
         C            1.066640512929    -0.101779198683     0.017041846039    12.000000000000
         C           -0.280962487071     0.540677801317     0.023996846039    12.000000000000
         C           -1.408500487071    -0.191994198683     0.001222846039    12.000000000000
         C           -2.732951487071     0.447269801317    -0.006748153961    12.000000000000
         H            2.176877512929     1.473730801317     0.905250846039     1.007825032230
         H            2.158495512929     1.505818801317    -0.839284153961     1.007825032230
         H            3.679867512929    -0.562722198683     0.862193846039     1.007825032230
         H            3.661330512929    -0.533164198683    -0.897827153961     1.007825032230
         H            4.417660512929     0.799242801317    -0.003170153961     1.007825032230
         H           -0.338428387071     1.729912501317     0.042992046039     1.007825032230
         H           -1.360919487071    -1.278420198683    -0.016380153961     1.007825032230
         H           -2.729716487071     1.556875801317     0.015620846039     1.007825032230

  Basis Set: AUG-CC-PVTZ
    Blend: AUG-CC-PVTZ
  Basis Set: (AUG-CC-PVTZ AUX)
    Blend: AUG-CC-PVTZ-JKFIT
	 Reference Energy          =    -381.6955946302888947 [Eh]
	 Singles Energy            =      -0.0000000000000000 [Eh]
	 Same-Spin Energy          =      -0.3777217650921692 [Eh]
	 Opposite-Spin Energy      =      -1.2247501339399414 [Eh]
	 Correlation Energy        =      -1.6024718990321105 [Eh]
	 Total Energy              =    -383.2980665293209768 [Eh]

	 ================> DF-SCS-MP2 Energies <==================
	-----------------------------------------------------------
	 SCS Same-Spin Scale       =       0.3333333333333333 [-]
	 SCS Opposite-Spin Scale   =       1.2000000000000000 [-]
	 SCS Same-Spin Energy      =      -0.1259072550307231 [Eh]
	 SCS Opposite-Spin Energy  =      -1.4697001607279296 [Eh]
	 SCS Correlation Energy    =      -1.5956074157586526 [Eh]
	 SCS Total Energy          =    -383.2912020460475446 [Eh]
	-----------------------------------------------------------

  Dipole Moment: [D]
     X:     2.7582      Y:     3.4812      Z:     0.0894     Total:     4.4423

*** Psi4 exiting successfully. Buy a developer a beer!
