                               Psi4 1.3.2 release

  ==> Input File <==

--------------------------------------------------------------------------
#psi4
#
memory 32 gb

molecule  {
0 1
  O        1.1855920    -1.3251230    -0.0110750
  O       -3.7874790    -0.1788050    -0.0307850
  C        2.2579520     0.8287430     0.0207180
  C        3.5859950     0.0918750    -0.0061980
  C        1.0433552    -0.1475063     0.0158770
  C       -0.2810060     0.5415760     0.0240110
  C       -1.3822762    -0.2299940     0.0005077
  C       -2.7329950     0.4481680    -0.0067340
  H        2.1768340     1.4746290     0.9052650
  H        2.1584520     1.5067170    -0.8392700
  H        3.6798240    -0.5618240     0.8622080
  H        3.6612870    -0.5322660    -0.8978130
  H        4.4176170     0.8001410    -0.0031560
  H       -0.3336460     1.6309400     0.0414110
  H       -1.3609630    -1.2775220    -0.0163660
  H       -2.7297600     1.5577740     0.0156350
units angstrom
no_reorient  #important for SAPT in psi4, default
symmetry c1  #important for SAPT in psi4, default
}

set PROPERTIES_ORIGIN ["COM"]
properties('MP2/aug-cc-pvtz', properties = ['dipole'])
--------------------------------------------------------------------------

    Molecular point group: c1
  Charge       = 0
  Multiplicity = 1
  Basis Set: AUG-CC-PVTZ
    Blend: AUG-CC-PVTZ
  Basis Set: (AUG-CC-PVTZ AUX)
    Blend: AUG-CC-PVTZ-JKFIT

    Orbital Energies [Eh]
    ---------------------

    Doubly Occupied:

       1A    -20.574288     2A    -20.565058     3A    -11.353990
       4A    -11.348240     5A    -11.279301     6A    -11.277495
       7A    -11.252297     8A    -11.224888     9A     -1.423204
      10A     -1.395040    11A     -1.112805    12A     -1.059730
      13A     -0.945757    14A     -0.869786    15A     -0.806180
      16A     -0.755604    17A     -0.698721    18A     -0.684623
      19A     -0.642257    20A     -0.641349    21A     -0.629461
      22A     -0.590061    23A     -0.559118    24A     -0.542387
      25A     -0.540633    26A     -0.526883    27A     -0.503569
      28A     -0.449724    29A     -0.423474    30A     -0.406988

  @DF-RHF Final Energy:  -381.70201087826877

   => Energetics <=

    Nuclear Repulsion Energy =            331.3357362607060281
    One-Electron Energy =               -1175.9096779466162843
    Two-Electron Energy =                 462.8719308076415473
    Total Energy =                       -381.7020108782687657
  Basis Set: (AUG-CC-PVTZ AUX)
    Blend: AUG-CC-PVTZ-RI
    Molecular point group: c1

    Geometry (in Angstrom), charge = 0, multiplicity = 1:

       Center              X                  Y                   Z               Mass
    ------------   -----------------  -----------------  -----------------  -----------------
         O            1.185268045101    -1.315964015662    -0.010870441323    15.994914619570
         O           -3.787802954899    -0.169646015662    -0.030580441323    15.994914619570
         C            2.257628045101     0.837901984338     0.020922558677    12.000000000000
         C            3.585671045101     0.101033984338    -0.005993441323    12.000000000000
         C            1.043031245101    -0.138347315662     0.016081558677    12.000000000000
         C           -0.281329954899     0.550734984338     0.024215558677    12.000000000000
         C           -1.382600154899    -0.220835015662     0.000712258677    12.000000000000
         C           -2.733318954899     0.457326984338    -0.006529441323    12.000000000000
         H            2.176510045101     1.483787984338     0.905469558677     1.007825032230
         H            2.158128045101     1.515875984338    -0.839065441323     1.007825032230
         H            3.679500045101    -0.552665015662     0.862412558677     1.007825032230
         H            3.660963045101    -0.523107015662    -0.897608441323     1.007825032230
         H            4.417293045101     0.809299984338    -0.002951441323     1.007825032230
         H           -0.333969954899     1.640098984338     0.041615558677     1.007825032230
         H           -1.361286954899    -1.268363015662    -0.016161441323     1.007825032230
         H           -2.730083954899     1.566932984338     0.015839558677     1.007825032230

  Basis Set: AUG-CC-PVTZ
    Blend: AUG-CC-PVTZ
  Basis Set: (AUG-CC-PVTZ AUX)
    Blend: AUG-CC-PVTZ-JKFIT
	 Reference Energy          =    -381.7020108782687657 [Eh]
	 Singles Energy            =      -0.0000000000000000 [Eh]
	 Same-Spin Energy          =      -0.3757671617127249 [Eh]
	 Opposite-Spin Energy      =      -1.2207264597784193 [Eh]
	 Correlation Energy        =      -1.5964936214911443 [Eh]
	 Total Energy              =    -383.2985044997599289 [Eh]

	 ================> DF-SCS-MP2 Energies <==================
	-----------------------------------------------------------
	 SCS Same-Spin Scale       =       0.3333333333333333 [-]
	 SCS Opposite-Spin Scale   =       1.2000000000000000 [-]
	 SCS Same-Spin Energy      =      -0.1252557205709083 [Eh]
	 SCS Opposite-Spin Energy  =      -1.4648717517341032 [Eh]
	 SCS Correlation Energy    =      -1.5901274723050114 [Eh]
	 SCS Total Energy          =    -383.2921383505737936 [Eh]
	-----------------------------------------------------------

  Dipole Moment: [D]
     X:     2.4568      Y:     3.3332      Z:     0.0875     Total:     4.1418

*** Psi4 exiting successfully. Buy a developer a beer!
