                               Psi4 1.4a3.dev225

  ==> Input File <==

--------------------------------------------------------------------------
#psi4
#
memory 32 gb

molecule  {
0 1
  O        1.0820120     1.3681640     0.0000000
  O       -3.8882340     0.1997640    -0.0000030
  C        2.1679760    -0.7815440    -0.0000070
  C        3.4943680    -0.0370920     0.0000040
  C        0.9697220     0.1420900     0.0000000
  C       -0.3759970    -0.5069640     0.0000040
  C       -1.5077040     0.2230700     0.0000000
  C       -2.8299410    -0.4231870     0.0000020
  H        2.0818540    -1.4423830    -0.8738950
  H        2.0818510    -1.4424050     0.8738640
  H        3.5776630     0.6025590    -0.8807220
  H        3.5776700     0.6025230     0.8807550
  H        4.3292850    -0.7422630    -0.0000140
  H       -0.4214728    -1.5465308     0.0000097
  H       -1.4638710     1.3098110    -0.0000060
  H       -2.8215620    -1.5330200     0.0000110
units angstrom
no_reorient  #important for SAPT in psi4, default
symmetry c1  #important for SAPT in psi4, default
}

set PROPERTIES_ORIGIN ["COM"]
properties('MP2/aug-cc-pvtz', properties = ['dipole'])
--------------------------------------------------------------------------

    Molecular point group: c1
  Charge       = 0
  Multiplicity = 1
  Basis Set: AUG-CC-PVTZ
    Blend: AUG-CC-PVTZ
  Basis Set: (AUG-CC-PVTZ AUX)
    Blend: AUG-CC-PVTZ-JKFIT

    Orbital Energies [Eh]
    ---------------------

    Doubly Occupied:

       1A    -20.574123     2A    -20.563681     3A    -11.353757
       4A    -11.351705     5A    -11.278716     6A    -11.276486
       7A    -11.257551     8A    -11.228776     9A     -1.394913
      10A     -1.393228    11A     -1.116181    12A     -1.069684
      13A     -0.955348    14A     -0.879770    15A     -0.803576
      16A     -0.759362    17A     -0.699378    18A     -0.686672
      19A     -0.645958    20A     -0.636592    21A     -0.629894
      22A     -0.578043    23A     -0.554232    24A     -0.543860
      25A     -0.536158    26A     -0.528525    27A     -0.502183
      28A     -0.451608    29A     -0.435577    30A     -0.404154

  @DF-RHF Final Energy:  -381.70193184237468

   => Energetics <=

    Nuclear Repulsion Energy =            331.0947735886595069
    One-Electron Energy =               -1175.4140265383045971
    Two-Electron Energy =                 462.6173211072703566
    Total Energy =                       -381.7019318423746768
  Basis Set: (AUG-CC-PVTZ AUX)
    Blend: AUG-CC-PVTZ-RI
    Molecular point group: c1

    Geometry (in Angstrom), charge = 0, multiplicity = 1:

       Center              X                  Y                   Z               Mass
    ------------   -----------------  -----------------  -----------------  -----------------
         O            1.178727075255     1.330227817337     0.000000082672    15.994914619570
         O           -3.791518924745     0.161827817337    -0.000002917328    15.994914619570
         C            2.264691075255    -0.819480182663    -0.000006917328    12.000000000000
         C            3.591083075255    -0.075028182663     0.000004082672    12.000000000000
         C            1.066437075255     0.104153817337     0.000000082672    12.000000000000
         C           -0.279281924745    -0.544900182663     0.000004082672    12.000000000000
         C           -1.410988924745     0.185133817337     0.000000082672    12.000000000000
         C           -2.733225924745    -0.461123182663     0.000002082672    12.000000000000
         H            2.178569075255    -1.480319182663    -0.873894917328     1.007825032230
         H            2.178566075255    -1.480341182663     0.873864082672     1.007825032230
         H            3.674378075255     0.564622817337    -0.880721917328     1.007825032230
         H            3.674385075255     0.564586817337     0.880755082672     1.007825032230
         H            4.426000075255    -0.780199182663    -0.000013917328     1.007825032230
         H           -0.324757724745    -1.584466982663     0.000009782672     1.007825032230
         H           -1.367155924745     1.271874817337    -0.000005917328     1.007825032230
         H           -2.724846924745    -1.570956182663     0.000011082672     1.007825032230

  Basis Set: AUG-CC-PVTZ
    Blend: AUG-CC-PVTZ
  Basis Set: (AUG-CC-PVTZ AUX)
    Blend: AUG-CC-PVTZ-JKFIT
	 Reference Energy          =    -381.7019318423746768 [Eh]
	 Singles Energy            =      -0.0000000000000000 [Eh]
	 Same-Spin Energy          =      -0.3772994840309181 [Eh]
	 Opposite-Spin Energy      =      -1.2236920105246849 [Eh]
	 Correlation Energy        =      -1.6009914945556030 [Eh]
	 Total Energy              =    -383.3029233369302915 [Eh]

	 ================> DF-SCS-MP2 Energies <==================
	-----------------------------------------------------------
	 SCS Same-Spin Scale       =       0.3333333333333333 [-]
	 SCS Opposite-Spin Scale   =       1.2000000000000000 [-]
	 SCS Same-Spin Energy      =      -0.1257664946769727 [Eh]
	 SCS Opposite-Spin Energy  =      -1.4684304126296219 [Eh]
	 SCS Correlation Energy    =      -1.5941969073065947 [Eh]
	 SCS Total Energy          =    -383.2961287496812588 [Eh]
	-----------------------------------------------------------

  Dipole Moment: [D]
     X:     2.7660      Y:    -3.5153      Z:     0.0000     Total:     4.4730

*** Psi4 exiting successfully. Buy a developer a beer!
