                               Psi4 1.3.2 release

  ==> Input File <==

--------------------------------------------------------------------------
#psi4
#
memory 32 gb

molecule  {
0 1
  O        1.1855920    -1.3251230    -0.0110750
  O       -3.7929123    -0.1695783    -0.0307148
  C        2.2579520     0.8287430     0.0207180
  C        3.5859950     0.0918750    -0.0061980
  C        1.0665970    -0.1008810     0.0170560
  C       -0.2810060     0.5415760     0.0240110
  C       -1.4030181    -0.1795153     0.0014923
  C       -2.7329950     0.4481680    -0.0067340
  H        2.1768340     1.4746290     0.9052650
  H        2.1584520     1.5067170    -0.8392700
  H        3.6798240    -0.5618240     0.8622080
  H        3.6612870    -0.5322660    -0.8978130
  H        4.4176170     0.8001410    -0.0031560
  H       -0.3336460     1.6309400     0.0414110
  H       -1.3609630    -1.2775220    -0.0163660
  H       -2.7297600     1.5577740     0.0156350
units angstrom
no_reorient  #important for SAPT in psi4, default
symmetry c1  #important for SAPT in psi4, default
}

set PROPERTIES_ORIGIN ["COM"]
properties('MP2/aug-cc-pvtz', properties = ['dipole'])
--------------------------------------------------------------------------

    Molecular point group: c1
  Charge       = 0
  Multiplicity = 1
  Basis Set: AUG-CC-PVTZ
    Blend: AUG-CC-PVTZ
  Basis Set: (AUG-CC-PVTZ AUX)
    Blend: AUG-CC-PVTZ-JKFIT

    Orbital Energies [Eh]
    ---------------------

    Doubly Occupied:

       1A    -20.574478     2A    -20.564464     3A    -11.354305
       4A    -11.351434     5A    -11.281109     6A    -11.277300
       7A    -11.257264     8A    -11.228432     9A     -1.395712
      10A     -1.394388    11A     -1.117287    12A     -1.070810
      13A     -0.954953    14A     -0.880056    15A     -0.799610
      16A     -0.757029    17A     -0.696837    18A     -0.686624
      19A     -0.646349    20A     -0.637560    21A     -0.630274
      22A     -0.570702    23A     -0.555152    24A     -0.544261
      25A     -0.536661    26A     -0.529033    27A     -0.502314
      28A     -0.451324    29A     -0.436085    30A     -0.407342

  @DF-RHF Final Energy:  -381.70303717273697

   => Energetics <=

    Nuclear Repulsion Energy =            331.1998377066814783
    One-Electron Energy =               -1175.6274527572786610
    Two-Electron Energy =                 462.7245778778602130
    Total Energy =                       -381.7030371727369698
  Basis Set: (AUG-CC-PVTZ AUX)
    Blend: AUG-CC-PVTZ-RI
    Molecular point group: c1

    Geometry (in Angstrom), charge = 0, multiplicity = 1:

       Center              X                  Y                   Z               Mass
    ------------   -----------------  -----------------  -----------------  -----------------
         O            1.185775899950    -1.327680212130    -0.011112167836    15.994914619570
         O           -3.792728400050    -0.172135512130    -0.030751967836    15.994914619570
         C            2.258135899950     0.826185787870     0.020680832164    12.000000000000
         C            3.586178899950     0.089317787870    -0.006235167836    12.000000000000
         C            1.066780899950    -0.103438212130     0.017018832164    12.000000000000
         C           -0.280822100050     0.539018787870     0.023973832164    12.000000000000
         C           -1.402834200050    -0.182072512130     0.001455132164    12.000000000000
         C           -2.732811100050     0.445610787870    -0.006771167836    12.000000000000
         H            2.177017899950     1.472071787870     0.905227832164     1.007825032230
         H            2.158635899950     1.504159787870    -0.839307167836     1.007825032230
         H            3.680007899950    -0.564381212130     0.862170832164     1.007825032230
         H            3.661470899950    -0.534823212130    -0.897850167836     1.007825032230
         H            4.417800899950     0.797583787870    -0.003193167836     1.007825032230
         H           -0.333462100050     1.628382787870     0.041373832164     1.007825032230
         H           -1.360779100050    -1.280079212130    -0.016403167836     1.007825032230
         H           -2.729576100050     1.555216787870     0.015597832164     1.007825032230

  Basis Set: AUG-CC-PVTZ
    Blend: AUG-CC-PVTZ
  Basis Set: (AUG-CC-PVTZ AUX)
    Blend: AUG-CC-PVTZ-JKFIT
	 Reference Energy          =    -381.7030371727369698 [Eh]
	 Singles Energy            =      -0.0000000000000000 [Eh]
	 Same-Spin Energy          =      -0.3773532613760774 [Eh]
	 Opposite-Spin Energy      =      -1.2236646328831831 [Eh]
	 Correlation Energy        =      -1.6010178942592606 [Eh]
	 Total Energy              =    -383.3040550669962272 [Eh]

	 ================> DF-SCS-MP2 Energies <==================
	-----------------------------------------------------------
	 SCS Same-Spin Scale       =       0.3333333333333333 [-]
	 SCS Opposite-Spin Scale   =       1.2000000000000000 [-]
	 SCS Same-Spin Energy      =      -0.1257844204586925 [Eh]
	 SCS Opposite-Spin Energy  =      -1.4683975594598195 [Eh]
	 SCS Correlation Energy    =      -1.5941819799185120 [Eh]
	 SCS Total Energy          =    -383.2972191526554866 [Eh]
	-----------------------------------------------------------

  Dipole Moment: [D]
     X:     2.7705      Y:     3.4944      Z:     0.0899     Total:     4.4604

*** Psi4 exiting successfully. Buy a developer a beer!
