                               Psi4 1.3.2 release

  ==> Input File <==

--------------------------------------------------------------------------
#psi4
#
memory 32 gb

molecule  {
0 1
  O        1.1855920    -1.3251230    -0.0110750
  O       -3.7874790    -0.1788050    -0.0307850
  C        2.2579520     0.8287430     0.0207180
  C        3.5859950     0.0918750    -0.0061980
  C        1.0665970    -0.1008810     0.0170560
  C       -0.2810060     0.5415760     0.0240110
  C       -1.4085440    -0.1910960     0.0012370
  C       -2.8230522     0.4916353    -0.0072760
  H        2.1768340     1.4746290     0.9052650
  H        2.1584520     1.5067170    -0.8392700
  H        3.6798240    -0.5618240     0.8622080
  H        3.6612870    -0.5322660    -0.8978130
  H        4.4176170     0.8001410    -0.0031560
  H       -0.3336460     1.6309400     0.0414110
  H       -1.3609630    -1.2775220    -0.0163660
  H       -2.7297600     1.5577740     0.0156350
units angstrom
no_reorient  #important for SAPT in psi4, default
symmetry c1  #important for SAPT in psi4, default
}

set PROPERTIES_ORIGIN ["COM"]
properties('MP2/aug-cc-pvtz', properties = ['dipole'])
--------------------------------------------------------------------------

    Molecular point group: c1
  Charge       = 0
  Multiplicity = 1
  Basis Set: AUG-CC-PVTZ
    Blend: AUG-CC-PVTZ
  Basis Set: (AUG-CC-PVTZ AUX)
    Blend: AUG-CC-PVTZ-JKFIT

    Orbital Energies [Eh]
    ---------------------

    Doubly Occupied:

       1A    -20.580913     2A    -20.556935     3A    -11.352926
       4A    -11.347958     5A    -11.276353     6A    -11.270258
       7A    -11.252606     8A    -11.224918     9A     -1.435849
      10A     -1.388118    11A     -1.100423    12A     -1.063366
      13A     -0.941122    14A     -0.873009    15A     -0.807267
      16A     -0.748668    17A     -0.693687    18A     -0.690555
      19A     -0.647915    20A     -0.641841    21A     -0.631193
      22A     -0.570298    23A     -0.569520    24A     -0.540374
      25A     -0.537631    26A     -0.525085    27A     -0.498227
      28A     -0.448142    29A     -0.425916    30A     -0.400644

  @DF-RHF Final Energy:  -381.69963297250973

   => Energetics <=

    Nuclear Repulsion Energy =            330.5828759501469563
    One-Electron Energy =               -1174.4815798695576632
    Two-Electron Energy =                 462.1990709469010312
    Total Energy =                       -381.6996329725097326
  Basis Set: (AUG-CC-PVTZ AUX)
    Blend: AUG-CC-PVTZ-RI
    Molecular point group: c1

    Geometry (in Angstrom), charge = 0, multiplicity = 1:

       Center              X                  Y                   Z               Mass
    ------------   -----------------  -----------------  -----------------  -----------------
         O            1.195236578626    -1.329777970495    -0.011016762113    15.994914619570
         O           -3.777834421374    -0.183459970495    -0.030726762113    15.994914619570
         C            2.267596578626     0.824088029505     0.020776237887    12.000000000000
         C            3.595639578626     0.087220029505    -0.006139762113    12.000000000000
         C            1.076241578626    -0.105535970495     0.017114237887    12.000000000000
         C           -0.271361421374     0.536921029505     0.024069237887    12.000000000000
         C           -1.398899421374    -0.195750970495     0.001295237887    12.000000000000
         C           -2.813407621374     0.486980329505    -0.007217762113    12.000000000000
         H            2.186478578626     1.469974029505     0.905323237887     1.007825032230
         H            2.168096578626     1.502062029505    -0.839211762113     1.007825032230
         H            3.689468578626    -0.566478970495     0.862266237887     1.007825032230
         H            3.670931578626    -0.536920970495    -0.897754762113     1.007825032230
         H            4.427261578626     0.795486029505    -0.003097762113     1.007825032230
         H           -0.324001421374     1.626285029505     0.041469237887     1.007825032230
         H           -1.351318421374    -1.282176970495    -0.016307762113     1.007825032230
         H           -2.720115421374     1.553119029505     0.015693237887     1.007825032230

  Basis Set: AUG-CC-PVTZ
    Blend: AUG-CC-PVTZ
  Basis Set: (AUG-CC-PVTZ AUX)
    Blend: AUG-CC-PVTZ-JKFIT
	 Reference Energy          =    -381.6996329725097326 [Eh]
	 Singles Energy            =      -0.0000000000000000 [Eh]
	 Same-Spin Energy          =      -0.3753477901226198 [Eh]
	 Opposite-Spin Energy      =      -1.2199151096011236 [Eh]
	 Correlation Energy        =      -1.5952628997237435 [Eh]
	 Total Energy              =    -383.2948958722334964 [Eh]

	 ================> DF-SCS-MP2 Energies <==================
	-----------------------------------------------------------
	 SCS Same-Spin Scale       =       0.3333333333333333 [-]
	 SCS Opposite-Spin Scale   =       1.2000000000000000 [-]
	 SCS Same-Spin Energy      =      -0.1251159300408732 [Eh]
	 SCS Opposite-Spin Energy  =      -1.4638981315213482 [Eh]
	 SCS Correlation Energy    =      -1.5890140615622215 [Eh]
	 SCS Total Energy          =    -383.2886470340719711 [Eh]
	-----------------------------------------------------------

  Dipole Moment: [D]
     X:     2.0417      Y:     3.6210      Z:     0.0839     Total:     4.1578

*** Psi4 exiting successfully. Buy a developer a beer!
