                               Psi4 1.3.2 release

  ==> Input File <==

--------------------------------------------------------------------------
#psi4
#
memory 32 gb

molecule  {
0 1
  O        1.1213463    -1.3296912    -0.0102867
  O       -3.7874790    -0.1788050    -0.0307850
  C        2.2076784     0.8897965     0.0227332
  C        3.5859950     0.0918750    -0.0061980
  C        1.0665970    -0.1008810     0.0170560
  C       -0.2810060     0.5415760     0.0240110
  C       -1.4085440    -0.1910960     0.0012370
  C       -2.7329950     0.4481680    -0.0067340
  H        2.1768340     1.4746290     0.9052650
  H        2.1584520     1.5067170    -0.8392700
  H        3.6798240    -0.5618240     0.8622080
  H        3.6612870    -0.5322660    -0.8978130
  H        4.4176170     0.8001410    -0.0031560
  H       -0.3336460     1.6309400     0.0414110
  H       -1.3609630    -1.2775220    -0.0163660
  H       -2.7297600     1.5577740     0.0156350
units angstrom
no_reorient  #important for SAPT in psi4, default
symmetry c1  #important for SAPT in psi4, default
}

set PROPERTIES_ORIGIN ["COM"]
properties('MP2/aug-cc-pvtz', properties = ['dipole'])
--------------------------------------------------------------------------

    Molecular point group: c1
  Charge       = 0
  Multiplicity = 1
  Basis Set: AUG-CC-PVTZ
    Blend: AUG-CC-PVTZ
  Basis Set: (AUG-CC-PVTZ AUX)
    Blend: AUG-CC-PVTZ-JKFIT

    Orbital Energies [Eh]
    ---------------------

    Doubly Occupied:

       1A    -20.571628     2A    -20.566934     3A    -11.355490
       4A    -11.349022     5A    -11.277159     6A    -11.274150
       7A    -11.256914     8A    -11.233395     9A     -1.396191
      10A     -1.392856    11A     -1.112542    12A     -1.066398
      13A     -0.950874    14A     -0.880633    15A     -0.800711
      16A     -0.758954    17A     -0.696018    18A     -0.682927
      19A     -0.656542    20A     -0.637131    21A     -0.628722
      22A     -0.570744    23A     -0.553783    24A     -0.540702
      25A     -0.537673    26A     -0.516963    27A     -0.516214
      28A     -0.450099    29A     -0.434818    30A     -0.401502

  @DF-RHF Final Energy:  -381.69604961276366

   => Energetics <=

    Nuclear Repulsion Energy =            330.9065369647875059
    One-Electron Energy =               -1175.0697904354524326
    Two-Electron Energy =                 462.4672038579012678
    Total Energy =                       -381.6960496127636588
  Basis Set: (AUG-CC-PVTZ AUX)
    Blend: AUG-CC-PVTZ-RI
    Molecular point group: c1

    Geometry (in Angstrom), charge = 0, multiplicity = 1:

       Center              X                  Y                   Z               Mass
    ------------   -----------------  -----------------  -----------------  -----------------
         O            1.135901091538    -1.335577437248    -0.010614845446    15.994914619570
         O           -3.772924208462    -0.184691237248    -0.031113145446    15.994914619570
         C            2.222233191538     0.883910262752     0.022405054554    12.000000000000
         C            3.600549791538     0.085988762752    -0.006526145446    12.000000000000
         C            1.081151791538    -0.106767237248     0.016727854554    12.000000000000
         C           -0.266451208462     0.535689762752     0.023682854554    12.000000000000
         C           -1.393989208462    -0.196982237248     0.000908854554    12.000000000000
         C           -2.718440208462     0.442281762752    -0.007062145446    12.000000000000
         H            2.191388791538     1.468742762752     0.904936854554     1.007825032230
         H            2.173006791538     1.500830762752    -0.839598145446     1.007825032230
         H            3.694378791538    -0.567710237248     0.861879854554     1.007825032230
         H            3.675841791538    -0.538152237248    -0.898141145446     1.007825032230
         H            4.432171791538     0.794254762752    -0.003484145446     1.007825032230
         H           -0.319091208462     1.625053762752     0.041082854554     1.007825032230
         H           -1.346408208462    -1.283408237248    -0.016694145446     1.007825032230
         H           -2.715205208462     1.551887762752     0.015306854554     1.007825032230

  Basis Set: AUG-CC-PVTZ
    Blend: AUG-CC-PVTZ
  Basis Set: (AUG-CC-PVTZ AUX)
    Blend: AUG-CC-PVTZ-JKFIT
	 Reference Energy          =    -381.6960496127636588 [Eh]
	 Singles Energy            =      -0.0000000000000000 [Eh]
	 Same-Spin Energy          =      -0.3771981986149796 [Eh]
	 Opposite-Spin Energy      =      -1.2240252796344460 [Eh]
	 Correlation Energy        =      -1.6012234782494255 [Eh]
	 Total Energy              =    -383.2972730910130963 [Eh]

	 ================> DF-SCS-MP2 Energies <==================
	-----------------------------------------------------------
	 SCS Same-Spin Scale       =       0.3333333333333333 [-]
	 SCS Opposite-Spin Scale   =       1.2000000000000000 [-]
	 SCS Same-Spin Energy      =      -0.1257327328716599 [Eh]
	 SCS Opposite-Spin Energy  =      -1.4688303355613350 [Eh]
	 SCS Correlation Energy    =      -1.5945630684329948 [Eh]
	 SCS Total Energy          =    -383.2906126811966487 [Eh]
	-----------------------------------------------------------

  Dipole Moment: [D]
     X:     2.9476      Y:     3.5113      Z:     0.0898     Total:     4.5854

*** Psi4 exiting successfully. Buy a developer a beer!
