                               Psi4 1.3.2 release

  ==> Input File <==

--------------------------------------------------------------------------
#psi4
#
memory 32 gb

molecule  {
0 1
  O        1.1855920    -1.3251230    -0.0110750
  O       -3.7874790    -0.1788050    -0.0307850
  C        2.2579520     0.8287430     0.0207180
  C        3.5859950     0.0918750    -0.0061980
  C        1.0665970    -0.1008810     0.0170560
  C       -0.2810060     0.5415760     0.0240110
  C       -1.3769219    -0.1209195     0.0031458
  C       -2.7329950     0.4481680    -0.0067340
  H        2.1768340     1.4746290     0.9052650
  H        2.1584520     1.5067170    -0.8392700
  H        3.6798240    -0.5618240     0.8622080
  H        3.6612870    -0.5322660    -0.8978130
  H        4.4176170     0.8001410    -0.0031560
  H       -0.3336460     1.6309400     0.0414110
  H       -1.3609630    -1.2775220    -0.0163660
  H       -2.6716875     1.5560657     0.0165139
units angstrom
no_reorient  #important for SAPT in psi4, default
symmetry c1  #important for SAPT in psi4, default
}

set PROPERTIES_ORIGIN ["COM"]
properties('MP2/aug-cc-pvtz', properties = ['dipole'])
--------------------------------------------------------------------------

    Molecular point group: c1
  Charge       = 0
  Multiplicity = 1
  Basis Set: AUG-CC-PVTZ
    Blend: AUG-CC-PVTZ
  Basis Set: (AUG-CC-PVTZ AUX)
    Blend: AUG-CC-PVTZ-JKFIT

    Orbital Energies [Eh]
    ---------------------

    Doubly Occupied:

       1A    -20.578905     2A    -20.565347     3A    -11.355153
       4A    -11.353932     5A    -11.273761     6A    -11.271128
       7A    -11.257733     8A    -11.228701     9A     -1.397116
      10A     -1.395207    11A     -1.128805    12A     -1.072138
      13A     -0.955479    14A     -0.884953    15A     -0.793864
      16A     -0.758930    17A     -0.696669    18A     -0.689171
      19A     -0.646834    20A     -0.643980    21A     -0.629072
      22A     -0.558114    23A     -0.551708    24A     -0.545152
      25A     -0.537539    26A     -0.529324    27A     -0.502805
      28A     -0.451337    29A     -0.435958    30A     -0.419178

  @DF-RHF Final Energy:  -381.69457572754169

   => Energetics <=

    Nuclear Repulsion Energy =            331.9004476079641108
    One-Electron Energy =               -1176.9740626329528368
    Two-Electron Energy =                 463.3790392974470365
    Total Energy =                       -381.6945757275416895
  Basis Set: (AUG-CC-PVTZ AUX)
    Blend: AUG-CC-PVTZ-RI
    Molecular point group: c1

    Geometry (in Angstrom), charge = 0, multiplicity = 1:

       Center              X                  Y                   Z               Mass
    ------------   -----------------  -----------------  -----------------  -----------------
         O            1.181683293561    -1.332622966662    -0.011287129989    15.994914619570
         O           -3.791387706439    -0.186304966662    -0.030997129989    15.994914619570
         C            2.254043293561     0.821243033338     0.020505870011    12.000000000000
         C            3.582086293561     0.084375033338    -0.006410129989    12.000000000000
         C            1.062688293561    -0.108380966662     0.016843870011    12.000000000000
         C           -0.284914706439     0.534076033338     0.023798870011    12.000000000000
         C           -1.380830606439    -0.128419466662     0.002933670011    12.000000000000
         C           -2.736903706439     0.440668033338    -0.006946129989    12.000000000000
         H            2.172925293561     1.467129033338     0.905052870011     1.007825032230
         H            2.154543293561     1.499217033338    -0.839482129989     1.007825032230
         H            3.675915293561    -0.569323966662     0.861995870011     1.007825032230
         H            3.657378293561    -0.539765966662    -0.898025129989     1.007825032230
         H            4.413708293561     0.792641033338    -0.003368129989     1.007825032230
         H           -0.337554706439     1.623440033338     0.041198870011     1.007825032230
         H           -1.364871706439    -1.285021966662    -0.016578129989     1.007825032230
         H           -2.675596206439     1.548565733338     0.016301770011     1.007825032230

  Basis Set: AUG-CC-PVTZ
    Blend: AUG-CC-PVTZ
  Basis Set: (AUG-CC-PVTZ AUX)
    Blend: AUG-CC-PVTZ-JKFIT
	 Reference Energy          =    -381.6945757275416895 [Eh]
	 Singles Energy            =      -0.0000000000000000 [Eh]
	 Same-Spin Energy          =      -0.3773920934753548 [Eh]
	 Opposite-Spin Energy      =      -1.2234439181784369 [Eh]
	 Correlation Energy        =      -1.6008360116537916 [Eh]
	 Total Energy              =    -383.2954117391954583 [Eh]

	 ================> DF-SCS-MP2 Energies <==================
	-----------------------------------------------------------
	 SCS Same-Spin Scale       =       0.3333333333333333 [-]
	 SCS Opposite-Spin Scale   =       1.2000000000000000 [-]
	 SCS Same-Spin Energy      =      -0.1257973644917849 [Eh]
	 SCS Opposite-Spin Energy  =      -1.4681327018141241 [Eh]
	 SCS Correlation Energy    =      -1.5939300663059091 [Eh]
	 SCS Total Energy          =    -383.2885057938476052 [Eh]
	-----------------------------------------------------------

  Dipole Moment: [D]
     X:     2.7612      Y:     3.5010      Z:     0.0894     Total:     4.4598

*** Psi4 exiting successfully. Buy a developer a beer!
