                               Psi4 1.3.2 release

  ==> Input File <==

--------------------------------------------------------------------------
#psi4
#
memory 32 gb

molecule  {
0 1
  O        1.1855920    -1.3251230    -0.0110750
  O       -3.7874790    -0.1788050    -0.0307850
  C        2.2579520     0.8287430     0.0207180
  C        3.5859950     0.0918750    -0.0061980
  C        1.0665970    -0.1008810     0.0170560
  C       -0.2810060     0.5415760     0.0240110
  C       -1.2408639    -0.0821378     0.0046238
  C       -2.7329950     0.4481680    -0.0067340
  H        2.1768340     1.4746290     0.9052650
  H        2.1584520     1.5067170    -0.8392700
  H        3.6798240    -0.5618240     0.8622080
  H        3.6612870    -0.5322660    -0.8978130
  H        4.4176170     0.8001410    -0.0031560
  H       -0.3336460     1.6309400     0.0414110
  H       -1.3609630    -1.2775220    -0.0163660
  H       -2.7297600     1.5577740     0.0156350
units angstrom
no_reorient  #important for SAPT in psi4, default
symmetry c1  #important for SAPT in psi4, default
}

set PROPERTIES_ORIGIN ["COM"]
properties('MP2/aug-cc-pvtz', properties = ['dipole'])
--------------------------------------------------------------------------

    Molecular point group: c1
  Charge       = 0
  Multiplicity = 1
  Basis Set: AUG-CC-PVTZ
    Blend: AUG-CC-PVTZ
  Basis Set: (AUG-CC-PVTZ AUX)
    Blend: AUG-CC-PVTZ-JKFIT

    Orbital Energies [Eh]
    ---------------------

    Doubly Occupied:

       1A    -20.583729     2A    -20.562925     3A    -11.361250
       4A    -11.352383     5A    -11.260775     6A    -11.256098
       7A    -11.245044     8A    -11.227434     9A     -1.398217
      10A     -1.393796    11A     -1.158319    12A     -1.071411
      13A     -0.940335    14A     -0.878761    15A     -0.791514
      16A     -0.756110    17A     -0.698994    18A     -0.691034
      19A     -0.647038    20A     -0.646086    21A     -0.627459
      22A     -0.561231    23A     -0.545687    24A     -0.537953
      25A     -0.536529    26A     -0.527464    27A     -0.503178
      28A     -0.451348    29A     -0.448353    30A     -0.419503

  @DF-RHF Final Energy:  -381.63178797523045

   => Energetics <=

    Nuclear Repulsion Energy =            333.2663455714872498
    One-Electron Energy =               -1179.6363525165145347
    Two-Electron Energy =                 464.7382189697968329
    Total Energy =                       -381.6317879752304520
  Basis Set: (AUG-CC-PVTZ AUX)
    Blend: AUG-CC-PVTZ-RI
    Molecular point group: c1

    Geometry (in Angstrom), charge = 0, multiplicity = 1:

       Center              X                  Y                   Z               Mass
    ------------   -----------------  -----------------  -----------------  -----------------
         O            1.167634788876    -1.336791569428    -0.011437508010    15.994914619570
         O           -3.805436211124    -0.190473569428    -0.031147508010    15.994914619570
         C            2.239994788876     0.817074430572     0.020355491990    12.000000000000
         C            3.568037788876     0.080206430572    -0.006560508010    12.000000000000
         C            1.048639788876    -0.112549569428     0.016693491990    12.000000000000
         C           -0.298963211124     0.529907430572     0.023648491990    12.000000000000
         C           -1.258821111124    -0.093806369428     0.004261291990    12.000000000000
         C           -2.750952211124     0.436499430572    -0.007096508010    12.000000000000
         H            2.158876788876     1.462960430572     0.904902491990     1.007825032230
         H            2.140494788876     1.495048430572    -0.839632508010     1.007825032230
         H            3.661866788876    -0.573492569428     0.861845491990     1.007825032230
         H            3.643329788876    -0.543934569428    -0.898175508010     1.007825032230
         H            4.399659788876     0.788472430572    -0.003518508010     1.007825032230
         H           -0.351603211124     1.619271430572     0.041048491990     1.007825032230
         H           -1.378920211124    -1.289190569428    -0.016728508010     1.007825032230
         H           -2.747717211124     1.546105430572     0.015272491990     1.007825032230

  Basis Set: AUG-CC-PVTZ
    Blend: AUG-CC-PVTZ
  Basis Set: (AUG-CC-PVTZ AUX)
    Blend: AUG-CC-PVTZ-JKFIT
	 Reference Energy          =    -381.6317879752304520 [Eh]
	 Singles Energy            =      -0.0000000000000000 [Eh]
	 Same-Spin Energy          =      -0.3770159702693459 [Eh]
	 Opposite-Spin Energy      =      -1.2220960549859310 [Eh]
	 Correlation Energy        =      -1.5991120252552768 [Eh]
	 Total Energy              =    -383.2309000004857467 [Eh]

	 ================> DF-SCS-MP2 Energies <==================
	-----------------------------------------------------------
	 SCS Same-Spin Scale       =       0.3333333333333333 [-]
	 SCS Opposite-Spin Scale   =       1.2000000000000000 [-]
	 SCS Same-Spin Energy      =      -0.1256719900897819 [Eh]
	 SCS Opposite-Spin Energy  =      -1.4665152659831171 [Eh]
	 SCS Correlation Energy    =      -1.5921872560728991 [Eh]
	 SCS Total Energy          =    -383.2239752313033705 [Eh]
	-----------------------------------------------------------

  Dipole Moment: [D]
     X:     2.4693      Y:     3.5398      Z:     0.0877     Total:     4.3168

*** Psi4 exiting successfully. Buy a developer a beer!
