                               Psi4 1.3.2 release

  ==> Input File <==

--------------------------------------------------------------------------
#psi4
#
memory 32 gb

molecule  {
0 1
  O        1.1855920    -1.3251230    -0.0110750
  O       -3.7874790    -0.1788050    -0.0307850
  C        2.2579520     0.8287430     0.0207180
  C        3.6227562     0.1623896    -0.0053537
  C        1.0195837    -0.0372713     0.0186648
  C       -0.2810060     0.5415760     0.0240110
  C       -1.4085440    -0.1910960     0.0012370
  C       -2.7329950     0.4481680    -0.0067340
  H        2.1768340     1.4746290     0.9052650
  H        2.1584520     1.5067170    -0.8392700
  H        3.6798240    -0.5618240     0.8622080
  H        3.6612870    -0.5322660    -0.8978130
  H        4.4176170     0.8001410    -0.0031560
  H       -0.3336460     1.6309400     0.0414110
  H       -1.3609630    -1.2775220    -0.0163660
  H       -2.7297600     1.5577740     0.0156350
units angstrom
no_reorient  #important for SAPT in psi4, default
symmetry c1  #important for SAPT in psi4, default
}

set PROPERTIES_ORIGIN ["COM"]
properties('MP2/aug-cc-pvtz', properties = ['dipole'])
--------------------------------------------------------------------------

    Molecular point group: c1
  Charge       = 0
  Multiplicity = 1
  Basis Set: AUG-CC-PVTZ
    Blend: AUG-CC-PVTZ
  Basis Set: (AUG-CC-PVTZ AUX)
    Blend: AUG-CC-PVTZ-JKFIT

    Orbital Energies [Eh]
    ---------------------

    Doubly Occupied:

       1A    -20.580544     2A    -20.557074     3A    -11.356733
       4A    -11.356533     5A    -11.288149     6A    -11.282919
       7A    -11.258688     8A    -11.228714     9A     -1.400960
      10A     -1.350617    11A     -1.125854    12A     -1.069256
      13A     -0.970036    14A     -0.885266    15A     -0.808678
      16A     -0.759158    17A     -0.697385    18A     -0.686847
      19A     -0.639501    20A     -0.638818    21A     -0.620608
      22A     -0.576075    23A     -0.562942    24A     -0.556244
      25A     -0.518955    26A     -0.516165    27A     -0.483783
      28A     -0.454545    29A     -0.441293    30A     -0.403455

  @DF-RHF Final Energy:  -381.67749223329412

   => Energetics <=

    Nuclear Repulsion Energy =            330.4383630612114757
    One-Electron Energy =               -1174.0801228107391125
    Two-Electron Energy =                 461.9642675162335195
    Total Energy =                       -381.6774922332941173
  Basis Set: (AUG-CC-PVTZ AUX)
    Blend: AUG-CC-PVTZ-RI
    Molecular point group: c1

    Geometry (in Angstrom), charge = 0, multiplicity = 1:

       Center              X                  Y                   Z               Mass
    ------------   -----------------  -----------------  -----------------  -----------------
         O            1.186690033011    -1.339486675651    -0.011337515533    15.994914619570
         O           -3.786380966989    -0.193168675651    -0.031047515533    15.994914619570
         C            2.259050033011     0.814379324349     0.020455484467    12.000000000000
         C            3.623854233011     0.148025924349    -0.005616215533    12.000000000000
         C            1.020681733011    -0.051634975651     0.018402284467    12.000000000000
         C           -0.279907966989     0.527212324349     0.023748484467    12.000000000000
         C           -1.407445966989    -0.205459675651     0.000974484467    12.000000000000
         C           -2.731896966989     0.433804324349    -0.006996515533    12.000000000000
         H            2.177932033011     1.460265324349     0.905002484467     1.007825032230
         H            2.159550033011     1.492353324349    -0.839532515533     1.007825032230
         H            3.680922033011    -0.576187675651     0.861945484467     1.007825032230
         H            3.662385033011    -0.546629675651    -0.898075515533     1.007825032230
         H            4.418715033011     0.785777324349    -0.003418515533     1.007825032230
         H           -0.332547966989     1.616576324349     0.041148484467     1.007825032230
         H           -1.359864966989    -1.291885675651    -0.016628515533     1.007825032230
         H           -2.728661966989     1.543410324349     0.015372484467     1.007825032230

  Basis Set: AUG-CC-PVTZ
    Blend: AUG-CC-PVTZ
  Basis Set: (AUG-CC-PVTZ AUX)
    Blend: AUG-CC-PVTZ-JKFIT
	 Reference Energy          =    -381.6774922332941173 [Eh]
	 Singles Energy            =      -0.0000000000000000 [Eh]
	 Same-Spin Energy          =      -0.3801849302935508 [Eh]
	 Opposite-Spin Energy      =      -1.2295790931949528 [Eh]
	 Correlation Energy        =      -1.6097640234885038 [Eh]
	 Total Energy              =    -383.2872562567825980 [Eh]

	 ================> DF-SCS-MP2 Energies <==================
	-----------------------------------------------------------
	 SCS Same-Spin Scale       =       0.3333333333333333 [-]
	 SCS Opposite-Spin Scale   =       1.2000000000000000 [-]
	 SCS Same-Spin Energy      =      -0.1267283100978503 [Eh]
	 SCS Opposite-Spin Energy  =      -1.4754949118339433 [Eh]
	 SCS Correlation Energy    =      -1.6022232219317936 [Eh]
	 SCS Total Energy          =    -383.2797154552259258 [Eh]
	-----------------------------------------------------------

  Dipole Moment: [D]
     X:     2.4421      Y:     3.6905      Z:     0.0910     Total:     4.4263

*** Psi4 exiting successfully. Buy a developer a beer!
