                               Psi4 1.3.2 release

  ==> Input File <==

--------------------------------------------------------------------------
#psi4
#
memory 32 gb

molecule  {
0 1
  O        1.1855920    -1.3251230    -0.0110750
  O       -3.7874790    -0.1788050    -0.0307850
  C        2.2579520     0.8287430     0.0207180
  C        3.5923775     0.1034923    -0.0060624
  C        1.0585311    -0.0904517     0.0173236
  C       -0.2810060     0.5415760     0.0240110
  C       -1.4085440    -0.1910960     0.0012370
  C       -2.7329950     0.4481680    -0.0067340
  H        2.1768340     1.4746290     0.9052650
  H        2.1584520     1.5067170    -0.8392700
  H        3.6798240    -0.5618240     0.8622080
  H        3.6612870    -0.5322660    -0.8978130
  H        4.4176170     0.8001410    -0.0031560
  H       -0.3336460     1.6309400     0.0414110
  H       -1.3609630    -1.2775220    -0.0163660
  H       -2.7297600     1.5577740     0.0156350
units angstrom
no_reorient  #important for SAPT in psi4, default
symmetry c1  #important for SAPT in psi4, default
}

set PROPERTIES_ORIGIN ["COM"]
properties('MP2/aug-cc-pvtz', properties = ['dipole'])
--------------------------------------------------------------------------

    Molecular point group: c1
  Charge       = 0
  Multiplicity = 1
  Basis Set: AUG-CC-PVTZ
    Blend: AUG-CC-PVTZ
  Basis Set: (AUG-CC-PVTZ AUX)
    Blend: AUG-CC-PVTZ-JKFIT

    Orbital Energies [Eh]
    ---------------------

    Doubly Occupied:

       1A    -20.575099     2A    -20.562889     3A    -11.354388
       4A    -11.352220     5A    -11.282639     6A    -11.279477
       7A    -11.257161     8A    -11.228165     9A     -1.396222
      10A     -1.386826    11A     -1.116706    12A     -1.070047
      13A     -0.957251    14A     -0.880099    15A     -0.802440
      16A     -0.756609    17A     -0.696359    18A     -0.686373
      19A     -0.644646    20A     -0.636474    21A     -0.629074
      22A     -0.573701    23A     -0.554372    24A     -0.547607
      25A     -0.533846    26A     -0.527096    27A     -0.498938
      28A     -0.452029    29A     -0.437390    30A     -0.404839

  @DF-RHF Final Energy:  -381.70114220136179

   => Energetics <=

    Nuclear Repulsion Energy =            331.0103434160054690
    One-Electron Energy =               -1175.2610083830174972
    Two-Electron Energy =                 462.5495227656501811
    Total Energy =                       -381.7011422013617903
  Basis Set: (AUG-CC-PVTZ AUX)
    Blend: AUG-CC-PVTZ-RI
    Molecular point group: c1

    Geometry (in Angstrom), charge = 0, multiplicity = 1:

       Center              X                  Y                   Z               Mass
    ------------   -----------------  -----------------  -----------------  -----------------
         O            1.185772387579    -1.327483969364    -0.011117986156    15.994914619570
         O           -3.787298612421    -0.181165969364    -0.030827986156    15.994914619570
         C            2.258132387579     0.826382030636     0.020675013844    12.000000000000
         C            3.592557887579     0.101131330636    -0.006105386156    12.000000000000
         C            1.058711487579    -0.092812669364     0.017280613844    12.000000000000
         C           -0.280825612421     0.539215030636     0.023968013844    12.000000000000
         C           -1.408363612421    -0.193456969364     0.001194013844    12.000000000000
         C           -2.732814612421     0.445807030636    -0.006776986156    12.000000000000
         H            2.177014387579     1.472268030636     0.905222013844     1.007825032230
         H            2.158632387579     1.504356030636    -0.839312986156     1.007825032230
         H            3.680004387579    -0.564184969364     0.862165013844     1.007825032230
         H            3.661467387579    -0.534626969364    -0.897855986156     1.007825032230
         H            4.417797387579     0.797780030636    -0.003198986156     1.007825032230
         H           -0.333465612421     1.628579030636     0.041368013844     1.007825032230
         H           -1.360782612421    -1.279882969364    -0.016408986156     1.007825032230
         H           -2.729579612421     1.555413030636     0.015592013844     1.007825032230

  Basis Set: AUG-CC-PVTZ
    Blend: AUG-CC-PVTZ
  Basis Set: (AUG-CC-PVTZ AUX)
    Blend: AUG-CC-PVTZ-JKFIT
	 Reference Energy          =    -381.7011422013617903 [Eh]
	 Singles Energy            =      -0.0000000000000000 [Eh]
	 Same-Spin Energy          =      -0.3778021114512321 [Eh]
	 Opposite-Spin Energy      =      -1.2246346006153155 [Eh]
	 Correlation Energy        =      -1.6024367120665475 [Eh]
	 Total Energy              =    -383.3035789134283391 [Eh]

	 ================> DF-SCS-MP2 Energies <==================
	-----------------------------------------------------------
	 SCS Same-Spin Scale       =       0.3333333333333333 [-]
	 SCS Opposite-Spin Scale   =       1.2000000000000000 [-]
	 SCS Same-Spin Energy      =      -0.1259340371504107 [Eh]
	 SCS Opposite-Spin Energy  =      -1.4695615207383785 [Eh]
	 SCS Correlation Energy    =      -1.5954955578887893 [Eh]
	 SCS Total Energy          =    -383.2966377592505864 [Eh]
	-----------------------------------------------------------

  Dipole Moment: [D]
     X:     2.6917      Y:     3.5479      Z:     0.0903     Total:     4.4544

*** Psi4 exiting successfully. Buy a developer a beer!
