                               Psi4 1.3.2 release

  ==> Input File <==

--------------------------------------------------------------------------
#psi4
#
memory 32 gb

molecule  {
0 1
  O        1.1855920    -1.3251230    -0.0110750
  O       -3.7874790    -0.1788050    -0.0307850
  C        2.2579520     0.8287430     0.0207180
  C        3.5859950     0.0918750    -0.0061980
  C        0.9089206    -0.2239172     0.0165713
  C       -0.2810060     0.5415760     0.0240110
  C       -1.4085440    -0.1910960     0.0012370
  C       -2.7329950     0.4481680    -0.0067340
  H        2.1768340     1.4746290     0.9052650
  H        2.1584520     1.5067170    -0.8392700
  H        3.6798240    -0.5618240     0.8622080
  H        3.6612870    -0.5322660    -0.8978130
  H        4.4176170     0.8001410    -0.0031560
  H       -0.3336460     1.6309400     0.0414110
  H       -1.3609630    -1.2775220    -0.0163660
  H       -2.7297600     1.5577740     0.0156350
units angstrom
no_reorient  #important for SAPT in psi4, default
symmetry c1  #important for SAPT in psi4, default
}

set PROPERTIES_ORIGIN ["COM"]
properties('MP2/aug-cc-pvtz', properties = ['dipole'])
--------------------------------------------------------------------------

    Molecular point group: c1
  Charge       = 0
  Multiplicity = 1
  Basis Set: AUG-CC-PVTZ
    Blend: AUG-CC-PVTZ
  Basis Set: (AUG-CC-PVTZ AUX)
    Blend: AUG-CC-PVTZ-JKFIT

    Orbital Energies [Eh]
    ---------------------

    Doubly Occupied:

       1A    -20.582460     2A    -20.570645     3A    -11.357535
       4A    -11.345912     5A    -11.288481     6A    -11.282179
       7A    -11.237612     8A    -11.215863     9A     -1.461787
      10A     -1.402822    11A     -1.134670    12A     -1.033737
      13A     -0.962014    14A     -0.858169    15A     -0.805506
      16A     -0.765989    17A     -0.706735    18A     -0.697489
      19A     -0.643473    20A     -0.638555    21A     -0.630559
      22A     -0.593081    23A     -0.577348    24A     -0.551288
      25A     -0.540657    26A     -0.516599    27A     -0.493753
      28A     -0.457389    29A     -0.417493    30A     -0.390067

  @DF-RHF Final Energy:  -381.66932898309881

   => Energetics <=

    Nuclear Repulsion Energy =            332.2275596317227837
    One-Electron Energy =               -1177.4740443959615277
    Two-Electron Energy =                 463.5771557811399362
    Total Energy =                       -381.6693289830988078
  Basis Set: (AUG-CC-PVTZ AUX)
    Blend: AUG-CC-PVTZ-RI
    Molecular point group: c1

    Geometry (in Angstrom), charge = 0, multiplicity = 1:

       Center              X                  Y                   Z               Mass
    ------------   -----------------  -----------------  -----------------  -----------------
         O            1.202478103006    -1.311946656984    -0.011022898526    15.994914619570
         O           -3.770592896994    -0.165628656984    -0.030732898526    15.994914619570
         C            2.274838103006     0.841919343016     0.020770101474    12.000000000000
         C            3.602881103006     0.105051343016    -0.006145898526    12.000000000000
         C            0.925806703006    -0.210740856984     0.016623401474    12.000000000000
         C           -0.264119896994     0.554752343016     0.024063101474    12.000000000000
         C           -1.391657896994    -0.177919656984     0.001289101474    12.000000000000
         C           -2.716108896994     0.461344343016    -0.006681898526    12.000000000000
         H            2.193720103006     1.487805343016     0.905317101474     1.007825032230
         H            2.175338103006     1.519893343016    -0.839217898526     1.007825032230
         H            3.696710103006    -0.548647656984     0.862260101474     1.007825032230
         H            3.678173103006    -0.519089656984    -0.897760898526     1.007825032230
         H            4.434503103006     0.813317343016    -0.003103898526     1.007825032230
         H           -0.316759896994     1.644116343016     0.041463101474     1.007825032230
         H           -1.344076896994    -1.264345656984    -0.016313898526     1.007825032230
         H           -2.712873896994     1.570950343016     0.015687101474     1.007825032230

  Basis Set: AUG-CC-PVTZ
    Blend: AUG-CC-PVTZ
  Basis Set: (AUG-CC-PVTZ AUX)
    Blend: AUG-CC-PVTZ-JKFIT
	 Reference Energy          =    -381.6693289830988078 [Eh]
	 Singles Energy            =      -0.0000000000000000 [Eh]
	 Same-Spin Energy          =      -0.3763166775370614 [Eh]
	 Opposite-Spin Energy      =      -1.2211612801546661 [Eh]
	 Correlation Energy        =      -1.5974779576917275 [Eh]
	 Total Energy              =    -383.2668069407905591 [Eh]

	 ================> DF-SCS-MP2 Energies <==================
	-----------------------------------------------------------
	 SCS Same-Spin Scale       =       0.3333333333333333 [-]
	 SCS Opposite-Spin Scale   =       1.2000000000000000 [-]
	 SCS Same-Spin Energy      =      -0.1254388925123538 [Eh]
	 SCS Opposite-Spin Energy  =      -1.4653935361855992 [Eh]
	 SCS Correlation Energy    =      -1.5908324286979529 [Eh]
	 SCS Total Energy          =    -383.2601614117967870 [Eh]
	-----------------------------------------------------------

  Dipole Moment: [D]
     X:     1.4338      Y:     2.8978      Z:     0.0836     Total:     3.2342

*** Psi4 exiting successfully. Buy a developer a beer!
