                               Psi4 1.3.2 release

  ==> Input File <==

--------------------------------------------------------------------------
#psi4
#
memory 32 gb

molecule  {
0 1
  O        1.1855920    -1.3251230    -0.0110750
  O       -3.7874790    -0.1788050    -0.0307850
  C        2.2579520     0.8287430     0.0207180
  C        3.5859950     0.0918750    -0.0061980
  C        1.0311274    -0.1705076     0.0152911
  C       -0.2810060     0.5415760     0.0240110
  C       -1.3686371    -0.2490935     0.0001538
  C       -2.7329950     0.4481680    -0.0067340
  H        2.1768340     1.4746290     0.9052650
  H        2.1584520     1.5067170    -0.8392700
  H        3.6798240    -0.5618240     0.8622080
  H        3.6612870    -0.5322660    -0.8978130
  H        4.4176170     0.8001410    -0.0031560
  H       -0.3336460     1.6309400     0.0414110
  H       -1.3609630    -1.2775220    -0.0163660
  H       -2.7297600     1.5577740     0.0156350
units angstrom
no_reorient  #important for SAPT in psi4, default
symmetry c1  #important for SAPT in psi4, default
}

set PROPERTIES_ORIGIN ["COM"]
properties('MP2/aug-cc-pvtz', properties = ['dipole'])
--------------------------------------------------------------------------

    Molecular point group: c1
  Charge       = 0
  Multiplicity = 1
  Basis Set: AUG-CC-PVTZ
    Blend: AUG-CC-PVTZ
  Basis Set: (AUG-CC-PVTZ AUX)
    Blend: AUG-CC-PVTZ-JKFIT

    Orbital Energies [Eh]
    ---------------------

    Doubly Occupied:

       1A    -20.574453     2A    -20.565769     3A    -11.355203
       4A    -11.345703     5A    -11.278785     6A    -11.277045
       7A    -11.249466     8A    -11.223152     9A     -1.438207
      10A     -1.394965    11A     -1.112301    12A     -1.054643
      13A     -0.941364    14A     -0.865416    15A     -0.809123
      16A     -0.755547    17A     -0.700276    18A     -0.684709
      19A     -0.645733    20A     -0.639545    21A     -0.627823
      22A     -0.597601    23A     -0.563910    24A     -0.542298
      25A     -0.541658    26A     -0.525380    27A     -0.502906
      28A     -0.448463    29A     -0.415989    30A     -0.408218

  @DF-RHF Final Energy:  -381.69588239836258

   => Energetics <=

    Nuclear Repulsion Energy =            331.4628480357078502
    One-Electron Energy =               -1176.1461573237729681
    Two-Electron Energy =                 462.9874268897025900
    Total Energy =                       -381.6958823983625848
  Basis Set: (AUG-CC-PVTZ AUX)
    Blend: AUG-CC-PVTZ-RI
    Molecular point group: c1

    Geometry (in Angstrom), charge = 0, multiplicity = 1:

       Center              X                  Y                   Z               Mass
    ------------   -----------------  -----------------  -----------------  -----------------
         O            1.185116905139    -1.311455326272    -0.010769795580    15.994914619570
         O           -3.787954094861    -0.165137326272    -0.030479795580    15.994914619570
         C            2.257476905139     0.842410673728     0.021023204420    12.000000000000
         C            3.585519905139     0.105542673728    -0.005892795580    12.000000000000
         C            1.030652305139    -0.156839926272     0.015596304420    12.000000000000
         C           -0.281481094861     0.555243673728     0.024316204420    12.000000000000
         C           -1.369112194861    -0.235425826272     0.000459004420    12.000000000000
         C           -2.733470094861     0.461835673728    -0.006428795580    12.000000000000
         H            2.176358905139     1.488296673728     0.905570204420     1.007825032230
         H            2.157976905139     1.520384673728    -0.838964795580     1.007825032230
         H            3.679348905139    -0.548156326272     0.862513204420     1.007825032230
         H            3.660811905139    -0.518598326272    -0.897507795580     1.007825032230
         H            4.417141905139     0.813808673728    -0.002850795580     1.007825032230
         H           -0.334121094861     1.644607673728     0.041716204420     1.007825032230
         H           -1.361438094861    -1.263854326272    -0.016060795580     1.007825032230
         H           -2.730235094861     1.571441673728     0.015940204420     1.007825032230

  Basis Set: AUG-CC-PVTZ
    Blend: AUG-CC-PVTZ
  Basis Set: (AUG-CC-PVTZ AUX)
    Blend: AUG-CC-PVTZ-JKFIT
	 Reference Energy          =    -381.6958823983625848 [Eh]
	 Singles Energy            =      -0.0000000000000000 [Eh]
	 Same-Spin Energy          =      -0.3751499993276909 [Eh]
	 Opposite-Spin Energy      =      -1.2195860705119168 [Eh]
	 Correlation Energy        =      -1.5947360698396076 [Eh]
	 Total Energy              =    -383.2906184682021831 [Eh]

	 ================> DF-SCS-MP2 Energies <==================
	-----------------------------------------------------------
	 SCS Same-Spin Scale       =       0.3333333333333333 [-]
	 SCS Opposite-Spin Scale   =       1.2000000000000000 [-]
	 SCS Same-Spin Energy      =      -0.1250499997758970 [Eh]
	 SCS Opposite-Spin Energy  =      -1.4635032846143001 [Eh]
	 SCS Correlation Energy    =      -1.5885532843901971 [Eh]
	 SCS Total Energy          =    -383.2844356827527577 [Eh]
	-----------------------------------------------------------

  Dipole Moment: [D]
     X:     2.3057      Y:     3.2323      Z:     0.0860     Total:     3.9713

*** Psi4 exiting successfully. Buy a developer a beer!
