                               Psi4 1.3.2 release

  ==> Input File <==

--------------------------------------------------------------------------
#psi4
#
memory 32 gb

molecule  {
0 1
  O        1.1855920    -1.3251230    -0.0110750
  O       -3.7874790    -0.1788050    -0.0307850
  C        2.2579520     0.8287430     0.0207180
  C        3.5859950     0.0918750    -0.0061980
  C        1.0881984    -0.0534658     0.0178734
  C       -0.2810060     0.5415760     0.0240110
  C       -1.4085440    -0.1910960     0.0012370
  C       -2.7329950     0.4481680    -0.0067340
  H        2.1768340     1.4746290     0.9052650
  H        2.1584520     1.5067170    -0.8392700
  H        3.6798240    -0.5618240     0.8622080
  H        3.6612870    -0.5322660    -0.8978130
  H        4.4176170     0.8001410    -0.0031560
  H       -0.2955909     1.6321117     0.0415254
  H       -1.3609630    -1.2775220    -0.0163660
  H       -2.7297600     1.5577740     0.0156350
units angstrom
no_reorient  #important for SAPT in psi4, default
symmetry c1  #important for SAPT in psi4, default
}

set PROPERTIES_ORIGIN ["COM"]
properties('MP2/aug-cc-pvtz', properties = ['dipole'])
--------------------------------------------------------------------------

    Molecular point group: c1
  Charge       = 0
  Multiplicity = 1
  Basis Set: AUG-CC-PVTZ
    Blend: AUG-CC-PVTZ
  Basis Set: (AUG-CC-PVTZ AUX)
    Blend: AUG-CC-PVTZ-JKFIT

    Orbital Energies [Eh]
    ---------------------

    Doubly Occupied:

       1A    -20.574163     2A    -20.560299     3A    -11.356805
       4A    -11.351596     5A    -11.284220     6A    -11.279373
       7A    -11.259535     8A    -11.230679     9A     -1.395341
      10A     -1.365667    11A     -1.115414    12A     -1.079581
      13A     -0.959324    14A     -0.884523    15A     -0.802685
      16A     -0.754363    17A     -0.694252    18A     -0.687690
      19A     -0.650781    20A     -0.635313    21A     -0.624444
      22A     -0.569787    23A     -0.552589    24A     -0.545867
      25A     -0.532823    26A     -0.528254    27A     -0.494700
      28A     -0.451231    29A     -0.440787    30A     -0.402300

  @DF-RHF Final Energy:  -381.69335687741426

   => Energetics <=

    Nuclear Repulsion Energy =            330.8487969153426320
    One-Electron Energy =               -1174.9555301347133991
    Two-Electron Energy =                 462.4133763419565071
    Total Energy =                       -381.6933568774142600
  Basis Set: (AUG-CC-PVTZ AUX)
    Blend: AUG-CC-PVTZ-RI
    Molecular point group: c1

    Geometry (in Angstrom), charge = 0, multiplicity = 1:

       Center              X                  Y                   Z               Mass
    ------------   -----------------  -----------------  -----------------  -----------------
         O            1.182936478677    -1.330211300399    -0.011163372903    15.994914619570
         O           -3.790134521323    -0.183893300399    -0.030873372903    15.994914619570
         C            2.255296478677     0.823654699601     0.020629627097    12.000000000000
         C            3.583339478677     0.086786699601    -0.006286372903    12.000000000000
         C            1.085542878677    -0.058554100399     0.017785027097    12.000000000000
         C           -0.283661521323     0.536487699601     0.023922627097    12.000000000000
         C           -1.411199521323    -0.196184300399     0.001148627097    12.000000000000
         C           -2.735650521323     0.443079699601    -0.006822372903    12.000000000000
         H            2.174178478677     1.469540699601     0.905176627097     1.007825032230
         H            2.155796478677     1.501628699601    -0.839358372903     1.007825032230
         H            3.677168478677    -0.566912300399     0.862119627097     1.007825032230
         H            3.658631478677    -0.537354300399    -0.897901372903     1.007825032230
         H            4.414961478677     0.795052699601    -0.003244372903     1.007825032230
         H           -0.298246421323     1.627023399601     0.041437027097     1.007825032230
         H           -1.363618521323    -1.282610300399    -0.016454372903     1.007825032230
         H           -2.732415521323     1.552685699601     0.015546627097     1.007825032230

  Basis Set: AUG-CC-PVTZ
    Blend: AUG-CC-PVTZ
  Basis Set: (AUG-CC-PVTZ AUX)
    Blend: AUG-CC-PVTZ-JKFIT
	 Reference Energy          =    -381.6933568774142600 [Eh]
	 Singles Energy            =      -0.0000000000000000 [Eh]
	 Same-Spin Energy          =      -0.3789819021731641 [Eh]
	 Opposite-Spin Energy      =      -1.2270347114893458 [Eh]
	 Correlation Energy        =      -1.6060166136625100 [Eh]
	 Total Energy              =    -383.2993734910767785 [Eh]

	 ================> DF-SCS-MP2 Energies <==================
	-----------------------------------------------------------
	 SCS Same-Spin Scale       =       0.3333333333333333 [-]
	 SCS Opposite-Spin Scale   =       1.2000000000000000 [-]
	 SCS Same-Spin Energy      =      -0.1263273007243880 [Eh]
	 SCS Opposite-Spin Energy  =      -1.4724416537872149 [Eh]
	 SCS Correlation Energy    =      -1.5987689545116028 [Eh]
	 SCS Total Energy          =    -383.2921258319258868 [Eh]
	-----------------------------------------------------------

  Dipole Moment: [D]
     X:     2.9159      Y:     3.6811      Z:     0.0916     Total:     4.6970

*** Psi4 exiting successfully. Buy a developer a beer!
