                               Psi4 1.3.2 release

  ==> Input File <==

--------------------------------------------------------------------------
#psi4
#
memory 32 gb

molecule  {
0 1
  O        1.1855920    -1.3251230    -0.0110750
  O       -3.7532039    -0.2331324    -0.0315069
  C        2.2579520     0.8287430     0.0207180
  C        3.5859950     0.0918750    -0.0061980
  C        1.0665970    -0.1008810     0.0170560
  C       -0.2810060     0.5415760     0.0240110
  C       -1.4085440    -0.1910960     0.0012370
  C       -2.7329950     0.4481680    -0.0067340
  H        2.1768340     1.4746290     0.9052650
  H        2.1584520     1.5067170    -0.8392700
  H        3.6798240    -0.5618240     0.8622080
  H        3.6612870    -0.5322660    -0.8978130
  H        4.4176170     0.8001410    -0.0031560
  H       -0.3336460     1.6309400     0.0414110
  H       -1.3609630    -1.2775220    -0.0163660
  H       -2.6716838     1.5560714     0.0162303
units angstrom
no_reorient  #important for SAPT in psi4, default
symmetry c1  #important for SAPT in psi4, default
}

set PROPERTIES_ORIGIN ["COM"]
properties('MP2/aug-cc-pvtz', properties = ['dipole'])
--------------------------------------------------------------------------

    Molecular point group: c1
  Charge       = 0
  Multiplicity = 1
  Basis Set: AUG-CC-PVTZ
    Blend: AUG-CC-PVTZ
  Basis Set: (AUG-CC-PVTZ AUX)
    Blend: AUG-CC-PVTZ-JKFIT

    Orbital Energies [Eh]
    ---------------------

    Doubly Occupied:

       1A    -20.576039     2A    -20.562779     3A    -11.353059
       4A    -11.352766     5A    -11.279977     6A    -11.274890
       7A    -11.256234     8A    -11.227660     9A     -1.397101
      10A     -1.393232    11A     -1.113633    12A     -1.069549
      13A     -0.954371    14A     -0.879385    15A     -0.802021
      16A     -0.755372    17A     -0.694504    18A     -0.685973
      19A     -0.645358    20A     -0.636912    21A     -0.630917
      22A     -0.571621    23A     -0.555358    24A     -0.543334
      25A     -0.536565    26A     -0.528171    27A     -0.501332
      28A     -0.452945    29A     -0.434572    30A     -0.403145

  @DF-RHF Final Energy:  -381.70117355151922

   => Energetics <=

    Nuclear Repulsion Energy =            331.5420064660799540
    One-Electron Energy =               -1176.3488047985729281
    Two-Electron Energy =                 463.1056247809736988
    Total Energy =                       -381.7011735515192186
  Basis Set: (AUG-CC-PVTZ AUX)
    Blend: AUG-CC-PVTZ-RI
    Molecular point group: c1

    Geometry (in Angstrom), charge = 0, multiplicity = 1:

       Center              X                  Y                   Z               Mass
    ------------   -----------------  -----------------  -----------------  -----------------
         O            1.180177160872    -1.317352665183    -0.010977113079    15.994914619570
         O           -3.758618739128    -0.225362065183    -0.031409013079    15.994914619570
         C            2.252537160872     0.836513334817     0.020815886921    12.000000000000
         C            3.580580160872     0.099645334817    -0.006100113079    12.000000000000
         C            1.061182160872    -0.093110665183     0.017153886921    12.000000000000
         C           -0.286420839128     0.549346334817     0.024108886921    12.000000000000
         C           -1.413958839128    -0.183325665183     0.001334886921    12.000000000000
         C           -2.738409839128     0.455938334817    -0.006636113079    12.000000000000
         H            2.171419160872     1.482399334817     0.905362886921     1.007825032230
         H            2.153037160872     1.514487334817    -0.839172113079     1.007825032230
         H            3.674409160872    -0.554053665183     0.862305886921     1.007825032230
         H            3.655872160872    -0.524495665183    -0.897715113079     1.007825032230
         H            4.412202160872     0.807911334817    -0.003058113079     1.007825032230
         H           -0.339060839128     1.638710334817     0.041508886921     1.007825032230
         H           -1.366377839128    -1.269751665183    -0.016268113079     1.007825032230
         H           -2.677098639128     1.563841734817     0.016328186921     1.007825032230

  Basis Set: AUG-CC-PVTZ
    Blend: AUG-CC-PVTZ
  Basis Set: (AUG-CC-PVTZ AUX)
    Blend: AUG-CC-PVTZ-JKFIT
	 Reference Energy          =    -381.7011735515192186 [Eh]
	 Singles Energy            =      -0.0000000000000000 [Eh]
	 Same-Spin Energy          =      -0.3775919299575251 [Eh]
	 Opposite-Spin Energy      =      -1.2240255665935489 [Eh]
	 Correlation Energy        =      -1.6016174965510741 [Eh]
	 Total Energy              =    -383.3027910480702758 [Eh]

	 ================> DF-SCS-MP2 Energies <==================
	-----------------------------------------------------------
	 SCS Same-Spin Scale       =       0.3333333333333333 [-]
	 SCS Opposite-Spin Scale   =       1.2000000000000000 [-]
	 SCS Same-Spin Energy      =      -0.1258639766525084 [Eh]
	 SCS Opposite-Spin Energy  =      -1.4688306799122586 [Eh]
	 SCS Correlation Energy    =      -1.5946946565647671 [Eh]
	 SCS Total Energy          =    -383.2958682080839594 [Eh]
	-----------------------------------------------------------

  Dipole Moment: [D]
     X:     2.6291      Y:     3.6055      Z:     0.0908     Total:     4.4632

*** Psi4 exiting successfully. Buy a developer a beer!
