                               Psi4 1.3.2 release

  ==> Input File <==

--------------------------------------------------------------------------
#psi4
#
memory 32 gb

molecule  {
0 1
  O        1.1855920    -1.3251230    -0.0110750
  O       -3.7874790    -0.1788050    -0.0307850
  C        2.2579520     0.8287430     0.0207180
  C        3.5859950     0.0918750    -0.0061980
  C        1.0665970    -0.1008810     0.0170560
  C       -0.2810060     0.5415760     0.0240110
  C       -1.3822788    -0.2300007     0.0008477
  C       -2.7329950     0.4481680    -0.0067340
  H        2.1768340     1.4746290     0.9052650
  H        2.1584520     1.5067170    -0.8392700
  H        3.6798240    -0.5618240     0.8622080
  H        3.6612870    -0.5322660    -0.8978130
  H        4.4176170     0.8001410    -0.0031560
  H       -0.2955926     1.6321074     0.0417925
  H       -1.3609630    -1.2775220    -0.0163660
  H       -2.7297600     1.5577740     0.0156350
units angstrom
no_reorient  #important for SAPT in psi4, default
symmetry c1  #important for SAPT in psi4, default
}

set PROPERTIES_ORIGIN ["COM"]
properties('MP2/aug-cc-pvtz', properties = ['dipole'])
--------------------------------------------------------------------------

    Molecular point group: c1
  Charge       = 0
  Multiplicity = 1
  Basis Set: AUG-CC-PVTZ
    Blend: AUG-CC-PVTZ
  Basis Set: (AUG-CC-PVTZ AUX)
    Blend: AUG-CC-PVTZ-JKFIT

    Orbital Energies [Eh]
    ---------------------

    Doubly Occupied:

       1A    -20.574288     2A    -20.561358     3A    -11.354141
       4A    -11.350863     5A    -11.280741     6A    -11.278764
       7A    -11.255835     8A    -11.227419     9A     -1.395178
      10A     -1.392355    11A     -1.112435    12A     -1.068787
      13A     -0.950449    14A     -0.874802    15A     -0.807084
      16A     -0.753431    17A     -0.695393    18A     -0.684837
      19A     -0.645107    20A     -0.635921    21A     -0.629688
      22A     -0.585083    23A     -0.552682    24A     -0.542838
      25A     -0.535395    26A     -0.527857    27A     -0.501192
      28A     -0.449833    29A     -0.431830    30A     -0.404763

  @DF-RHF Final Energy:  -381.70103419725638

   => Energetics <=

    Nuclear Repulsion Energy =            330.9966777671144769
    One-Electron Energy =               -1175.2747192482283936
    Two-Electron Energy =                 462.5770072838574833
    Total Energy =                       -381.7010341972563765
  Basis Set: (AUG-CC-PVTZ AUX)
    Blend: AUG-CC-PVTZ-RI
    Molecular point group: c1

    Geometry (in Angstrom), charge = 0, multiplicity = 1:

       Center              X                  Y                   Z               Mass
    ------------   -----------------  -----------------  -----------------  -----------------
         O            1.182437034917    -1.320967028425    -0.011036546470    15.994914619570
         O           -3.790633965083    -0.174649028425    -0.030746546470    15.994914619570
         C            2.254797034917     0.832898971575     0.020756453530    12.000000000000
         C            3.582840034917     0.096030971575    -0.006159546470    12.000000000000
         C            1.063442034917    -0.096725028425     0.017094453530    12.000000000000
         C           -0.284160965083     0.545731971575     0.024049453530    12.000000000000
         C           -1.385433765083    -0.225844728425     0.000886153530    12.000000000000
         C           -2.736149965083     0.452323971575    -0.006695546470    12.000000000000
         H            2.173679034917     1.478784971575     0.905303453530     1.007825032230
         H            2.155297034917     1.510872971575    -0.839231546470     1.007825032230
         H            3.676669034917    -0.557668028425     0.862246453530     1.007825032230
         H            3.658132034917    -0.528110028425    -0.897774546470     1.007825032230
         H            4.414462034917     0.804296971575    -0.003117546470     1.007825032230
         H           -0.298747565083     1.636263371575     0.041830953530     1.007825032230
         H           -1.364117965083    -1.273366028425    -0.016327546470     1.007825032230
         H           -2.732914965083     1.561929971575     0.015673453530     1.007825032230

  Basis Set: AUG-CC-PVTZ
    Blend: AUG-CC-PVTZ
  Basis Set: (AUG-CC-PVTZ AUX)
    Blend: AUG-CC-PVTZ-JKFIT
	 Reference Energy          =    -381.7010341972563765 [Eh]
	 Singles Energy            =      -0.0000000000000000 [Eh]
	 Same-Spin Energy          =      -0.3769838016035422 [Eh]
	 Opposite-Spin Energy      =      -1.2233080273530952 [Eh]
	 Correlation Energy        =      -1.6002918289566375 [Eh]
	 Total Energy              =    -383.3013260262130188 [Eh]

	 ================> DF-SCS-MP2 Energies <==================
	-----------------------------------------------------------
	 SCS Same-Spin Scale       =       0.3333333333333333 [-]
	 SCS Opposite-Spin Scale   =       1.2000000000000000 [-]
	 SCS Same-Spin Energy      =      -0.1256612672011807 [Eh]
	 SCS Opposite-Spin Energy  =      -1.4679696328237142 [Eh]
	 SCS Correlation Energy    =      -1.5936309000248949 [Eh]
	 SCS Total Energy          =    -383.2946650972812677 [Eh]
	-----------------------------------------------------------

  Dipole Moment: [D]
     X:     2.6364      Y:     3.5282      Z:     0.0898     Total:     4.4053

*** Psi4 exiting successfully. Buy a developer a beer!
