                               Psi4 1.4a3.dev225

  ==> Input File <==

--------------------------------------------------------------------------
#psi4
#
memory 32 gb

molecule  {
0 1
  O        1.0820120     1.3681640     0.0000000
  O       -3.8882340     0.1997640    -0.0000030
  C        2.1679760    -0.7815440    -0.0000070
  C        3.4943680    -0.0370920     0.0000040
  C        0.9742822     0.1918816     0.0000000
  C       -0.3759970    -0.5069640     0.0000040
  C       -1.5077040     0.2230700     0.0000000
  C       -2.8299410    -0.4231870     0.0000020
  H        2.0818540    -1.4423830    -0.8738950
  H        2.0818510    -1.4424050     0.8738640
  H        3.5776630     0.6025590    -0.8807220
  H        3.5776700     0.6025230     0.8807550
  H        4.3292850    -0.7422630    -0.0000140
  H       -0.4236580    -1.5964830     0.0000100
  H       -1.4638710     1.3098110    -0.0000060
  H       -2.8215620    -1.5330200     0.0000110
units angstrom
no_reorient  #important for SAPT in psi4, default
symmetry c1  #important for SAPT in psi4, default
}

set PROPERTIES_ORIGIN ["COM"]
properties('MP2/aug-cc-pvtz', properties = ['dipole'])
--------------------------------------------------------------------------

    Molecular point group: c1
  Charge       = 0
  Multiplicity = 1
  Basis Set: AUG-CC-PVTZ
    Blend: AUG-CC-PVTZ
  Basis Set: (AUG-CC-PVTZ AUX)
    Blend: AUG-CC-PVTZ-JKFIT

    Orbital Energies [Eh]
    ---------------------

    Doubly Occupied:

       1A    -20.571712     2A    -20.568697     3A    -11.351697
       4A    -11.349685     5A    -11.280905     6A    -11.274750
       7A    -11.255401     8A    -11.227692     9A     -1.429560
      10A     -1.392515    11A     -1.110332    12A     -1.064969
      13A     -0.947207    14A     -0.874491    15A     -0.798275
      16A     -0.756371    17A     -0.699558    18A     -0.685043
      19A     -0.645539    20A     -0.645157    21A     -0.630347
      22A     -0.576047    23A     -0.560562    24A     -0.544514
      25A     -0.541383    26A     -0.529428    27A     -0.506834
      28A     -0.450303    29A     -0.427191    30A     -0.404786

  @DF-RHF Final Energy:  -381.70444064827876

   => Energetics <=

    Nuclear Repulsion Energy =            331.1861951398332167
    One-Electron Energy =               -1175.5793644465259149
    Two-Electron Energy =                 462.6887286584139360
    Total Energy =                       -381.7044406482787622
  Basis Set: (AUG-CC-PVTZ AUX)
    Blend: AUG-CC-PVTZ-RI
    Molecular point group: c1

    Geometry (in Angstrom), charge = 0, multiplicity = 1:

       Center              X                  Y                   Z               Mass
    ------------   -----------------  -----------------  -----------------  -----------------
         O            1.178258365197     1.325344780665     0.000000079974    15.994914619570
         O           -3.791987634803     0.156944780665    -0.000002920026    15.994914619570
         C            2.264222365197    -0.824363219335    -0.000006920026    12.000000000000
         C            3.590614365197    -0.079911219335     0.000004079974    12.000000000000
         C            1.070528565197     0.149062380665     0.000000079974    12.000000000000
         C           -0.279750634803    -0.549783219335     0.000004079974    12.000000000000
         C           -1.411457634803     0.180250780665     0.000000079974    12.000000000000
         C           -2.733694634803    -0.466006219335     0.000002079974    12.000000000000
         H            2.178100365197    -1.485202219335    -0.873894920026     1.007825032230
         H            2.178097365197    -1.485224219335     0.873864079974     1.007825032230
         H            3.673909365197     0.559739780665    -0.880721920026     1.007825032230
         H            3.673916365197     0.559703780665     0.880755079974     1.007825032230
         H            4.425531365197    -0.785082219335    -0.000013920026     1.007825032230
         H           -0.327411634803    -1.639302219335     0.000010079974     1.007825032230
         H           -1.367624634803     1.266991780665    -0.000005920026     1.007825032230
         H           -2.725315634803    -1.575839219335     0.000011079974     1.007825032230

  Basis Set: AUG-CC-PVTZ
    Blend: AUG-CC-PVTZ
  Basis Set: (AUG-CC-PVTZ AUX)
    Blend: AUG-CC-PVTZ-JKFIT
	 Reference Energy          =    -381.7044406482787622 [Eh]
	 Singles Energy            =      -0.0000000000000000 [Eh]
	 Same-Spin Energy          =      -0.3759178094957785 [Eh]
	 Opposite-Spin Energy      =      -1.2208432726136935 [Eh]
	 Correlation Energy        =      -1.5967610821094720 [Eh]
	 Total Energy              =    -383.3012017303882430 [Eh]

	 ================> DF-SCS-MP2 Energies <==================
	-----------------------------------------------------------
	 SCS Same-Spin Scale       =       0.3333333333333333 [-]
	 SCS Opposite-Spin Scale   =       1.2000000000000000 [-]
	 SCS Same-Spin Energy      =      -0.1253059364985928 [Eh]
	 SCS Opposite-Spin Energy  =      -1.4650119271364321 [Eh]
	 SCS Correlation Energy    =      -1.5903178636350250 [Eh]
	 SCS Total Energy          =    -383.2947585119138125 [Eh]
	-----------------------------------------------------------

  Dipole Moment: [D]
     X:     2.8175      Y:    -3.3146      Z:     0.0000     Total:     4.3503

*** Psi4 exiting successfully. Buy a developer a beer!
