                               Psi4 1.4a3.dev225

  ==> Input File <==

--------------------------------------------------------------------------
#psi4
#
memory 32 gb

molecule  {
0 1
  O        1.0820120     1.3681640     0.0000000
  O       -3.8882340     0.1997640    -0.0000030
  C        2.1679760    -0.7815440    -0.0000070
  C        3.4943680    -0.0370920     0.0000040
  C        0.9697220     0.1420900     0.0000000
  C       -0.3759970    -0.5069640     0.0000040
  C       -1.4908974     0.2122285     0.0000001
  C       -2.8299410    -0.4231870     0.0000020
  H        2.0818540    -1.4423830    -0.8738950
  H        2.0818510    -1.4424050     0.8738640
  H        3.5776630     0.6025590    -0.8807220
  H        3.5776700     0.6025230     0.8807550
  H        4.3292850    -0.7422630    -0.0000140
  H       -0.4236580    -1.5964830     0.0000100
  H       -1.4638710     1.3098110    -0.0000060
  H       -2.8215620    -1.5330200     0.0000110
units angstrom
no_reorient  #important for SAPT in psi4, default
symmetry c1  #important for SAPT in psi4, default
}

set PROPERTIES_ORIGIN ["COM"]
properties('MP2/aug-cc-pvtz', properties = ['dipole'])
--------------------------------------------------------------------------

    Molecular point group: c1
  Charge       = 0
  Multiplicity = 1
  Basis Set: AUG-CC-PVTZ
    Blend: AUG-CC-PVTZ
  Basis Set: (AUG-CC-PVTZ AUX)
    Blend: AUG-CC-PVTZ-JKFIT

    Orbital Energies [Eh]
    ---------------------

    Doubly Occupied:

       1A    -20.575131     2A    -20.563909     3A    -11.354116
       4A    -11.352760     5A    -11.279521     6A    -11.276731
       7A    -11.257356     8A    -11.228630     9A     -1.395137
      10A     -1.393483    11A     -1.117542    12A     -1.069818
      13A     -0.952958    14A     -0.879280    15A     -0.799877
      16A     -0.756598    17A     -0.696164    18A     -0.686200
      19A     -0.645874    20A     -0.636330    21A     -0.630506
      22A     -0.571192    23A     -0.554615    24A     -0.543773
      25A     -0.536186    26A     -0.528416    27A     -0.502241
      28A     -0.451247    29A     -0.435080    30A     -0.408659

  @DF-RHF Final Energy:  -381.70295317706018

   => Energetics <=

    Nuclear Repulsion Energy =            331.0226422508288806
    One-Electron Energy =               -1175.2925307688747125
    Two-Electron Energy =                 462.5669353409856512
    Total Energy =                       -381.7029531770601807
  Basis Set: (AUG-CC-PVTZ AUX)
    Blend: AUG-CC-PVTZ-RI
    Molecular point group: c1

    Geometry (in Angstrom), charge = 0, multiplicity = 1:

       Center              X                  Y                   Z               Mass
    ------------   -----------------  -----------------  -----------------  -----------------
         O            1.176946864852     1.331838144560     0.000000069265    15.994914619570
         O           -3.793299135148     0.163438144560    -0.000002930735    15.994914619570
         C            2.262910864852    -0.817869855440    -0.000006930735    12.000000000000
         C            3.589302864852    -0.073417855440     0.000004069265    12.000000000000
         C            1.064656864852     0.105764144560     0.000000069265    12.000000000000
         C           -0.281062135148    -0.543289855440     0.000004069265    12.000000000000
         C           -1.395962535148     0.175902644560     0.000000169265    12.000000000000
         C           -2.735006135148    -0.459512855440     0.000002069265    12.000000000000
         H            2.176788864852    -1.478708855440    -0.873894930735     1.007825032230
         H            2.176785864852    -1.478730855440     0.873864069265     1.007825032230
         H            3.672597864852     0.566233144560    -0.880721930735     1.007825032230
         H            3.672604864852     0.566197144560     0.880755069265     1.007825032230
         H            4.424219864852    -0.778588855440    -0.000013930735     1.007825032230
         H           -0.328723135148    -1.632808855440     0.000010069265     1.007825032230
         H           -1.368936135148     1.273485144560    -0.000005930735     1.007825032230
         H           -2.726627135148    -1.569345855440     0.000011069265     1.007825032230

  Basis Set: AUG-CC-PVTZ
    Blend: AUG-CC-PVTZ
  Basis Set: (AUG-CC-PVTZ AUX)
    Blend: AUG-CC-PVTZ-JKFIT
	 Reference Energy          =    -381.7029531770601807 [Eh]
	 Singles Energy            =      -0.0000000000000000 [Eh]
	 Same-Spin Energy          =      -0.3771922469058371 [Eh]
	 Opposite-Spin Energy      =      -1.2235106015792123 [Eh]
	 Correlation Energy        =      -1.6007028484850494 [Eh]
	 Total Energy              =    -383.3036560255452514 [Eh]

	 ================> DF-SCS-MP2 Energies <==================
	-----------------------------------------------------------
	 SCS Same-Spin Scale       =       0.3333333333333333 [-]
	 SCS Opposite-Spin Scale   =       1.2000000000000000 [-]
	 SCS Same-Spin Energy      =      -0.1257307489686124 [Eh]
	 SCS Opposite-Spin Energy  =      -1.4682127218950547 [Eh]
	 SCS Correlation Energy    =      -1.5939434708636671 [Eh]
	 SCS Total Energy          =    -383.2968966479238588 [Eh]
	-----------------------------------------------------------

  Dipole Moment: [D]
     X:     2.7426      Y:    -3.5041      Z:     0.0000     Total:     4.4498

*** Psi4 exiting successfully. Buy a developer a beer!
