                               Psi4 1.4a3.dev225

  ==> Input File <==

--------------------------------------------------------------------------
#psi4
#
memory 32 gb

molecule  {
0 1
  O        1.0820120     1.3681640     0.0000000
  O       -3.8882340     0.1997640    -0.0000030
  C        2.1679760    -0.7815440    -0.0000070
  C        3.4943680    -0.0370920     0.0000040
  C        0.9697220     0.1420900     0.0000000
  C       -0.3759970    -0.5069640     0.0000040
  C       -1.5077040     0.2230700     0.0000000
  C       -2.7868519    -0.4485509     0.0000022
  H        2.0818540    -1.4423830    -0.8738950
  H        2.0818510    -1.4424050     0.8738640
  H        3.5776630     0.6025590    -0.8807220
  H        3.5776700     0.6025230     0.8807550
  H        4.3292850    -0.7422630    -0.0000140
  H       -0.4236580    -1.5964830     0.0000100
  H       -1.4638710     1.3098110    -0.0000060
  H       -2.8215620    -1.5330200     0.0000110
units angstrom
no_reorient  #important for SAPT in psi4, default
symmetry c1  #important for SAPT in psi4, default
}

set PROPERTIES_ORIGIN ["COM"]
properties('MP2/aug-cc-pvtz', properties = ['dipole'])
--------------------------------------------------------------------------

    Molecular point group: c1
  Charge       = 0
  Multiplicity = 1
  Basis Set: AUG-CC-PVTZ
    Blend: AUG-CC-PVTZ
  Basis Set: (AUG-CC-PVTZ AUX)
    Blend: AUG-CC-PVTZ-JKFIT

    Orbital Energies [Eh]
    ---------------------

    Doubly Occupied:

       1A    -20.571146     2A    -20.566647     3A    -11.356190
       4A    -11.352924     5A    -11.286258     6A    -11.279748
       7A    -11.259004     8A    -11.229913     9A     -1.396228
      10A     -1.362009    11A     -1.120262    12A     -1.072012
      13A     -0.959562    14A     -0.882878    15A     -0.807194
      16A     -0.758013    17A     -0.698814    18A     -0.684603
      19A     -0.647449    20A     -0.636933    21A     -0.615470
      22A     -0.576721    23A     -0.550364    24A     -0.544762
      25A     -0.529840    26A     -0.525929    27A     -0.503055
      28A     -0.455076    29A     -0.438512    30A     -0.402696

  @DF-RHF Final Energy:  -381.69264512214352

   => Energetics <=

    Nuclear Repulsion Energy =            330.6802412359724599
    One-Electron Energy =               -1174.6053476289196169
    Two-Electron Energy =                 462.2324612708035829
    Total Energy =                       -381.6926451221435173
  Basis Set: (AUG-CC-PVTZ AUX)
    Blend: AUG-CC-PVTZ-RI
    Molecular point group: c1

    Geometry (in Angstrom), charge = 0, multiplicity = 1:

       Center              X                  Y                   Z               Mass
    ------------   -----------------  -----------------  -----------------  -----------------
         O            1.174132200311     1.333393387947     0.000000058555    15.994914619570
         O           -3.796113799689     0.164993387947    -0.000002941445    15.994914619570
         C            2.260096200311    -0.816314612053    -0.000006941445    12.000000000000
         C            3.586488200311    -0.071862612053     0.000004058555    12.000000000000
         C            1.061842200311     0.107319387947     0.000000058555    12.000000000000
         C           -0.283876799689    -0.541734612053     0.000004058555    12.000000000000
         C           -1.415583799689     0.188299387947     0.000000058555    12.000000000000
         C           -2.694731699689    -0.483321512053     0.000002258555    12.000000000000
         H            2.173974200311    -1.477153612053    -0.873894941445     1.007825032230
         H            2.173971200311    -1.477175612053     0.873864058555     1.007825032230
         H            3.669783200311     0.567788387947    -0.880721941445     1.007825032230
         H            3.669790200311     0.567752387947     0.880755058555     1.007825032230
         H            4.421405200311    -0.777033612053    -0.000013941445     1.007825032230
         H           -0.331537799689    -1.631253612053     0.000010058555     1.007825032230
         H           -1.371750799689     1.275040387947    -0.000005941445     1.007825032230
         H           -2.729441799689    -1.567790612053     0.000011058555     1.007825032230

  Basis Set: AUG-CC-PVTZ
    Blend: AUG-CC-PVTZ
  Basis Set: (AUG-CC-PVTZ AUX)
    Blend: AUG-CC-PVTZ-JKFIT
	 Reference Energy          =    -381.6926451221435173 [Eh]
	 Singles Energy            =      -0.0000000000000000 [Eh]
	 Same-Spin Energy          =      -0.3791318815928897 [Eh]
	 Opposite-Spin Energy      =      -1.2277517202495889 [Eh]
	 Correlation Energy        =      -1.6068836018424786 [Eh]
	 Total Energy              =    -383.2995287239859863 [Eh]

	 ================> DF-SCS-MP2 Energies <==================
	-----------------------------------------------------------
	 SCS Same-Spin Scale       =       0.3333333333333333 [-]
	 SCS Opposite-Spin Scale   =       1.2000000000000000 [-]
	 SCS Same-Spin Energy      =      -0.1263772938642966 [Eh]
	 SCS Opposite-Spin Energy  =      -1.4733020642995067 [Eh]
	 SCS Correlation Energy    =      -1.5996793581638034 [Eh]
	 SCS Total Energy          =    -383.2923244803073430 [Eh]
	-----------------------------------------------------------

  Dipole Moment: [D]
     X:     2.9956      Y:    -3.5897      Z:     0.0000     Total:     4.6755

*** Psi4 exiting successfully. Buy a developer a beer!
