                               Psi4 1.3.2 release

  ==> Input File <==

--------------------------------------------------------------------------
#psi4
#
memory 32 gb

molecule  {
0 1
  O        1.1855920    -1.3251230    -0.0110750
  O       -3.7874790    -0.1788050    -0.0307850
  C        2.2579520     0.8287430     0.0207180
  C        3.5859950     0.0918750    -0.0061980
  C        1.0665970    -0.1008810     0.0170560
  C       -0.2810060     0.5415760     0.0240110
  C       -1.5762241    -0.3000542    -0.0021498
  C       -2.7329950     0.4481680    -0.0067340
  H        2.1768340     1.4746290     0.9052650
  H        2.1584520     1.5067170    -0.8392700
  H        3.6798240    -0.5618240     0.8622080
  H        3.6612870    -0.5322660    -0.8978130
  H        4.4176170     0.8001410    -0.0031560
  H       -0.3336460     1.6309400     0.0414110
  H       -1.3609630    -1.2775220    -0.0163660
  H       -2.7297600     1.5577740     0.0156350
units angstrom
no_reorient  #important for SAPT in psi4, default
symmetry c1  #important for SAPT in psi4, default
}

set PROPERTIES_ORIGIN ["COM"]
properties('MP2/aug-cc-pvtz', properties = ['dipole'])
--------------------------------------------------------------------------

    Molecular point group: c1
  Charge       = 0
  Multiplicity = 1
  Basis Set: AUG-CC-PVTZ
    Blend: AUG-CC-PVTZ
  Basis Set: (AUG-CC-PVTZ AUX)
    Blend: AUG-CC-PVTZ-JKFIT

    Orbital Energies [Eh]
    ---------------------

    Doubly Occupied:

       1A    -20.567140     2A    -20.562850     3A    -11.356475
       4A    -11.340829     5A    -11.310087     6A    -11.292075
       7A    -11.258645     8A    -11.229515     9A     -1.396932
      10A     -1.394287    11A     -1.094952    12A     -1.068063
      13A     -0.967970    14A     -0.877112    15A     -0.818207
      16A     -0.751503    17A     -0.704575    18A     -0.680479
      19A     -0.653599    20A     -0.647180    21A     -0.619368
      22A     -0.575075    23A     -0.554396    24A     -0.538914
      25A     -0.538173    26A     -0.529821    27A     -0.502854
      28A     -0.451746    29A     -0.437977    30A     -0.366819

  @DF-RHF Final Energy:  -381.64441991753091

   => Energetics <=

    Nuclear Repulsion Energy =            329.7634779513585954
    One-Electron Energy =               -1172.6405567798183256
    Two-Electron Energy =                 461.2326589109288193
    Total Energy =                       -381.6444199175309109
  Basis Set: (AUG-CC-PVTZ AUX)
    Blend: AUG-CC-PVTZ-RI
    Molecular point group: c1

    Geometry (in Angstrom), charge = 0, multiplicity = 1:

       Center              X                  Y                   Z               Mass
    ------------   -----------------  -----------------  -----------------  -----------------
         O            1.203549426497    -1.313454308364    -0.010712104729    15.994914619570
         O           -3.769521573503    -0.167136308364    -0.030422104729    15.994914619570
         C            2.275909426497     0.840411691636     0.021080895271    12.000000000000
         C            3.603952426497     0.103543691636    -0.005835104729    12.000000000000
         C            1.084554426497    -0.089212308364     0.017418895271    12.000000000000
         C           -0.263048573503     0.553244691636     0.024373895271    12.000000000000
         C           -1.558266673503    -0.288385508364    -0.001786904729    12.000000000000
         C           -2.715037573503     0.459836691636    -0.006371104729    12.000000000000
         H            2.194791426497     1.486297691636     0.905627895271     1.007825032230
         H            2.176409426497     1.518385691636    -0.838907104729     1.007825032230
         H            3.697781426497    -0.550155308364     0.862570895271     1.007825032230
         H            3.679244426497    -0.520597308364    -0.897450104729     1.007825032230
         H            4.435574426497     0.811809691636    -0.002793104729     1.007825032230
         H           -0.315688573503     1.642608691636     0.041773895271     1.007825032230
         H           -1.343005573503    -1.265853308364    -0.016003104729     1.007825032230
         H           -2.711802573503     1.569442691636     0.015997895271     1.007825032230

  Basis Set: AUG-CC-PVTZ
    Blend: AUG-CC-PVTZ
  Basis Set: (AUG-CC-PVTZ AUX)
    Blend: AUG-CC-PVTZ-JKFIT
	 Reference Energy          =    -381.6444199175309109 [Eh]
	 Singles Energy            =      -0.0000000000000000 [Eh]
	 Same-Spin Energy          =      -0.3818466343644091 [Eh]
	 Opposite-Spin Energy      =      -1.2328642199768491 [Eh]
	 Correlation Energy        =      -1.6147108543412583 [Eh]
	 Total Energy              =    -383.2591307718721509 [Eh]

	 ================> DF-SCS-MP2 Energies <==================
	-----------------------------------------------------------
	 SCS Same-Spin Scale       =       0.3333333333333333 [-]
	 SCS Opposite-Spin Scale   =       1.2000000000000000 [-]
	 SCS Same-Spin Energy      =      -0.1272822114548030 [Eh]
	 SCS Opposite-Spin Energy  =      -1.4794370639722190 [Eh]
	 SCS Correlation Energy    =      -1.6067192754270221 [Eh]
	 SCS Total Energy          =    -383.2511391929579077 [Eh]
	-----------------------------------------------------------

  Dipole Moment: [D]
     X:     2.9042      Y:     3.4944      Z:     0.0913     Total:     4.5447

*** Psi4 exiting successfully. Buy a developer a beer!
