                               Psi4 1.3.2 release

  ==> Input File <==

--------------------------------------------------------------------------
#psi4
#
memory 32 gb

molecule  {
0 1
  O        1.1855920    -1.3251230    -0.0110750
  O       -3.7874790    -0.1788050    -0.0307850
  C        2.2579520     0.8287430     0.0207180
  C        3.5859950     0.0918750    -0.0061980
  C        1.0665970    -0.1008810     0.0170560
  C       -0.2810060     0.5415760     0.0240110
  C       -1.4085440    -0.1910960     0.0012370
  C       -2.7329950     0.4481680    -0.0067340
  H        2.1768340     1.4746290     0.9052650
  H        2.1584520     1.5067170    -0.8392700
  H        3.6798240    -0.5618240     0.8622080
  H        3.6612870    -0.5322660    -0.8978130
  H        4.4176170     0.8001410    -0.0031560
  H       -0.3336460     1.6309400     0.0414110
  H       -1.3697126    -1.0777397    -0.0131290
  H       -2.7297600     1.5577740     0.0156350
units angstrom
no_reorient  #important for SAPT in psi4, default
symmetry c1  #important for SAPT in psi4, default
}

set PROPERTIES_ORIGIN ["COM"]
properties('MP2/aug-cc-pvtz', properties = ['dipole'])
--------------------------------------------------------------------------

    Molecular point group: c1
  Charge       = 0
  Multiplicity = 1
  Basis Set: AUG-CC-PVTZ
    Blend: AUG-CC-PVTZ
  Basis Set: (AUG-CC-PVTZ AUX)
    Blend: AUG-CC-PVTZ-JKFIT

    Orbital Energies [Eh]
    ---------------------

    Doubly Occupied:

       1A    -20.574009     2A    -20.564860     3A    -11.354374
       4A    -11.350702     5A    -11.282732     6A    -11.257547
       7A    -11.257294     8A    -11.228491     9A     -1.396112
      10A     -1.394653    11A     -1.123246    12A     -1.072307
      13A     -0.959035    14A     -0.879265    15A     -0.832537
      16A     -0.761456    17A     -0.699700    18A     -0.686221
      19A     -0.647474    20A     -0.646424    21A     -0.632087
      22A     -0.594135    23A     -0.555076    24A     -0.544104
      25A     -0.536862    26A     -0.529111    27A     -0.502404
      28A     -0.452220    29A     -0.435715    30A     -0.405413

  @DF-RHF Final Energy:  -381.66824410891383

   => Energetics <=

    Nuclear Repulsion Energy =            332.1548963975268975
    One-Electron Energy =               -1177.3351490169234239
    Two-Electron Energy =                 463.5120085104826444
    Total Energy =                       -381.6682441089138251
  Basis Set: (AUG-CC-PVTZ AUX)
    Blend: AUG-CC-PVTZ-RI
    Molecular point group: c1

    Geometry (in Angstrom), charge = 0, multiplicity = 1:

       Center              X                  Y                   Z               Mass
    ------------   -----------------  -----------------  -----------------  -----------------
         O            1.185670803579    -1.326919826334    -0.011103920684    15.994914619570
         O           -3.787400196421    -0.180601826334    -0.030813920684    15.994914619570
         C            2.258030803579     0.826946173666     0.020689079316    12.000000000000
         C            3.586073803579     0.090078173666    -0.006226920684    12.000000000000
         C            1.066675803579    -0.102677826334     0.017027079316    12.000000000000
         C           -0.280927196421     0.539779173666     0.023982079316    12.000000000000
         C           -1.408465196421    -0.192892826334     0.001208079316    12.000000000000
         C           -2.732916196421     0.446371173666    -0.006762920684    12.000000000000
         H            2.176912803579     1.472832173666     0.905236079316     1.007825032230
         H            2.158530803579     1.504920173666    -0.839298920684     1.007825032230
         H            3.679902803579    -0.563620826334     0.862179079316     1.007825032230
         H            3.661365803579    -0.534062826334    -0.897841920684     1.007825032230
         H            4.417695803579     0.798344173666    -0.003184920684     1.007825032230
         H           -0.333567196421     1.629143173666     0.041382079316     1.007825032230
         H           -1.369633796421    -1.079536526334    -0.013157920684     1.007825032230
         H           -2.729681196421     1.555977173666     0.015606079316     1.007825032230

  Basis Set: AUG-CC-PVTZ
    Blend: AUG-CC-PVTZ
  Basis Set: (AUG-CC-PVTZ AUX)
    Blend: AUG-CC-PVTZ-JKFIT
	 Reference Energy          =    -381.6682441089138251 [Eh]
	 Singles Energy            =      -0.0000000000000000 [Eh]
	 Same-Spin Energy          =      -0.3769580975497372 [Eh]
	 Opposite-Spin Energy      =      -1.2231738521585300 [Eh]
	 Correlation Energy        =      -1.6001319497082673 [Eh]
	 Total Energy              =    -383.2683760586220956 [Eh]

	 ================> DF-SCS-MP2 Energies <==================
	-----------------------------------------------------------
	 SCS Same-Spin Scale       =       0.3333333333333333 [-]
	 SCS Opposite-Spin Scale   =       1.2000000000000000 [-]
	 SCS Same-Spin Energy      =      -0.1256526991832457 [Eh]
	 SCS Opposite-Spin Energy  =      -1.4678086225902360 [Eh]
	 SCS Correlation Energy    =      -1.5934613217734817 [Eh]
	 SCS Total Energy          =    -383.2617054306873001 [Eh]
	-----------------------------------------------------------

  Dipole Moment: [D]
     X:     2.7651      Y:     3.5633      Z:     0.0911     Total:     4.5112

*** Psi4 exiting successfully. Buy a developer a beer!
