                               Psi4 1.3.2 release

  ==> Input File <==

--------------------------------------------------------------------------
#psi4
#
memory 32 gb

molecule  {
0 1
  O        1.1855920    -1.3251230    -0.0110750
  O       -3.7874790    -0.1788050    -0.0307850
  C        2.2579520     0.8287430     0.0207180
  C        3.5859950     0.0918750    -0.0061980
  C        1.0665970    -0.1008810     0.0170560
  C       -0.2810060     0.5415760     0.0240110
  C       -1.4085440    -0.1910960     0.0012370
  C       -2.7329950     0.4481680    -0.0067340
  H        2.1768340     1.4746290     0.9052650
  H        2.1584520     1.5067170    -0.8392700
  H        3.6798240    -0.5618240     0.8622080
  H        3.6612870    -0.5322660    -0.8978130
  H        4.4176170     0.8001410    -0.0031560
  H       -0.3432979     1.8306815     0.0446014
  H       -1.3609630    -1.2775220    -0.0163660
  H       -2.7297600     1.5577740     0.0156350
units angstrom
no_reorient  #important for SAPT in psi4, default
symmetry c1  #important for SAPT in psi4, default
}

set PROPERTIES_ORIGIN ["COM"]
properties('MP2/aug-cc-pvtz', properties = ['dipole'])
--------------------------------------------------------------------------

    Molecular point group: c1
  Charge       = 0
  Multiplicity = 1
  Basis Set: AUG-CC-PVTZ
    Blend: AUG-CC-PVTZ
  Basis Set: (AUG-CC-PVTZ AUX)
    Blend: AUG-CC-PVTZ-JKFIT

    Orbital Energies [Eh]
    ---------------------

    Doubly Occupied:

       1A    -20.574202     2A    -20.566154     3A    -11.356778
       4A    -11.351508     5A    -11.302586     6A    -11.279995
       7A    -11.256753     8A    -11.228108     9A     -1.396814
      10A     -1.395149    11A     -1.110749    12A     -1.070395
      13A     -0.953080    14A     -0.878036    15A     -0.797078
      16A     -0.748002    17A     -0.692759    18A     -0.673911
      19A     -0.646064    20A     -0.638017    21A     -0.629404
      22A     -0.555451    23A     -0.554392    24A     -0.540029
      25A     -0.537161    26A     -0.528808    27A     -0.502393
      28A     -0.451781    29A     -0.436610    30A     -0.406181

  @DF-RHF Final Energy:  -381.68087949064909

   => Energetics <=

    Nuclear Repulsion Energy =            330.2832533112544411
    One-Electron Energy =               -1173.8115714177783957
    Two-Electron Energy =                 461.8474386158749212
    Total Energy =                       -381.6808794906490903
  Basis Set: (AUG-CC-PVTZ AUX)
    Blend: AUG-CC-PVTZ-RI
    Molecular point group: c1

    Geometry (in Angstrom), charge = 0, multiplicity = 1:

       Center              X                  Y                   Z               Mass
    ------------   -----------------  -----------------  -----------------  -----------------
         O            1.185678919070    -1.326919459369    -0.011103501553    15.994914619570
         O           -3.787392080930    -0.180601459369    -0.030813501553    15.994914619570
         C            2.258038919070     0.826946540631     0.020689498447    12.000000000000
         C            3.586081919070     0.090078540631    -0.006226501553    12.000000000000
         C            1.066683919070    -0.102677459369     0.017027498447    12.000000000000
         C           -0.280919080930     0.539779540631     0.023982498447    12.000000000000
         C           -1.408457080930    -0.192892459369     0.001208498447    12.000000000000
         C           -2.732908080930     0.446371540631    -0.006762501553    12.000000000000
         H            2.176920919070     1.472832540631     0.905236498447     1.007825032230
         H            2.158538919070     1.504920540631    -0.839298501553     1.007825032230
         H            3.679910919070    -0.563620459369     0.862179498447     1.007825032230
         H            3.661373919070    -0.534062459369    -0.897841501553     1.007825032230
         H            4.417703919070     0.798344540631    -0.003184501553     1.007825032230
         H           -0.343210980930     1.828885040631     0.044572898447     1.007825032230
         H           -1.360876080930    -1.279318459369    -0.016394501553     1.007825032230
         H           -2.729673080930     1.555977540631     0.015606498447     1.007825032230

  Basis Set: AUG-CC-PVTZ
    Blend: AUG-CC-PVTZ
  Basis Set: (AUG-CC-PVTZ AUX)
    Blend: AUG-CC-PVTZ-JKFIT
	 Reference Energy          =    -381.6808794906490903 [Eh]
	 Singles Energy            =      -0.0000000000000000 [Eh]
	 Same-Spin Energy          =      -0.3780767884119408 [Eh]
	 Opposite-Spin Energy      =      -1.2260062921021282 [Eh]
	 Correlation Energy        =      -1.6040830805140689 [Eh]
	 Total Energy              =    -383.2849625711631347 [Eh]

	 ================> DF-SCS-MP2 Energies <==================
	-----------------------------------------------------------
	 SCS Same-Spin Scale       =       0.3333333333333333 [-]
	 SCS Opposite-Spin Scale   =       1.2000000000000000 [-]
	 SCS Same-Spin Energy      =      -0.1260255961373136 [Eh]
	 SCS Opposite-Spin Energy  =      -1.4712075505225537 [Eh]
	 SCS Correlation Energy    =      -1.5972331466598673 [Eh]
	 SCS Total Energy          =    -383.2781126373089364 [Eh]
	-----------------------------------------------------------

  Dipole Moment: [D]
     X:     2.7664      Y:     3.4386      Z:     0.0885     Total:     4.4142

*** Psi4 exiting successfully. Buy a developer a beer!
