                               Psi4 1.4a3.dev225

  ==> Input File <==

--------------------------------------------------------------------------
#psi4
#
memory 32 gb

molecule  {
0 1
  O        1.0820120     1.3681640     0.0000000
  O       -3.8882340     0.1997640    -0.0000030
  C        2.1679760    -0.7815440    -0.0000070
  C        3.4943680    -0.0370920     0.0000040
  C        0.9697220     0.1420900     0.0000000
  C       -0.3759970    -0.5069640     0.0000040
  C       -1.5077040     0.2230700     0.0000000
  C       -2.8119724    -0.4144047     0.0000020
  H        2.0818540    -1.4423830    -0.8738950
  H        2.0818510    -1.4424050     0.8738640
  H        3.5776630     0.6025590    -0.8807220
  H        3.5776700     0.6025230     0.8807550
  H        4.3292850    -0.7422630    -0.0000140
  H       -0.4236580    -1.5964830     0.0000100
  H       -1.4638710     1.3098110    -0.0000060
  H       -2.8215620    -1.5330200     0.0000110
units angstrom
no_reorient  #important for SAPT in psi4, default
symmetry c1  #important for SAPT in psi4, default
}

set PROPERTIES_ORIGIN ["COM"]
properties('MP2/aug-cc-pvtz', properties = ['dipole'])
--------------------------------------------------------------------------

    Molecular point group: c1
  Charge       = 0
  Multiplicity = 1
  Basis Set: AUG-CC-PVTZ
    Blend: AUG-CC-PVTZ
  Basis Set: (AUG-CC-PVTZ AUX)
    Blend: AUG-CC-PVTZ-JKFIT

    Orbital Energies [Eh]
    ---------------------

    Doubly Occupied:

       1A    -20.572790     2A    -20.565594     3A    -11.355535
       4A    -11.351496     5A    -11.285091     6A    -11.278330
       7A    -11.258385     8A    -11.229416     9A     -1.395311
      10A     -1.386489    11A     -1.117602    12A     -1.071045
      13A     -0.957604    14A     -0.880704    15A     -0.799915
      16A     -0.757724    17A     -0.696752    18A     -0.685661
      19A     -0.646809    20A     -0.637115    21A     -0.626121
      22A     -0.574568    23A     -0.553409    24A     -0.544382
      25A     -0.534696    26A     -0.529298    27A     -0.502962
      28A     -0.451423    29A     -0.437436    30A     -0.404654

  @DF-RHF Final Energy:  -381.70040356552346

   => Energetics <=

    Nuclear Repulsion Energy =            330.9762829304344223
    One-Electron Energy =               -1175.1767363342471526
    Two-Electron Energy =                 462.5000498382892715
    Total Energy =                       -381.7004035655234588
  Basis Set: (AUG-CC-PVTZ AUX)
    Blend: AUG-CC-PVTZ-RI
    Molecular point group: c1

    Geometry (in Angstrom), charge = 0, multiplicity = 1:

       Center              X                  Y                   Z               Mass
    ------------   -----------------  -----------------  -----------------  -----------------
         O            1.176822423105     1.329736578346     0.000000079974    15.994914619570
         O           -3.793423576895     0.161336578346    -0.000002920026    15.994914619570
         C            2.262786423105    -0.819971421654    -0.000006920026    12.000000000000
         C            3.589178423105    -0.075519421654     0.000004079974    12.000000000000
         C            1.064532423105     0.103662578346     0.000000079974    12.000000000000
         C           -0.281186576895    -0.545391421654     0.000004079974    12.000000000000
         C           -1.412893576895     0.184642578346     0.000000079974    12.000000000000
         C           -2.717161976895    -0.452832121654     0.000002079974    12.000000000000
         H            2.176664423105    -1.480810421654    -0.873894920026     1.007825032230
         H            2.176661423105    -1.480832421654     0.873864079974     1.007825032230
         H            3.672473423105     0.564131578346    -0.880721920026     1.007825032230
         H            3.672480423105     0.564095578346     0.880755079974     1.007825032230
         H            4.424095423105    -0.780690421654    -0.000013920026     1.007825032230
         H           -0.328847576895    -1.634910421654     0.000010079974     1.007825032230
         H           -1.369060576895     1.271383578346    -0.000005920026     1.007825032230
         H           -2.726751576895    -1.571447421654     0.000011079974     1.007825032230

  Basis Set: AUG-CC-PVTZ
    Blend: AUG-CC-PVTZ
  Basis Set: (AUG-CC-PVTZ AUX)
    Blend: AUG-CC-PVTZ-JKFIT
	 Reference Energy          =    -381.7004035655234588 [Eh]
	 Singles Energy            =      -0.0000000000000000 [Eh]
	 Same-Spin Energy          =      -0.3779815706182317 [Eh]
	 Opposite-Spin Energy      =      -1.2250448740704192 [Eh]
	 Correlation Energy        =      -1.6030264446886509 [Eh]
	 Total Energy              =    -383.3034300102120824 [Eh]

	 ================> DF-SCS-MP2 Energies <==================
	-----------------------------------------------------------
	 SCS Same-Spin Scale       =       0.3333333333333333 [-]
	 SCS Opposite-Spin Scale   =       1.2000000000000000 [-]
	 SCS Same-Spin Energy      =      -0.1259938568727439 [Eh]
	 SCS Opposite-Spin Energy  =      -1.4700538488845030 [Eh]
	 SCS Correlation Energy    =      -1.5960477057572469 [Eh]
	 SCS Total Energy          =    -383.2964512712807164 [Eh]
	-----------------------------------------------------------

  Dipole Moment: [D]
     X:     2.8977      Y:    -3.4818      Z:     0.0000     Total:     4.5299

*** Psi4 exiting successfully. Buy a developer a beer!
