                               Psi4 1.3.2 release

  ==> Input File <==

--------------------------------------------------------------------------
#psi4
#
memory 32 gb

molecule  {
0 1
  O        1.1855920    -1.3251230    -0.0110750
  O       -3.7874790    -0.1788050    -0.0307850
  C        2.2579520     0.8287430     0.0207180
  C        3.5859950     0.0918750    -0.0061980
  C        1.0311252    -0.1705184     0.0158462
  C       -0.2810060     0.5415760     0.0240110
  C       -1.4085440    -0.1910960     0.0012370
  C       -2.7329950     0.4481680    -0.0067340
  H        2.1768340     1.4746290     0.9052650
  H        2.1584520     1.5067170    -0.8392700
  H        3.6798240    -0.5618240     0.8622080
  H        3.6612870    -0.5322660    -0.8978130
  H        4.4176170     0.8001410    -0.0031560
  H       -0.3905939     1.6266948     0.0411996
  H       -1.3609630    -1.2775220    -0.0163660
  H       -2.7297600     1.5577740     0.0156350
units angstrom
no_reorient  #important for SAPT in psi4, default
symmetry c1  #important for SAPT in psi4, default
}

set PROPERTIES_ORIGIN ["COM"]
properties('MP2/aug-cc-pvtz', properties = ['dipole'])
--------------------------------------------------------------------------

    Molecular point group: c1
  Charge       = 0
  Multiplicity = 1
  Basis Set: AUG-CC-PVTZ
    Blend: AUG-CC-PVTZ
  Basis Set: (AUG-CC-PVTZ AUX)
    Blend: AUG-CC-PVTZ-JKFIT

    Orbital Energies [Eh]
    ---------------------

    Doubly Occupied:

       1A    -20.574182     2A    -20.569532     3A    -11.351296
       4A    -11.350084     5A    -11.280114     6A    -11.276324
       7A    -11.251398     8A    -11.224435     9A     -1.441095
      10A     -1.395412    11A     -1.115876    12A     -1.056702
      13A     -0.948850    14A     -0.871112    15A     -0.799683
      16A     -0.760017    17A     -0.702436    18A     -0.686383
      19A     -0.645425    20A     -0.641148    21A     -0.633417
      22A     -0.577891    23A     -0.566114    24A     -0.544342
      25A     -0.543572    26A     -0.526773    27A     -0.504185
      28A     -0.451509    29A     -0.421971    30A     -0.407852

  @DF-RHF Final Energy:  -381.70027744410027

   => Energetics <=

    Nuclear Repulsion Energy =            331.6667201802591194
    One-Electron Energy =               -1176.4957356727272781
    Two-Electron Energy =                 463.1287380483679499
    Total Energy =                       -381.7002774441002657
  Basis Set: (AUG-CC-PVTZ AUX)
    Blend: AUG-CC-PVTZ-RI
    Molecular point group: c1

    Geometry (in Angstrom), charge = 0, multiplicity = 1:

       Center              X                  Y                   Z               Mass
    ------------   -----------------  -----------------  -----------------  -----------------
         O            1.189903081766    -1.317627097685    -0.010943344212    15.994914619570
         O           -3.783167918234    -0.171309097685    -0.030653344212    15.994914619570
         C            2.262263081766     0.836238902315     0.020849655788    12.000000000000
         C            3.590306081766     0.099370902315    -0.006066344212    12.000000000000
         C            1.035436281766    -0.163022497685     0.015977855788    12.000000000000
         C           -0.276694918234     0.549071902315     0.024142655788    12.000000000000
         C           -1.404232918234    -0.183600097685     0.001368655788    12.000000000000
         C           -2.728683918234     0.455663902315    -0.006602344212    12.000000000000
         H            2.181145081766     1.482124902315     0.905396655788     1.007825032230
         H            2.162763081766     1.514212902315    -0.839138344212     1.007825032230
         H            3.684135081766    -0.554328097685     0.862339655788     1.007825032230
         H            3.665598081766    -0.524770097685    -0.897681344212     1.007825032230
         H            4.421928081766     0.807636902315    -0.003024344212     1.007825032230
         H           -0.386282818234     1.634190702315     0.041331255788     1.007825032230
         H           -1.356651918234    -1.270026097685    -0.016234344212     1.007825032230
         H           -2.725448918234     1.565269902315     0.015766655788     1.007825032230

  Basis Set: AUG-CC-PVTZ
    Blend: AUG-CC-PVTZ
  Basis Set: (AUG-CC-PVTZ AUX)
    Blend: AUG-CC-PVTZ-JKFIT
	 Reference Energy          =    -381.7002774441002657 [Eh]
	 Singles Energy            =      -0.0000000000000000 [Eh]
	 Same-Spin Energy          =      -0.3757373705898903 [Eh]
	 Opposite-Spin Energy      =      -1.2202205448190981 [Eh]
	 Correlation Energy        =      -1.5959579154089885 [Eh]
	 Total Energy              =    -383.2962353595092395 [Eh]

	 ================> DF-SCS-MP2 Energies <==================
	-----------------------------------------------------------
	 SCS Same-Spin Scale       =       0.3333333333333333 [-]
	 SCS Opposite-Spin Scale   =       1.2000000000000000 [-]
	 SCS Same-Spin Energy      =      -0.1252457901966301 [Eh]
	 SCS Opposite-Spin Energy  =      -1.4642646537829178 [Eh]
	 SCS Correlation Energy    =      -1.5895104439795480 [Eh]
	 SCS Total Energy          =    -383.2897878880797862 [Eh]
	-----------------------------------------------------------

  Dipole Moment: [D]
     X:     2.4703      Y:     3.2102      Z:     0.0869     Total:     4.0515

*** Psi4 exiting successfully. Buy a developer a beer!
