                               Psi4 1.3.2 release

  ==> Input File <==

--------------------------------------------------------------------------
#psi4
#
memory 32 gb

molecule  {
0 1
  O        1.2282554    -1.3202316    -0.0107005
  O       -3.7874790    -0.1788050    -0.0307850
  C        2.2579520     0.8287430     0.0207180
  C        3.5859950     0.0918750    -0.0061980
  C        1.0665970    -0.1008810     0.0170560
  C       -0.2577646     0.5881999     0.0252511
  C       -1.4085440    -0.1910960     0.0012370
  C       -2.7329950     0.4481680    -0.0067340
  H        2.1768340     1.4746290     0.9052650
  H        2.1584520     1.5067170    -0.8392700
  H        3.6798240    -0.5618240     0.8622080
  H        3.6612870    -0.5322660    -0.8978130
  H        4.4176170     0.8001410    -0.0031560
  H       -0.3336460     1.6309400     0.0414110
  H       -1.3609630    -1.2775220    -0.0163660
  H       -2.7297600     1.5577740     0.0156350
units angstrom
no_reorient  #important for SAPT in psi4, default
symmetry c1  #important for SAPT in psi4, default
}

set PROPERTIES_ORIGIN ["COM"]
properties('MP2/aug-cc-pvtz', properties = ['dipole'])
--------------------------------------------------------------------------

    Molecular point group: c1
  Charge       = 0
  Multiplicity = 1
  Basis Set: AUG-CC-PVTZ
    Blend: AUG-CC-PVTZ
  Basis Set: (AUG-CC-PVTZ AUX)
    Blend: AUG-CC-PVTZ-JKFIT

    Orbital Energies [Eh]
    ---------------------

    Doubly Occupied:

       1A    -20.575689     2A    -20.563839     3A    -11.354025
       4A    -11.352663     5A    -11.288630     6A    -11.286604
       7A    -11.253079     8A    -11.225643     9A     -1.396911
      10A     -1.393501    11A     -1.111011    12A     -1.066537
      13A     -0.957458    14A     -0.877491    15A     -0.803859
      16A     -0.759233    17A     -0.698784    18A     -0.684272
      19A     -0.644223    20A     -0.635979    21A     -0.630600
      22A     -0.585655    23A     -0.553791    24A     -0.540045
      25A     -0.535927    26A     -0.526415    27A     -0.500255
      28A     -0.452536    29A     -0.434631    30A     -0.398744

  @DF-RHF Final Energy:  -381.69630516309024

   => Energetics <=

    Nuclear Repulsion Energy =            330.6125196604529037
    One-Electron Energy =               -1174.4415899324696966
    Two-Electron Energy =                 462.1327651089265487
    Total Energy =                       -381.6963051630902442
  Basis Set: (AUG-CC-PVTZ AUX)
    Blend: AUG-CC-PVTZ-RI
    Molecular point group: c1

    Geometry (in Angstrom), charge = 0, multiplicity = 1:

       Center              X                  Y                   Z               Mass
    ------------   -----------------  -----------------  -----------------  -----------------
         O            1.219676539388    -1.325922841871    -0.010886570029    15.994914619570
         O           -3.796057860612    -0.184496241871    -0.030971070029    15.994914619570
         C            2.249373139388     0.823051758129     0.020531929971    12.000000000000
         C            3.577416139388     0.086183758129    -0.006384070029    12.000000000000
         C            1.058018139388    -0.106572241871     0.016869929971    12.000000000000
         C           -0.266343460612     0.582508658129     0.025065029971    12.000000000000
         C           -1.417122860612    -0.196787241871     0.001050929971    12.000000000000
         C           -2.741573860612     0.442476758129    -0.006920070029    12.000000000000
         H            2.168255139388     1.468937758129     0.905078929971     1.007825032230
         H            2.149873139388     1.501025758129    -0.839456070029     1.007825032230
         H            3.671245139388    -0.567515241871     0.862021929971     1.007825032230
         H            3.652708139388    -0.537957241871    -0.897999070029     1.007825032230
         H            4.409038139388     0.794449758129    -0.003342070029     1.007825032230
         H           -0.342224860612     1.625248758129     0.041224929971     1.007825032230
         H           -1.369541860612    -1.283213241871    -0.016552070029     1.007825032230
         H           -2.738338860612     1.552082758129     0.015448929971     1.007825032230

  Basis Set: AUG-CC-PVTZ
    Blend: AUG-CC-PVTZ
  Basis Set: (AUG-CC-PVTZ AUX)
    Blend: AUG-CC-PVTZ-JKFIT
	 Reference Energy          =    -381.6963051630902442 [Eh]
	 Singles Energy            =      -0.0000000000000000 [Eh]
	 Same-Spin Energy          =      -0.3780409534533091 [Eh]
	 Opposite-Spin Energy      =      -1.2252351697077557 [Eh]
	 Correlation Energy        =      -1.6032761231610648 [Eh]
	 Total Energy              =    -383.2995812862512821 [Eh]

	 ================> DF-SCS-MP2 Energies <==================
	-----------------------------------------------------------
	 SCS Same-Spin Scale       =       0.3333333333333333 [-]
	 SCS Opposite-Spin Scale   =       1.2000000000000000 [-]
	 SCS Same-Spin Energy      =      -0.1260136511511030 [Eh]
	 SCS Opposite-Spin Energy  =      -1.4702822036493068 [Eh]
	 SCS Correlation Energy    =      -1.5962958548004098 [Eh]
	 SCS Total Energy          =    -383.2926010178906608 [Eh]
	-----------------------------------------------------------

  Dipole Moment: [D]
     X:     2.5464      Y:     3.5137      Z:     0.0896     Total:     4.3403

*** Psi4 exiting successfully. Buy a developer a beer!
