                               Psi4 1.3.2 release

  ==> Input File <==

--------------------------------------------------------------------------
#psi4
#
memory 32 gb

molecule  {
0 1
  O        1.1855920    -1.3251230    -0.0110750
  O       -3.7874790    -0.1788050    -0.0307850
  C        2.2579520     0.8287430     0.0207180
  C        3.5859950     0.0918750    -0.0061980
  C        1.0859405    -0.2998908     0.0124831
  C       -0.2810060     0.5415760     0.0240110
  C       -1.4085440    -0.1910960     0.0012370
  C       -2.7329950     0.4481680    -0.0067340
  H        2.1768340     1.4746290     0.9052650
  H        2.1584520     1.5067170    -0.8392700
  H        3.6798240    -0.5618240     0.8622080
  H        3.6612870    -0.5322660    -0.8978130
  H        4.4176170     0.8001410    -0.0031560
  H       -0.3336460     1.6309400     0.0414110
  H       -1.3609630    -1.2775220    -0.0163660
  H       -2.7297600     1.5577740     0.0156350
units angstrom
no_reorient  #important for SAPT in psi4, default
symmetry c1  #important for SAPT in psi4, default
}

set PROPERTIES_ORIGIN ["COM"]
properties('MP2/aug-cc-pvtz', properties = ['dipole'])
--------------------------------------------------------------------------

    Molecular point group: c1
  Charge       = 0
  Multiplicity = 1
  Basis Set: AUG-CC-PVTZ
    Blend: AUG-CC-PVTZ
  Basis Set: (AUG-CC-PVTZ AUX)
    Blend: AUG-CC-PVTZ-JKFIT

    Orbital Energies [Eh]
    ---------------------

    Doubly Occupied:

       1A    -20.585460     2A    -20.563815     3A    -11.344062
       4A    -11.342488     5A    -11.271431     6A    -11.262484
       7A    -11.246389     8A    -11.224291     9A     -1.557221
      10A     -1.386274    11A     -1.097958    12A     -1.052427
      13A     -0.924389    14A     -0.862301    15A     -0.789170
      16A     -0.766137    17A     -0.728707    18A     -0.690809
      19A     -0.672185    20A     -0.664998    21A     -0.627795
      22A     -0.604652    23A     -0.576808    24A     -0.552428
      25A     -0.540230    26A     -0.527484    27A     -0.506954
      28A     -0.443520    29A     -0.400971    30A     -0.387970

  @DF-RHF Final Energy:  -381.63454662376580

   => Energetics <=

    Nuclear Repulsion Energy =            332.9378140989524013
    One-Electron Energy =               -1178.7411058154229977
    Two-Electron Energy =                 464.1687450927047394
    Total Energy =                       -381.6345466237658002
  Basis Set: (AUG-CC-PVTZ AUX)
    Blend: AUG-CC-PVTZ-RI
    Molecular point group: c1

    Geometry (in Angstrom), charge = 0, multiplicity = 1:

       Center              X                  Y                   Z               Mass
    ------------   -----------------  -----------------  -----------------  -----------------
         O            1.183520559563    -1.303810437144    -0.010585082048    15.994914619570
         O           -3.789550440437    -0.157492437144    -0.030295082048    15.994914619570
         C            2.255880559563     0.850055562856     0.021207917952    12.000000000000
         C            3.583923559563     0.113187562856    -0.005708082048    12.000000000000
         C            1.083869059563    -0.278578237144     0.012973017952    12.000000000000
         C           -0.283077440437     0.562888562856     0.024500917952    12.000000000000
         C           -1.410615440437    -0.169783437144     0.001726917952    12.000000000000
         C           -2.735066440437     0.469480562856    -0.006244082048    12.000000000000
         H            2.174762559563     1.495941562856     0.905754917952     1.007825032230
         H            2.156380559563     1.528029562856    -0.838780082048     1.007825032230
         H            3.677752559563    -0.540511437144     0.862697917952     1.007825032230
         H            3.659215559563    -0.510953437144    -0.897323082048     1.007825032230
         H            4.415545559563     0.821453562856    -0.002666082048     1.007825032230
         H           -0.335717440437     1.652252562856     0.041900917952     1.007825032230
         H           -1.363034440437    -1.256209437144    -0.015876082048     1.007825032230
         H           -2.731831440437     1.579086562856     0.016124917952     1.007825032230

  Basis Set: AUG-CC-PVTZ
    Blend: AUG-CC-PVTZ
  Basis Set: (AUG-CC-PVTZ AUX)
    Blend: AUG-CC-PVTZ-JKFIT
	 Reference Energy          =    -381.6345466237658002 [Eh]
	 Singles Energy            =      -0.0000000000000000 [Eh]
	 Same-Spin Energy          =      -0.3727632993576346 [Eh]
	 Opposite-Spin Energy      =      -1.2136932370779481 [Eh]
	 Correlation Energy        =      -1.5864565364355827 [Eh]
	 Total Energy              =    -383.2210031602014055 [Eh]

	 ================> DF-SCS-MP2 Energies <==================
	-----------------------------------------------------------
	 SCS Same-Spin Scale       =       0.3333333333333333 [-]
	 SCS Opposite-Spin Scale   =       1.2000000000000000 [-]
	 SCS Same-Spin Energy      =      -0.1242544331192115 [Eh]
	 SCS Opposite-Spin Energy  =      -1.4564318844935376 [Eh]
	 SCS Correlation Energy    =      -1.5806863176127490 [Eh]
	 SCS Total Energy          =    -383.2152329413785310 [Eh]
	-----------------------------------------------------------

  Dipole Moment: [D]
     X:     3.0595      Y:     2.5417      Z:     0.0786     Total:     3.9783

*** Psi4 exiting successfully. Buy a developer a beer!
