                               Psi4 1.4a3.dev225

  ==> Input File <==

--------------------------------------------------------------------------
#psi4
#
memory 32 gb

molecule  {
0 1
  O        1.0820120     1.3681640     0.0000000
  O       -3.8882340     0.1997640    -0.0000030
  C        2.1679760    -0.7815440    -0.0000070
  C        3.4943680    -0.0370920     0.0000040
  C        0.9697220     0.1420900     0.0000000
  C       -0.3759970    -0.5069640     0.0000040
  C       -1.5077040     0.2230700     0.0000000
  C       -2.8299410    -0.4231870     0.0000020
  H        2.0818540    -1.4423830    -0.8738950
  H        2.0818510    -1.4424050     0.8738640
  H        3.5776630     0.6025590    -0.8807220
  H        3.5776700     0.6025230     0.8807550
  H        4.3292850    -0.7422630    -0.0000140
  H       -0.4236580    -1.5964830     0.0000100
  H       -1.4638710     1.3098110    -0.0000060
  H       -2.8214110    -1.5530194     0.0000112
units angstrom
no_reorient  #important for SAPT in psi4, default
symmetry c1  #important for SAPT in psi4, default
}

set PROPERTIES_ORIGIN ["COM"]
properties('MP2/aug-cc-pvtz', properties = ['dipole'])
--------------------------------------------------------------------------

    Molecular point group: c1
  Charge       = 0
  Multiplicity = 1
  Basis Set: AUG-CC-PVTZ
    Blend: AUG-CC-PVTZ
  Basis Set: (AUG-CC-PVTZ AUX)
    Blend: AUG-CC-PVTZ-JKFIT

    Orbital Energies [Eh]
    ---------------------

    Doubly Occupied:

       1A    -20.574535     2A    -20.564239     3A    -11.354443
       4A    -11.353952     5A    -11.282864     6A    -11.278806
       7A    -11.257554     8A    -11.228787     9A     -1.395215
      10A     -1.393697    11A     -1.114309    12A     -1.069706
      13A     -0.954202    14A     -0.878427    15A     -0.798568
      16A     -0.756219    17A     -0.695633    18A     -0.684816
      19A     -0.646002    20A     -0.636894    21A     -0.629072
      22A     -0.573959    23A     -0.554548    24A     -0.543720
      25A     -0.536446    26A     -0.528584    27A     -0.502321
      28A     -0.450855    29A     -0.435777    30A     -0.404522

  @DF-RHF Final Energy:  -381.70191867918442

   => Energetics <=

    Nuclear Repulsion Energy =            330.7637498717537596
    One-Electron Energy =               -1174.7739953563336712
    Two-Electron Energy =                 462.3083268053954384
    Total Energy =                       -381.7019186791844163
  Basis Set: (AUG-CC-PVTZ AUX)
    Blend: AUG-CC-PVTZ-RI
    Molecular point group: c1

    Geometry (in Angstrom), charge = 0, multiplicity = 1:

       Center              X                  Y                   Z               Mass
    ------------   -----------------  -----------------  -----------------  -----------------
         O            1.178745371313     1.330856977935     0.000000078175    15.994914619570
         O           -3.791500628687     0.162456977935    -0.000002921825    15.994914619570
         C            2.264709371313    -0.818851022065    -0.000006921825    12.000000000000
         C            3.591101371313    -0.074399022065     0.000004078175    12.000000000000
         C            1.066455371313     0.104782977935     0.000000078175    12.000000000000
         C           -0.279263628687    -0.544271022065     0.000004078175    12.000000000000
         C           -1.410970628687     0.185762977935     0.000000078175    12.000000000000
         C           -2.733207628687    -0.460494022065     0.000002078175    12.000000000000
         H            2.178587371313    -1.479690022065    -0.873894921825     1.007825032230
         H            2.178584371313    -1.479712022065     0.873864078175     1.007825032230
         H            3.674396371313     0.565251977935    -0.880721921825     1.007825032230
         H            3.674403371313     0.565215977935     0.880755078175     1.007825032230
         H            4.426018371313    -0.779570022065    -0.000013921825     1.007825032230
         H           -0.326924628687    -1.633790022065     0.000010078175     1.007825032230
         H           -1.367137628687     1.272503977935    -0.000005921825     1.007825032230
         H           -2.724677628687    -1.590326422065     0.000011278175     1.007825032230

  Basis Set: AUG-CC-PVTZ
    Blend: AUG-CC-PVTZ
  Basis Set: (AUG-CC-PVTZ AUX)
    Blend: AUG-CC-PVTZ-JKFIT
	 Reference Energy          =    -381.7019186791844163 [Eh]
	 Singles Energy            =      -0.0000000000000000 [Eh]
	 Same-Spin Energy          =      -0.3775192490837997 [Eh]
	 Opposite-Spin Energy      =      -1.2241953913037351 [Eh]
	 Correlation Energy        =      -1.6017146403875349 [Eh]
	 Total Energy              =    -383.3036333195719294 [Eh]

	 ================> DF-SCS-MP2 Energies <==================
	-----------------------------------------------------------
	 SCS Same-Spin Scale       =       0.3333333333333333 [-]
	 SCS Opposite-Spin Scale   =       1.2000000000000000 [-]
	 SCS Same-Spin Energy      =      -0.1258397496945999 [Eh]
	 SCS Opposite-Spin Energy  =      -1.4690344695644821 [Eh]
	 SCS Correlation Energy    =      -1.5948742192590821 [Eh]
	 SCS Total Energy          =    -383.2967928984434707 [Eh]
	-----------------------------------------------------------

  Dipole Moment: [D]
     X:     2.7734      Y:    -3.4815      Z:     0.0000     Total:     4.4511

*** Psi4 exiting successfully. Buy a developer a beer!
