                               Psi4 1.4a3.dev225

  ==> Input File <==

--------------------------------------------------------------------------
#psi4
#
memory 32 gb

molecule  {
0 1
  O        1.0820120     1.3681640     0.0000000
  O       -3.8882340     0.1997640    -0.0000030
  C        2.1679760    -0.7815440    -0.0000070
  C        3.4943680    -0.0370920     0.0000040
  C        0.9697220     0.1420900     0.0000000
  C       -0.3759970    -0.5069640     0.0000040
  C       -1.5077040     0.2230700     0.0000000
  C       -2.8748625    -0.4451428     0.0000021
  H        2.0818540    -1.4423830    -0.8738950
  H        2.0818510    -1.4424050     0.8738640
  H        3.5776630     0.6025590    -0.8807220
  H        3.5776700     0.6025230     0.8807550
  H        4.3292850    -0.7422630    -0.0000140
  H       -0.4236580    -1.5964830     0.0000100
  H       -1.4638710     1.3098110    -0.0000060
  H       -2.8215620    -1.5330200     0.0000110
units angstrom
no_reorient  #important for SAPT in psi4, default
symmetry c1  #important for SAPT in psi4, default
}

set PROPERTIES_ORIGIN ["COM"]
properties('MP2/aug-cc-pvtz', properties = ['dipole'])
--------------------------------------------------------------------------

    Molecular point group: c1
  Charge       = 0
  Multiplicity = 1
  Basis Set: AUG-CC-PVTZ
    Blend: AUG-CC-PVTZ
  Basis Set: (AUG-CC-PVTZ AUX)
    Blend: AUG-CC-PVTZ-JKFIT

    Orbital Energies [Eh]
    ---------------------

    Doubly Occupied:

       1A    -20.577376     2A    -20.560541     3A    -11.352263
       4A    -11.351400     5A    -11.278687     6A    -11.276309
       7A    -11.255300     8A    -11.227077     9A     -1.414815
      10A     -1.390718    11A     -1.106664    12A     -1.066224
      13A     -0.947221    14A     -0.875535    15A     -0.804706
      16A     -0.752216    17A     -0.694735    18A     -0.686612
      19A     -0.643818    20A     -0.641021    21A     -0.632405
      22A     -0.571884    23A     -0.560080    24A     -0.541929
      25A     -0.538073    26A     -0.526666    27A     -0.500402
      28A     -0.450767    29A     -0.431232    30A     -0.402807

  @DF-RHF Final Energy:  -381.70384873165546

   => Energetics <=

    Nuclear Repulsion Energy =            330.5604683682357745
    One-Electron Energy =               -1174.4096672148211837
    Two-Electron Energy =                 462.1453501149299541
    Total Energy =                       -381.7038487316554551
  Basis Set: (AUG-CC-PVTZ AUX)
    Blend: AUG-CC-PVTZ-RI
    Molecular point group: c1

    Geometry (in Angstrom), charge = 0, multiplicity = 1:

       Center              X                  Y                   Z               Mass
    ------------   -----------------  -----------------  -----------------  -----------------
         O            1.183557495280     1.333028405232     0.000000069265    15.994914619570
         O           -3.786688504720     0.164628405232    -0.000002930735    15.994914619570
         C            2.269521495280    -0.816679594768    -0.000006930735    12.000000000000
         C            3.595913495280    -0.072227594768     0.000004069265    12.000000000000
         C            1.071267495280     0.106954405232     0.000000069265    12.000000000000
         C           -0.274451504720    -0.542099594768     0.000004069265    12.000000000000
         C           -1.406158504720     0.187934405232     0.000000069265    12.000000000000
         C           -2.773317004720    -0.480278394768     0.000002169265    12.000000000000
         H            2.183399495280    -1.477518594768    -0.873894930735     1.007825032230
         H            2.183396495280    -1.477540594768     0.873864069265     1.007825032230
         H            3.679208495280     0.567423405232    -0.880721930735     1.007825032230
         H            3.679215495280     0.567387405232     0.880755069265     1.007825032230
         H            4.430830495280    -0.777398594768    -0.000013930735     1.007825032230
         H           -0.322112504720    -1.631618594768     0.000010069265     1.007825032230
         H           -1.362325504720     1.274675405232    -0.000005930735     1.007825032230
         H           -2.720016504720    -1.568155594768     0.000011069265     1.007825032230

  Basis Set: AUG-CC-PVTZ
    Blend: AUG-CC-PVTZ
  Basis Set: (AUG-CC-PVTZ AUX)
    Blend: AUG-CC-PVTZ-JKFIT
	 Reference Energy          =    -381.7038487316554551 [Eh]
	 Singles Energy            =      -0.0000000000000000 [Eh]
	 Same-Spin Energy          =      -0.3762463875295258 [Eh]
	 Opposite-Spin Energy      =      -1.2217836670534457 [Eh]
	 Correlation Energy        =      -1.5980300545829715 [Eh]
	 Total Energy              =    -383.3018787862384329 [Eh]

	 ================> DF-SCS-MP2 Energies <==================
	-----------------------------------------------------------
	 SCS Same-Spin Scale       =       0.3333333333333333 [-]
	 SCS Opposite-Spin Scale   =       1.2000000000000000 [-]
	 SCS Same-Spin Energy      =      -0.1254154625098419 [Eh]
	 SCS Opposite-Spin Energy  =      -1.4661404004641347 [Eh]
	 SCS Correlation Energy    =      -1.5915558629739768 [Eh]
	 SCS Total Energy          =    -383.2954045946294173 [Eh]
	-----------------------------------------------------------

  Dipole Moment: [D]
     X:     2.4333      Y:    -3.5573      Z:     0.0000     Total:     4.3099

*** Psi4 exiting successfully. Buy a developer a beer!
