                               Psi4 1.3.2 release

  ==> Input File <==

--------------------------------------------------------------------------
#psi4
#
memory 32 gb

molecule  {
0 1
  O        1.1855920    -1.3251230    -0.0110750
  O       -3.7763720    -0.1971146    -0.0309200
  C        2.2579520     0.8287430     0.0207180
  C        3.5859950     0.0918750    -0.0061980
  C        1.0665970    -0.1008810     0.0170560
  C       -0.2810060     0.5415760     0.0240110
  C       -1.4198979    -0.2141105     0.0007246
  C       -2.7329950     0.4481680    -0.0067340
  H        2.1768340     1.4746290     0.9052650
  H        2.1584520     1.5067170    -0.8392700
  H        3.6798240    -0.5618240     0.8622080
  H        3.6612870    -0.5322660    -0.8978130
  H        4.4176170     0.8001410    -0.0031560
  H       -0.3336460     1.6309400     0.0414110
  H       -1.3609630    -1.2775220    -0.0163660
  H       -2.7297600     1.5577740     0.0156350
units angstrom
no_reorient  #important for SAPT in psi4, default
symmetry c1  #important for SAPT in psi4, default
}

set PROPERTIES_ORIGIN ["COM"]
properties('MP2/aug-cc-pvtz', properties = ['dipole'])
--------------------------------------------------------------------------

    Molecular point group: c1
  Charge       = 0
  Multiplicity = 1
  Basis Set: AUG-CC-PVTZ
    Blend: AUG-CC-PVTZ
  Basis Set: (AUG-CC-PVTZ AUX)
    Blend: AUG-CC-PVTZ-JKFIT

    Orbital Energies [Eh]
    ---------------------

    Doubly Occupied:

       1A    -20.573174     2A    -20.563252     3A    -11.353166
       4A    -11.351320     5A    -11.284400     6A    -11.279235
       7A    -11.256544     8A    -11.227925     9A     -1.395621
      10A     -1.393618    11A     -1.110329    12A     -1.069371
      13A     -0.954606    14A     -0.877590    15A     -0.804924
      16A     -0.754801    17A     -0.696408    18A     -0.684384
      19A     -0.645638    20A     -0.637559    21A     -0.628604
      22A     -0.579139    23A     -0.553956    24A     -0.543259
      25A     -0.536265    26A     -0.528444    27A     -0.501609
      28A     -0.452049    29A     -0.435118    30A     -0.399517

  @DF-RHF Final Energy:  -381.70115052673674

   => Energetics <=

    Nuclear Repulsion Energy =            331.0205150772123943
    One-Electron Energy =               -1175.2996854578236707
    Two-Electron Energy =                 462.5780198538745367
    Total Energy =                       -381.7011505267367397
  Basis Set: (AUG-CC-PVTZ AUX)
    Blend: AUG-CC-PVTZ-RI
    Molecular point group: c1

    Geometry (in Angstrom), charge = 0, multiplicity = 1:

       Center              X                  Y                   Z               Mass
    ------------   -----------------  -----------------  -----------------  -----------------
         O            1.185222559995    -1.320044651069    -0.011000661494    15.994914619570
         O           -3.776741440005    -0.192036251069    -0.030845661494    15.994914619570
         C            2.257582559995     0.833821348931     0.020792338506    12.000000000000
         C            3.585625559995     0.096953348931    -0.006123661494    12.000000000000
         C            1.066227559995    -0.095802651069     0.017130338506    12.000000000000
         C           -0.281375440005     0.546654348931     0.024085338506    12.000000000000
         C           -1.420267340005    -0.209032151069     0.000798938506    12.000000000000
         C           -2.733364440005     0.453246348931    -0.006659661494    12.000000000000
         H            2.176464559995     1.479707348931     0.905339338506     1.007825032230
         H            2.158082559995     1.511795348931    -0.839195661494     1.007825032230
         H            3.679454559995    -0.556745651069     0.862282338506     1.007825032230
         H            3.660917559995    -0.527187651069    -0.897738661494     1.007825032230
         H            4.417247559995     0.805219348931    -0.003081661494     1.007825032230
         H           -0.334015440005     1.636018348931     0.041485338506     1.007825032230
         H           -1.361332440005    -1.272443651069    -0.016291661494     1.007825032230
         H           -2.730129440005     1.562852348931     0.015709338506     1.007825032230

  Basis Set: AUG-CC-PVTZ
    Blend: AUG-CC-PVTZ
  Basis Set: (AUG-CC-PVTZ AUX)
    Blend: AUG-CC-PVTZ-JKFIT
	 Reference Energy          =    -381.7011505267367397 [Eh]
	 Singles Energy            =      -0.0000000000000000 [Eh]
	 Same-Spin Energy          =      -0.3775868415948581 [Eh]
	 Opposite-Spin Energy      =      -1.2242525834972400 [Eh]
	 Correlation Energy        =      -1.6018394250920980 [Eh]
	 Total Energy              =    -383.3029899518288630 [Eh]

	 ================> DF-SCS-MP2 Energies <==================
	-----------------------------------------------------------
	 SCS Same-Spin Scale       =       0.3333333333333333 [-]
	 SCS Opposite-Spin Scale   =       1.2000000000000000 [-]
	 SCS Same-Spin Energy      =      -0.1258622805316194 [Eh]
	 SCS Opposite-Spin Energy  =      -1.4691031001966879 [Eh]
	 SCS Correlation Energy    =      -1.5949653807283073 [Eh]
	 SCS Total Energy          =    -383.2961159074650368 [Eh]
	-----------------------------------------------------------

  Dipole Moment: [D]
     X:     2.7041      Y:     3.5523      Z:     0.0904     Total:     4.4653

*** Psi4 exiting successfully. Buy a developer a beer!
