                               Psi4 1.3.2 release

  ==> Input File <==

--------------------------------------------------------------------------
#psi4
#
memory 32 gb

molecule  {
0 1
  O        1.1855920    -1.3251230    -0.0110750
  O       -3.7874790    -0.1788050    -0.0307850
  C        2.2579520     0.8287430     0.0207180
  C        3.6109134     0.1386722    -0.0056432
  C        1.0348839    -0.0587470     0.0181277
  C       -0.2810060     0.5415760     0.0240110
  C       -1.4085440    -0.1910960     0.0012370
  C       -2.7329950     0.4481680    -0.0067340
  H        2.1768340     1.4746290     0.9052650
  H        2.1584520     1.5067170    -0.8392700
  H        3.6798240    -0.5618240     0.8622080
  H        3.6612870    -0.5322660    -0.8978130
  H        4.4176170     0.8001410    -0.0031560
  H       -0.3336460     1.6309400     0.0414110
  H       -1.3609630    -1.2775220    -0.0163660
  H       -2.7297600     1.5577740     0.0156350
units angstrom
no_reorient  #important for SAPT in psi4, default
symmetry c1  #important for SAPT in psi4, default
}

set PROPERTIES_ORIGIN ["COM"]
properties('MP2/aug-cc-pvtz', properties = ['dipole'])
--------------------------------------------------------------------------

    Molecular point group: c1
  Charge       = 0
  Multiplicity = 1
  Basis Set: AUG-CC-PVTZ
    Blend: AUG-CC-PVTZ
  Basis Set: (AUG-CC-PVTZ AUX)
    Blend: AUG-CC-PVTZ-JKFIT

    Orbital Energies [Eh]
    ---------------------

    Doubly Occupied:

       1A    -20.578339     2A    -20.559413     3A    -11.355810
       4A    -11.354801     5A    -11.284968     6A    -11.282667
       7A    -11.257916     8A    -11.228294     9A     -1.399033
      10A     -1.364667    11A     -1.122171    12A     -1.069430
      13A     -0.964803    14A     -0.883034    15A     -0.806102
      16A     -0.757938    17A     -0.696458    18A     -0.687103
      19A     -0.640862    20A     -0.637680    21A     -0.623939
      22A     -0.573801    23A     -0.558529    24A     -0.555099
      25A     -0.524847    26A     -0.520867    27A     -0.489712
      28A     -0.453324    29A     -0.440607    30A     -0.404424

  @DF-RHF Final Energy:  -381.68984078113232

   => Energetics <=

    Nuclear Repulsion Energy =            330.6539447021837077
    One-Electron Energy =               -1174.5342904766653191
    Two-Electron Energy =                 462.1905049933492933
    Total Energy =                       -381.6898407811323182
  Basis Set: (AUG-CC-PVTZ AUX)
    Blend: AUG-CC-PVTZ-RI
    Molecular point group: c1

    Geometry (in Angstrom), charge = 0, multiplicity = 1:

       Center              X                  Y                   Z               Mass
    ------------   -----------------  -----------------  -----------------  -----------------
         O            1.186319770624    -1.334646823428    -0.011248992687    15.994914619570
         O           -3.786751229376    -0.188328823428    -0.030958992687    15.994914619570
         C            2.258679770624     0.819219176572     0.020544007313    12.000000000000
         C            3.611641170624     0.129148376572    -0.005817192687    12.000000000000
         C            1.035611670624    -0.068270823428     0.017953707313    12.000000000000
         C           -0.280278229376     0.532052176572     0.023837007313    12.000000000000
         C           -1.407816229376    -0.200619823428     0.001063007313    12.000000000000
         C           -2.732267229376     0.438644176572    -0.006907992687    12.000000000000
         H            2.177561770624     1.465105176572     0.905091007313     1.007825032230
         H            2.159179770624     1.497193176572    -0.839443992687     1.007825032230
         H            3.680551770624    -0.571347823428     0.862034007313     1.007825032230
         H            3.662014770624    -0.541789823428    -0.897986992687     1.007825032230
         H            4.418344770624     0.790617176572    -0.003329992687     1.007825032230
         H           -0.332918229376     1.621416176572     0.041237007313     1.007825032230
         H           -1.360235229376    -1.287045823428    -0.016539992687     1.007825032230
         H           -2.729032229376     1.548250176572     0.015461007313     1.007825032230

  Basis Set: AUG-CC-PVTZ
    Blend: AUG-CC-PVTZ
  Basis Set: (AUG-CC-PVTZ AUX)
    Blend: AUG-CC-PVTZ-JKFIT
	 Reference Energy          =    -381.6898407811323182 [Eh]
	 Singles Energy            =      -0.0000000000000000 [Eh]
	 Same-Spin Energy          =      -0.3791424557062335 [Eh]
	 Opposite-Spin Energy      =      -1.2274235860935614 [Eh]
	 Correlation Energy        =      -1.6065660417997949 [Eh]
	 Total Energy              =    -383.2964068229321128 [Eh]

	 ================> DF-SCS-MP2 Energies <==================
	-----------------------------------------------------------
	 SCS Same-Spin Scale       =       0.3333333333333333 [-]
	 SCS Opposite-Spin Scale   =       1.2000000000000000 [-]
	 SCS Same-Spin Energy      =      -0.1263808185687445 [Eh]
	 SCS Opposite-Spin Energy  =      -1.4729083033122736 [Eh]
	 SCS Correlation Energy    =      -1.5992891218810181 [Eh]
	 SCS Total Energy          =    -383.2891299030133609 [Eh]
	-----------------------------------------------------------

  Dipole Moment: [D]
     X:     2.5343      Y:     3.6396      Z:     0.0908     Total:     4.4360

*** Psi4 exiting successfully. Buy a developer a beer!
