                               Psi4 1.3.2 release

  ==> Input File <==

--------------------------------------------------------------------------
#psi4
#
memory 32 gb

molecule  {
0 1
  O        1.1855920    -1.3251230    -0.0110750
  O       -3.7874790    -0.1788050    -0.0307850
  C        2.2579520     0.8287430     0.0207180
  C        3.5859950     0.0918750    -0.0061980
  C        1.0665970    -0.1008810     0.0170560
  C       -0.2810060     0.5415760     0.0240110
  C       -1.4085440    -0.1910960     0.0012370
  C       -2.7439449     0.4249594    -0.0072792
  H        2.1768340     1.4746290     0.9052650
  H        2.1584520     1.5067170    -0.8392700
  H        3.6798240    -0.5618240     0.8622080
  H        3.6612870    -0.5322660    -0.8978130
  H        4.4176170     0.8001410    -0.0031560
  H       -0.3336460     1.6309400     0.0414110
  H       -1.3799316    -1.2781824    -0.0166453
  H       -2.7297600     1.5577740     0.0156350
units angstrom
no_reorient  #important for SAPT in psi4, default
symmetry c1  #important for SAPT in psi4, default
}

set PROPERTIES_ORIGIN ["COM"]
properties('MP2/aug-cc-pvtz', properties = ['dipole'])
--------------------------------------------------------------------------

    Molecular point group: c1
  Charge       = 0
  Multiplicity = 1
  Basis Set: AUG-CC-PVTZ
    Blend: AUG-CC-PVTZ
  Basis Set: (AUG-CC-PVTZ AUX)
    Blend: AUG-CC-PVTZ-JKFIT

    Orbital Energies [Eh]
    ---------------------

    Doubly Occupied:

       1A    -20.574826     2A    -20.563712     3A    -11.353761
       4A    -11.350157     5A    -11.282410     6A    -11.277331
       7A    -11.256839     8A    -11.228104     9A     -1.409762
      10A     -1.394159    11A     -1.114077    12A     -1.070040
      13A     -0.954503    14A     -0.878256    15A     -0.796497
      16A     -0.756842    17A     -0.696056    18A     -0.687058
      19A     -0.645909    20A     -0.640916    21A     -0.631664
      22A     -0.573543    23A     -0.560356    24A     -0.543806
      25A     -0.539126    26A     -0.528662    27A     -0.501967
      28A     -0.448368    29A     -0.434877    30A     -0.405673

  @DF-RHF Final Energy:  -381.70419268519748

   => Energetics <=

    Nuclear Repulsion Energy =            331.3572391410240812
    One-Electron Energy =               -1175.9243501145951996
    Two-Electron Energy =                 462.8629182883735780
    Total Energy =                       -381.7041926851974836
  Basis Set: (AUG-CC-PVTZ AUX)
    Blend: AUG-CC-PVTZ-RI
    Molecular point group: c1

    Geometry (in Angstrom), charge = 0, multiplicity = 1:

       Center              X                  Y                   Z               Mass
    ------------   -----------------  -----------------  -----------------  -----------------
         O            1.186935370216    -1.322631526895    -0.011013907328    15.994914619570
         O           -3.786135629784    -0.176313526895    -0.030723907328    15.994914619570
         C            2.259295370216     0.831234473105     0.020779092672    12.000000000000
         C            3.587338370216     0.094366473105    -0.006136907328    12.000000000000
         C            1.067940370216    -0.098389526895     0.017117092672    12.000000000000
         C           -0.279662629784     0.544067473105     0.024072092672    12.000000000000
         C           -1.407200629784    -0.188604526895     0.001298092672    12.000000000000
         C           -2.742601529784     0.427450873105    -0.007218107328    12.000000000000
         H            2.178177370216     1.477120473105     0.905326092672     1.007825032230
         H            2.159795370216     1.509208473105    -0.839208907328     1.007825032230
         H            3.681167370216    -0.559332526895     0.862269092672     1.007825032230
         H            3.662630370216    -0.529774526895    -0.897751907328     1.007825032230
         H            4.418960370216     0.802632473105    -0.003094907328     1.007825032230
         H           -0.332302629784     1.633431473105     0.041472092672     1.007825032230
         H           -1.378588229784    -1.275690926895    -0.016584207328     1.007825032230
         H           -2.728416629784     1.560265473105     0.015696092672     1.007825032230

  Basis Set: AUG-CC-PVTZ
    Blend: AUG-CC-PVTZ
  Basis Set: (AUG-CC-PVTZ AUX)
    Blend: AUG-CC-PVTZ-JKFIT
	 Reference Energy          =    -381.7041926851974836 [Eh]
	 Singles Energy            =      -0.0000000000000000 [Eh]
	 Same-Spin Energy          =      -0.3769003418479251 [Eh]
	 Opposite-Spin Energy      =      -1.2225652439415418 [Eh]
	 Correlation Energy        =      -1.5994655857894668 [Eh]
	 Total Energy              =    -383.3036582709869435 [Eh]

	 ================> DF-SCS-MP2 Energies <==================
	-----------------------------------------------------------
	 SCS Same-Spin Scale       =       0.3333333333333333 [-]
	 SCS Opposite-Spin Scale   =       1.2000000000000000 [-]
	 SCS Same-Spin Energy      =      -0.1256334472826417 [Eh]
	 SCS Opposite-Spin Energy  =      -1.4670782927298500 [Eh]
	 SCS Correlation Energy    =      -1.5927117400124917 [Eh]
	 SCS Total Energy          =    -383.2969044252099593 [Eh]
	-----------------------------------------------------------

  Dipole Moment: [D]
     X:     2.6970      Y:     3.4235      Z:     0.0876     Total:     4.3591

*** Psi4 exiting successfully. Buy a developer a beer!
