                               Psi4 1.3.2 release

  ==> Input File <==

--------------------------------------------------------------------------
#psi4
#
memory 32 gb

molecule  {
0 1
  O        1.1855920    -1.3251230    -0.0110750
  O       -3.7874790    -0.1788050    -0.0307850
  C        2.2579520     0.8287430     0.0207180
  C        3.5859950     0.0918750    -0.0061980
  C        1.0721520    -0.0891001     0.0173521
  C       -0.2810060     0.5415760     0.0240110
  C       -1.4148975    -0.1812301     0.0014237
  C       -2.7329950     0.4481680    -0.0067340
  H        2.1768340     1.4746290     0.9052650
  H        2.1584520     1.5067170    -0.8392700
  H        3.6798240    -0.5618240     0.8622080
  H        3.6612870    -0.5322660    -0.8978130
  H        4.4176170     0.8001410    -0.0031560
  H       -0.3336460     1.6309400     0.0414110
  H       -1.3609630    -1.2775220    -0.0163660
  H       -2.7297600     1.5577740     0.0156350
units angstrom
no_reorient  #important for SAPT in psi4, default
symmetry c1  #important for SAPT in psi4, default
}

set PROPERTIES_ORIGIN ["COM"]
properties('MP2/aug-cc-pvtz', properties = ['dipole'])
--------------------------------------------------------------------------

    Molecular point group: c1
  Charge       = 0
  Multiplicity = 1
  Basis Set: AUG-CC-PVTZ
    Blend: AUG-CC-PVTZ
  Basis Set: (AUG-CC-PVTZ AUX)
    Blend: AUG-CC-PVTZ-JKFIT

    Orbital Energies [Eh]
    ---------------------

    Doubly Occupied:

       1A    -20.573974     2A    -20.563863     3A    -11.355440
       4A    -11.350656     5A    -11.283189     6A    -11.278056
       7A    -11.258046     8A    -11.229101     9A     -1.395332
      10A     -1.387645    11A     -1.115651    12A     -1.073107
      13A     -0.957129    14A     -0.881711    15A     -0.800243
      16A     -0.756593    17A     -0.696260    18A     -0.686514
      19A     -0.647475    20A     -0.637410    21A     -0.628449
      22A     -0.569455    23A     -0.554507    24A     -0.544622
      25A     -0.535533    26A     -0.529110    27A     -0.500949
      28A     -0.451944    29A     -0.438308    30A     -0.404175

  @DF-RHF Final Energy:  -381.70096905472275

   => Energetics <=

    Nuclear Repulsion Energy =            331.1000977173588922
    One-Electron Energy =               -1175.4332362667084908
    Two-Electron Energy =                 462.6321694946267939
    Total Energy =                       -381.7009690547227478
  Basis Set: (AUG-CC-PVTZ AUX)
    Blend: AUG-CC-PVTZ-RI
    Molecular point group: c1

    Geometry (in Angstrom), charge = 0, multiplicity = 1:

       Center              X                  Y                   Z               Mass
    ------------   -----------------  -----------------  -----------------  -----------------
         O            1.185677621227    -1.327441153692    -0.011126510737    15.994914619570
         O           -3.787393378773    -0.181123153692    -0.030836510737    15.994914619570
         C            2.258037621227     0.826424846308     0.020666489263    12.000000000000
         C            3.586080621227     0.089556846308    -0.006249510737    12.000000000000
         C            1.072237621227    -0.091418253692     0.017300589263    12.000000000000
         C           -0.280920378773     0.539257846308     0.023959489263    12.000000000000
         C           -1.414811878773    -0.183548253692     0.001372189263    12.000000000000
         C           -2.732909378773     0.445849846308    -0.006785510737    12.000000000000
         H            2.176919621227     1.472310846308     0.905213489263     1.007825032230
         H            2.158537621227     1.504398846308    -0.839321510737     1.007825032230
         H            3.679909621227    -0.564142153692     0.862156489263     1.007825032230
         H            3.661372621227    -0.534584153692    -0.897864510737     1.007825032230
         H            4.417702621227     0.797822846308    -0.003207510737     1.007825032230
         H           -0.333560378773     1.628621846308     0.041359489263     1.007825032230
         H           -1.360877378773    -1.279840153692    -0.016417510737     1.007825032230
         H           -2.729674378773     1.555455846308     0.015583489263     1.007825032230

  Basis Set: AUG-CC-PVTZ
    Blend: AUG-CC-PVTZ
  Basis Set: (AUG-CC-PVTZ AUX)
    Blend: AUG-CC-PVTZ-JKFIT
	 Reference Energy          =    -381.7009690547227478 [Eh]
	 Singles Energy            =      -0.0000000000000000 [Eh]
	 Same-Spin Energy          =      -0.3779144043070614 [Eh]
	 Opposite-Spin Energy      =      -1.2247687919671790 [Eh]
	 Correlation Energy        =      -1.6026831962742403 [Eh]
	 Total Energy              =    -383.3036522509970041 [Eh]

	 ================> DF-SCS-MP2 Energies <==================
	-----------------------------------------------------------
	 SCS Same-Spin Scale       =       0.3333333333333333 [-]
	 SCS Opposite-Spin Scale   =       1.2000000000000000 [-]
	 SCS Same-Spin Energy      =      -0.1259714681023538 [Eh]
	 SCS Opposite-Spin Energy  =      -1.4697225503606148 [Eh]
	 SCS Correlation Energy    =      -1.5956940184629687 [Eh]
	 SCS Total Energy          =    -383.2966630731856981 [Eh]
	-----------------------------------------------------------

  Dipole Moment: [D]
     X:     2.8212      Y:     3.5543      Z:     0.0907     Total:     4.5387

*** Psi4 exiting successfully. Buy a developer a beer!
