                               Psi4 1.3.2 release

  ==> Input File <==

--------------------------------------------------------------------------
#psi4
#
memory 32 gb

molecule  {
0 1
  O        1.2069451    -1.3228634    -0.0108920
  O       -3.7874790    -0.1788050    -0.0307850
  C        2.2579520     0.8287430     0.0207180
  C        3.5859950     0.0918750    -0.0061980
  C        1.0665970    -0.1008810     0.0170560
  C       -0.2695888     0.5649894     0.0246322
  C       -1.4085440    -0.1910960     0.0012370
  C       -2.7329950     0.4481680    -0.0067340
  H        2.1768340     1.4746290     0.9052650
  H        2.1584520     1.5067170    -0.8392700
  H        3.6798240    -0.5618240     0.8622080
  H        3.6612870    -0.5322660    -0.8978130
  H        4.4176170     0.8001410    -0.0031560
  H       -0.3336460     1.6309400     0.0414110
  H       -1.3609630    -1.2775220    -0.0163660
  H       -2.7297600     1.5577740     0.0156350
units angstrom
no_reorient  #important for SAPT in psi4, default
symmetry c1  #important for SAPT in psi4, default
}

set PROPERTIES_ORIGIN ["COM"]
properties('MP2/aug-cc-pvtz', properties = ['dipole'])
--------------------------------------------------------------------------

    Molecular point group: c1
  Charge       = 0
  Multiplicity = 1
  Basis Set: AUG-CC-PVTZ
    Blend: AUG-CC-PVTZ
  Basis Set: (AUG-CC-PVTZ AUX)
    Blend: AUG-CC-PVTZ-JKFIT

    Orbital Energies [Eh]
    ---------------------

    Doubly Occupied:

       1A    -20.574825     2A    -20.563941     3A    -11.353925
       4A    -11.351985     5A    -11.284785     6A    -11.282901
       7A    -11.255061     8A    -11.226958     9A     -1.396169
      10A     -1.393847    11A     -1.112837    12A     -1.068460
      13A     -0.956119    14A     -0.878319    15A     -0.802349
      16A     -0.757676    17A     -0.697632    18A     -0.685214
      19A     -0.645158    20A     -0.636524    21A     -0.630308
      22A     -0.579991    23A     -0.554187    24A     -0.542026
      25A     -0.536237    26A     -0.527659    27A     -0.501157
      28A     -0.452044    29A     -0.435373    30A     -0.401699

  @DF-RHF Final Energy:  -381.70084266055949

   => Energetics <=

    Nuclear Repulsion Energy =            330.8670608638018393
    One-Electron Energy =               -1174.9650724412235832
    Two-Electron Energy =                 462.3971689168622561
    Total Energy =                       -381.7008426605594877
  Basis Set: (AUG-CC-PVTZ AUX)
    Blend: AUG-CC-PVTZ-RI
    Molecular point group: c1

    Geometry (in Angstrom), charge = 0, multiplicity = 1:

       Center              X                  Y                   Z               Mass
    ------------   -----------------  -----------------  -----------------  -----------------
         O            1.202674462166    -1.325693290112    -0.010984454690    15.994914619570
         O           -3.791749637834    -0.181634890112    -0.030877454690    15.994914619570
         C            2.253681362166     0.825913109888     0.020625545310    12.000000000000
         C            3.581724362166     0.089045109888    -0.006290454690    12.000000000000
         C            1.062326362166    -0.103710890112     0.016963545310    12.000000000000
         C           -0.273859437834     0.562159509888     0.024539745310    12.000000000000
         C           -1.412814637834    -0.193925890112     0.001144545310    12.000000000000
         C           -2.737265637834     0.445338109888    -0.006826454690    12.000000000000
         H            2.172563362166     1.471799109888     0.905172545310     1.007825032230
         H            2.154181362166     1.503887109888    -0.839362454690     1.007825032230
         H            3.675553362166    -0.564653890112     0.862115545310     1.007825032230
         H            3.657016362166    -0.535095890112    -0.897905454690     1.007825032230
         H            4.413346362166     0.797311109888    -0.003248454690     1.007825032230
         H           -0.337916637834     1.628110109888     0.041318545310     1.007825032230
         H           -1.365233637834    -1.280351890112    -0.016458454690     1.007825032230
         H           -2.734030637834     1.554944109888     0.015542545310     1.007825032230

  Basis Set: AUG-CC-PVTZ
    Blend: AUG-CC-PVTZ
  Basis Set: (AUG-CC-PVTZ AUX)
    Blend: AUG-CC-PVTZ-JKFIT
	 Reference Energy          =    -381.7008426605594877 [Eh]
	 Singles Energy            =      -0.0000000000000000 [Eh]
	 Same-Spin Energy          =      -0.3776962142873390 [Eh]
	 Opposite-Spin Energy      =      -1.2244522142187151 [Eh]
	 Correlation Energy        =      -1.6021484285060541 [Eh]
	 Total Energy              =    -383.3029910890655287 [Eh]

	 ================> DF-SCS-MP2 Energies <==================
	-----------------------------------------------------------
	 SCS Same-Spin Scale       =       0.3333333333333333 [-]
	 SCS Opposite-Spin Scale   =       1.2000000000000000 [-]
	 SCS Same-Spin Energy      =      -0.1258987380957796 [Eh]
	 SCS Opposite-Spin Energy  =      -1.4693426570624581 [Eh]
	 SCS Correlation Energy    =      -1.5952413951582378 [Eh]
	 SCS Total Energy          =    -383.2960840557176994 [Eh]
	-----------------------------------------------------------

  Dipole Moment: [D]
     X:     2.6468      Y:     3.5159      Z:     0.0899     Total:     4.4017

*** Psi4 exiting successfully. Buy a developer a beer!
