                               Psi4 1.3.2 release

  ==> Input File <==

--------------------------------------------------------------------------
#psi4
#
memory 32 gb

molecule  {
0 1
  O        1.1855920    -1.3251230    -0.0110750
  O       -3.7874790    -0.1788050    -0.0307850
  C        2.2579520     0.8287430     0.0207180
  C        3.5859950     0.0918750    -0.0061980
  C        1.0665970    -0.1008810     0.0170560
  C       -0.2810060     0.5415760     0.0240110
  C       -1.4085440    -0.1910960     0.0012370
  C       -2.7329950     0.4481680    -0.0067340
  H        2.1768340     1.4746290     0.9052650
  H        2.1584520     1.5067170    -0.8392700
  H        3.6798240    -0.5618240     0.8622080
  H        3.6612870    -0.5322660    -0.8978130
  H        4.4176170     0.8001410    -0.0031560
  H       -0.3336460     1.6309400     0.0414110
  H       -1.3522134    -1.4773043    -0.0196030
  H       -2.7297600     1.5577740     0.0156350
units angstrom
no_reorient  #important for SAPT in psi4, default
symmetry c1  #important for SAPT in psi4, default
}

set PROPERTIES_ORIGIN ["COM"]
properties('MP2/aug-cc-pvtz', properties = ['dipole'])
--------------------------------------------------------------------------

    Molecular point group: c1
  Charge       = 0
  Multiplicity = 1
  Basis Set: AUG-CC-PVTZ
    Blend: AUG-CC-PVTZ
  Basis Set: (AUG-CC-PVTZ AUX)
    Blend: AUG-CC-PVTZ-JKFIT

    Orbital Energies [Eh]
    ---------------------

    Doubly Occupied:

       1A    -20.574050     2A    -20.563417     3A    -11.353642
       4A    -11.352431     5A    -11.295538     6A    -11.282205
       7A    -11.256915     8A    -11.228136     9A     -1.395246
      10A     -1.393643    11A     -1.111425    12A     -1.069257
      13A     -0.953192    14A     -0.879439    15A     -0.787308
      16A     -0.749830    17A     -0.694187    18A     -0.685810
      19A     -0.645926    20A     -0.635000    21A     -0.625184
      22A     -0.554487    23A     -0.544135    24A     -0.540243
      25A     -0.536199    26A     -0.528651    27A     -0.501820
      28A     -0.450396    29A     -0.435990    30A     -0.404579

  @DF-RHF Final Energy:  -381.68028089773543

   => Energetics <=

    Nuclear Repulsion Energy =            330.3347129481176694
    One-Electron Energy =               -1173.9734279751523900
    Two-Electron Energy =                 461.9584341292993486
    Total Energy =                       -381.6802808977354289
  Basis Set: (AUG-CC-PVTZ AUX)
    Blend: AUG-CC-PVTZ-RI
    Molecular point group: c1

    Geometry (in Angstrom), charge = 0, multiplicity = 1:

       Center              X                  Y                   Z               Mass
    ------------   -----------------  -----------------  -----------------  -----------------
         O            1.185513411794    -1.323326051458    -0.011045692056    15.994914619570
         O           -3.787557588206    -0.177008051458    -0.030755692056    15.994914619570
         C            2.257873411794     0.830539948542     0.020747307944    12.000000000000
         C            3.585916411794     0.093671948542    -0.006168692056    12.000000000000
         C            1.066518411794    -0.099084051458     0.017085307944    12.000000000000
         C           -0.281084588206     0.543372948542     0.024040307944    12.000000000000
         C           -1.408622588206    -0.189299051458     0.001266307944    12.000000000000
         C           -2.733073588206     0.449964948542    -0.006704692056    12.000000000000
         H            2.176755411794     1.476425948542     0.905294307944     1.007825032230
         H            2.158373411794     1.508513948542    -0.839240692056     1.007825032230
         H            3.679745411794    -0.560027051458     0.862237307944     1.007825032230
         H            3.661208411794    -0.530469051458    -0.897783692056     1.007825032230
         H            4.417538411794     0.801937948542    -0.003126692056     1.007825032230
         H           -0.333724588206     1.632736948542     0.041440307944     1.007825032230
         H           -1.352291988206    -1.475507351458    -0.019573692056     1.007825032230
         H           -2.729838588206     1.559570948542     0.015664307944     1.007825032230

  Basis Set: AUG-CC-PVTZ
    Blend: AUG-CC-PVTZ
  Basis Set: (AUG-CC-PVTZ AUX)
    Blend: AUG-CC-PVTZ-JKFIT
	 Reference Energy          =    -381.6802808977354289 [Eh]
	 Singles Energy            =      -0.0000000000000000 [Eh]
	 Same-Spin Energy          =      -0.3782752998669788 [Eh]
	 Opposite-Spin Energy      =      -1.2261031286221129 [Eh]
	 Correlation Energy        =      -1.6043784284890918 [Eh]
	 Total Energy              =    -383.2846593262245278 [Eh]

	 ================> DF-SCS-MP2 Energies <==================
	-----------------------------------------------------------
	 SCS Same-Spin Scale       =       0.3333333333333333 [-]
	 SCS Opposite-Spin Scale   =       1.2000000000000000 [-]
	 SCS Same-Spin Energy      =      -0.1260917666223263 [Eh]
	 SCS Opposite-Spin Energy  =      -1.4713237543465354 [Eh]
	 SCS Correlation Energy    =      -1.5974155209688616 [Eh]
	 SCS Total Energy          =    -383.2776964187042950 [Eh]
	-----------------------------------------------------------

  Dipole Moment: [D]
     X:     2.7441      Y:     3.4832      Z:     0.0893     Total:     4.4352

*** Psi4 exiting successfully. Buy a developer a beer!
