                               Psi4 1.3.2 release

  ==> Input File <==

--------------------------------------------------------------------------
#psi4
#
memory 32 gb

molecule  {
0 1
  O        1.1855920    -1.3251230    -0.0110750
  O       -3.7874790    -0.1788050    -0.0307850
  C        2.2579520     0.8287430     0.0207180
  C        3.5859950     0.0918750    -0.0061980
  C        1.0622838    -0.0953038     0.0282001
  C       -0.2810060     0.5415760     0.0240110
  C       -1.4085440    -0.1910960     0.0012370
  C       -2.7329950     0.4481680    -0.0067340
  H        2.1686747     1.4702209     0.9076836
  H        2.1584520     1.5067170    -0.8392700
  H        3.6798240    -0.5618240     0.8622080
  H        3.6612870    -0.5322660    -0.8978130
  H        4.4176170     0.8001410    -0.0031560
  H       -0.3336460     1.6309400     0.0414110
  H       -1.3609630    -1.2775220    -0.0163660
  H       -2.7297600     1.5577740     0.0156350
units angstrom
no_reorient  #important for SAPT in psi4, default
symmetry c1  #important for SAPT in psi4, default
}

set PROPERTIES_ORIGIN ["COM"]
properties('MP2/aug-cc-pvtz', properties = ['dipole'])
--------------------------------------------------------------------------

    Molecular point group: c1
  Charge       = 0
  Multiplicity = 1
  Basis Set: AUG-CC-PVTZ
    Blend: AUG-CC-PVTZ
  Basis Set: (AUG-CC-PVTZ AUX)
    Blend: AUG-CC-PVTZ-JKFIT

    Orbital Energies [Eh]
    ---------------------

    Doubly Occupied:

       1A    -20.574578     2A    -20.563286     3A    -11.353957
       4A    -11.351796     5A    -11.282406     6A    -11.278727
       7A    -11.257183     8A    -11.228282     9A     -1.395792
      10A     -1.390072    11A     -1.115845    12A     -1.070259
      13A     -0.956099    14A     -0.879738    15A     -0.801857
      16A     -0.756302    17A     -0.696210    18A     -0.686058
      19A     -0.646086    20A     -0.636338    21A     -0.629471
      22A     -0.573580    23A     -0.554671    24A     -0.543904
      25A     -0.535794    26A     -0.528462    27A     -0.501297
      28A     -0.451762    29A     -0.436406    30A     -0.404750

  @DF-RHF Final Energy:  -381.70201810975232

   => Energetics <=

    Nuclear Repulsion Energy =            331.1141320057973303
    One-Electron Energy =               -1175.4703705022986924
    Two-Electron Energy =                 462.6542203867491025
    Total Energy =                       -381.7020181097523164
  Basis Set: (AUG-CC-PVTZ AUX)
    Blend: AUG-CC-PVTZ-RI
    Molecular point group: c1

    Geometry (in Angstrom), charge = 0, multiplicity = 1:

       Center              X                  Y                   Z               Mass
    ------------   -----------------  -----------------  -----------------  -----------------
         O            1.186127406627    -1.325680568987    -0.012290011843    15.994914619570
         O           -3.786943593373    -0.179362568987    -0.032000011843    15.994914619570
         C            2.258487406627     0.828185431013     0.019502988157    12.000000000000
         C            3.586530406627     0.091317431013    -0.007413011843    12.000000000000
         C            1.062819206627    -0.095861368987     0.026985088157    12.000000000000
         C           -0.280470593373     0.541018431013     0.022795988157    12.000000000000
         C           -1.408008593373    -0.191653568987     0.000021988157    12.000000000000
         C           -2.732459593373     0.447610431013    -0.007949011843    12.000000000000
         H            2.169210106627     1.469663331013     0.906468588157     1.007825032230
         H            2.158987406627     1.506159431013    -0.840485011843     1.007825032230
         H            3.680359406627    -0.562381568987     0.860992988157     1.007825032230
         H            3.661822406627    -0.532823568987    -0.899028011843     1.007825032230
         H            4.418152406627     0.799583431013    -0.004371011843     1.007825032230
         H           -0.333110593373     1.630382431013     0.040195988157     1.007825032230
         H           -1.360427593373    -1.278079568987    -0.017581011843     1.007825032230
         H           -2.729224593373     1.557216431013     0.014419988157     1.007825032230

  Basis Set: AUG-CC-PVTZ
    Blend: AUG-CC-PVTZ
  Basis Set: (AUG-CC-PVTZ AUX)
    Blend: AUG-CC-PVTZ-JKFIT
	 Reference Energy          =    -381.7020181097523164 [Eh]
	 Singles Energy            =      -0.0000000000000000 [Eh]
	 Same-Spin Energy          =      -0.3776361548862786 [Eh]
	 Opposite-Spin Energy      =      -1.2242804159530931 [Eh]
	 Correlation Energy        =      -1.6019165708393717 [Eh]
	 Total Energy              =    -383.3039346805916807 [Eh]

	 ================> DF-SCS-MP2 Energies <==================
	-----------------------------------------------------------
	 SCS Same-Spin Scale       =       0.3333333333333333 [-]
	 SCS Opposite-Spin Scale   =       1.2000000000000000 [-]
	 SCS Same-Spin Energy      =      -0.1258787182954262 [Eh]
	 SCS Opposite-Spin Energy  =      -1.4691364991437117 [Eh]
	 SCS Correlation Energy    =      -1.5950152174391379 [Eh]
	 SCS Total Energy          =    -383.2970333271914569 [Eh]
	-----------------------------------------------------------

  Dipole Moment: [D]
     X:     2.7180      Y:     3.5286      Z:     0.0961     Total:     4.4551

*** Psi4 exiting successfully. Buy a developer a beer!
