                               Psi4 1.4a3.dev225

  ==> Input File <==

--------------------------------------------------------------------------
#psi4
#
memory 32 gb

molecule  {
0 1
  O        1.0820120     1.3681640     0.0000000
  O       -3.8882340     0.1997640    -0.0000030
  C        2.1679760    -0.7815440    -0.0000070
  C        3.4943680    -0.0370920     0.0000040
  C        0.9697220     0.1420900     0.0000000
  C       -0.4210325    -0.5286851     0.0000041
  C       -1.5077040     0.2230700     0.0000000
  C       -2.8299410    -0.4231870     0.0000020
  H        2.0818540    -1.4423830    -0.8738950
  H        2.0818510    -1.4424050     0.8738640
  H        3.5776630     0.6025590    -0.8807220
  H        3.5776700     0.6025230     0.8807550
  H        4.3292850    -0.7422630    -0.0000140
  H       -0.4236580    -1.5964830     0.0000100
  H       -1.4638710     1.3098110    -0.0000060
  H       -2.8215620    -1.5330200     0.0000110
units angstrom
no_reorient  #important for SAPT in psi4, default
symmetry c1  #important for SAPT in psi4, default
}

set PROPERTIES_ORIGIN ["COM"]
properties('MP2/aug-cc-pvtz', properties = ['dipole'])
--------------------------------------------------------------------------

    Molecular point group: c1
  Charge       = 0
  Multiplicity = 1
  Basis Set: AUG-CC-PVTZ
    Blend: AUG-CC-PVTZ
  Basis Set: (AUG-CC-PVTZ AUX)
    Blend: AUG-CC-PVTZ-JKFIT

    Orbital Energies [Eh]
    ---------------------

    Doubly Occupied:

       1A    -20.571276     2A    -20.565517     3A    -11.357602
       4A    -11.349097     5A    -11.280355     6A    -11.272678
       7A    -11.258543     8A    -11.229421     9A     -1.393927
      10A     -1.392030    11A     -1.117272    12A     -1.070619
      13A     -0.947587    14A     -0.878141    15A     -0.801435
      16A     -0.754768    17A     -0.695964    18A     -0.686647
      19A     -0.646055    20A     -0.636280    21A     -0.627092
      22A     -0.579856    23A     -0.553348    24A     -0.544575
      25A     -0.535382    26A     -0.528589    27A     -0.502566
      28A     -0.450163    29A     -0.431160    30A     -0.409751

  @DF-RHF Final Energy:  -381.70176690027353

   => Energetics <=

    Nuclear Repulsion Energy =            330.5901501607430077
    One-Electron Energy =               -1174.4484451999530847
    Two-Electron Energy =                 462.1565281389366078
    Total Energy =                       -381.7017669002735261
  Basis Set: (AUG-CC-PVTZ AUX)
    Blend: AUG-CC-PVTZ-RI
    Molecular point group: c1

    Geometry (in Angstrom), charge = 0, multiplicity = 1:

       Center              X                  Y                   Z               Mass
    ------------   -----------------  -----------------  -----------------  -----------------
         O            1.183569703851     1.333003270569     0.000000069265    15.994914619570
         O           -3.786676296149     0.164603270569    -0.000002930735    15.994914619570
         C            2.269533703851    -0.816704729431    -0.000006930735    12.000000000000
         C            3.595925703851    -0.072252729431     0.000004069265    12.000000000000
         C            1.071279703851     0.106929270569     0.000000069265    12.000000000000
         C           -0.319474796149    -0.563845829431     0.000004169265    12.000000000000
         C           -1.406146296149     0.187909270569     0.000000069265    12.000000000000
         C           -2.728383296149    -0.458347729431     0.000002069265    12.000000000000
         H            2.183411703851    -1.477543729431    -0.873894930735     1.007825032230
         H            2.183408703851    -1.477565729431     0.873864069265     1.007825032230
         H            3.679220703851     0.567398270569    -0.880721930735     1.007825032230
         H            3.679227703851     0.567362270569     0.880755069265     1.007825032230
         H            4.430842703851    -0.777423729431    -0.000013930735     1.007825032230
         H           -0.322100296149    -1.631643729431     0.000010069265     1.007825032230
         H           -1.362313296149     1.274650270569    -0.000005930735     1.007825032230
         H           -2.720004296149    -1.568180729431     0.000011069265     1.007825032230

  Basis Set: AUG-CC-PVTZ
    Blend: AUG-CC-PVTZ
  Basis Set: (AUG-CC-PVTZ AUX)
    Blend: AUG-CC-PVTZ-JKFIT
	 Reference Energy          =    -381.7017669002735261 [Eh]
	 Singles Energy            =      -0.0000000000000000 [Eh]
	 Same-Spin Energy          =      -0.3768715546963176 [Eh]
	 Opposite-Spin Energy      =      -1.2229859370793705 [Eh]
	 Correlation Energy        =      -1.5998574917756883 [Eh]
	 Total Energy              =    -383.3016243920492343 [Eh]

	 ================> DF-SCS-MP2 Energies <==================
	-----------------------------------------------------------
	 SCS Same-Spin Scale       =       0.3333333333333333 [-]
	 SCS Opposite-Spin Scale   =       1.2000000000000000 [-]
	 SCS Same-Spin Energy      =      -0.1256238515654392 [Eh]
	 SCS Opposite-Spin Energy  =      -1.4675831244952446 [Eh]
	 SCS Correlation Energy    =      -1.5932069760606837 [Eh]
	 SCS Total Energy          =    -383.2949738763342111 [Eh]
	-----------------------------------------------------------

  Dipole Moment: [D]
     X:     2.8936      Y:    -3.5016      Z:     0.0000     Total:     4.5425

*** Psi4 exiting successfully. Buy a developer a beer!
