                               Psi4 1.3.2 release

  ==> Input File <==

--------------------------------------------------------------------------
#psi4
#
memory 32 gb

molecule  {
0 1
  O        1.1855920    -1.3251230    -0.0110750
  O       -3.7874790    -0.1788050    -0.0307850
  C        2.2579520     0.8287430     0.0207180
  C        3.5859950     0.0918750    -0.0061980
  C        1.0983752    -0.0294827     0.0182849
  C       -0.2810060     0.5415760     0.0240110
  C       -1.4085440    -0.1910960     0.0012370
  C       -2.7329950     0.4481680    -0.0067340
  H        2.1768340     1.4746290     0.9052650
  H        2.1584520     1.5067170    -0.8392700
  H        3.6798240    -0.5618240     0.8622080
  H        3.6612870    -0.5322660    -0.8978130
  H        4.4176170     0.8001410    -0.0031560
  H       -0.2765539     1.6321994     0.0415747
  H       -1.3609630    -1.2775220    -0.0163660
  H       -2.7297600     1.5577740     0.0156350
units angstrom
no_reorient  #important for SAPT in psi4, default
symmetry c1  #important for SAPT in psi4, default
}

set PROPERTIES_ORIGIN ["COM"]
properties('MP2/aug-cc-pvtz', properties = ['dipole'])
--------------------------------------------------------------------------

    Molecular point group: c1
  Charge       = 0
  Multiplicity = 1
  Basis Set: AUG-CC-PVTZ
    Blend: AUG-CC-PVTZ
  Basis Set: (AUG-CC-PVTZ AUX)
    Blend: AUG-CC-PVTZ-JKFIT

    Orbital Energies [Eh]
    ---------------------

    Doubly Occupied:

       1A    -20.574282     2A    -20.558252     3A    -11.358231
       4A    -11.351755     5A    -11.285350     6A    -11.280172
       7A    -11.260528     8A    -11.231874     9A     -1.395429
      10A     -1.351998    11A     -1.116145    12A     -1.084053
      13A     -0.961659    14A     -0.887174    15A     -0.803491
      16A     -0.753511    17A     -0.693242    18A     -0.689148
      19A     -0.653397    20A     -0.635050    21A     -0.621414
      22A     -0.567991    23A     -0.552139    24A     -0.546817
      25A     -0.532354    26A     -0.527197    27A     -0.489566
      28A     -0.450703    29A     -0.442200    30A     -0.400893

  @DF-RHF Final Energy:  -381.68534844262950

   => Energetics <=

    Nuclear Repulsion Energy =            330.7236695663063983
    One-Electron Energy =               -1174.7060119797874904
    Two-Electron Energy =                 462.2969939708515881
    Total Energy =                       -381.6853484426295040
  Basis Set: (AUG-CC-PVTZ AUX)
    Blend: AUG-CC-PVTZ-RI
    Molecular point group: c1

    Geometry (in Angstrom), charge = 0, multiplicity = 1:

       Center              X                  Y                   Z               Mass
    ------------   -----------------  -----------------  -----------------  -----------------
         O            1.181675394327    -1.332780504722    -0.011207884974    15.994914619570
         O           -3.791395605673    -0.186462504722    -0.030917884974    15.994914619570
         C            2.254035394327     0.821085495278     0.020585115026    12.000000000000
         C            3.582078394327     0.084217495278    -0.006330884974    12.000000000000
         C            1.094458594327    -0.037140204722     0.018152015026    12.000000000000
         C           -0.284922605673     0.533918495278     0.023878115026    12.000000000000
         C           -1.412460605673    -0.198753504722     0.001104115026    12.000000000000
         C           -2.736911605673     0.440510495278    -0.006866884974    12.000000000000
         H            2.172917394327     1.466971495278     0.905132115026     1.007825032230
         H            2.154535394327     1.499059495278    -0.839402884974     1.007825032230
         H            3.675907394327    -0.569481504722     0.862075115026     1.007825032230
         H            3.657370394327    -0.539923504722    -0.897945884974     1.007825032230
         H            4.413700394327     0.792483495278    -0.003288884974     1.007825032230
         H           -0.280470505673     1.624541895278     0.041441815026     1.007825032230
         H           -1.364879605673    -1.285179504722    -0.016498884974     1.007825032230
         H           -2.733676605673     1.550116495278     0.015502115026     1.007825032230

  Basis Set: AUG-CC-PVTZ
    Blend: AUG-CC-PVTZ
  Basis Set: (AUG-CC-PVTZ AUX)
    Blend: AUG-CC-PVTZ-JKFIT
	 Reference Energy          =    -381.6853484426295040 [Eh]
	 Singles Energy            =      -0.0000000000000000 [Eh]
	 Same-Spin Energy          =      -0.3798972365443102 [Eh]
	 Opposite-Spin Energy      =      -1.2288661431893280 [Eh]
	 Correlation Energy        =      -1.6087633797336380 [Eh]
	 Total Energy              =    -383.2941118223631634 [Eh]

	 ================> DF-SCS-MP2 Energies <==================
	-----------------------------------------------------------
	 SCS Same-Spin Scale       =       0.3333333333333333 [-]
	 SCS Opposite-Spin Scale   =       1.2000000000000000 [-]
	 SCS Same-Spin Energy      =      -0.1266324121814367 [Eh]
	 SCS Opposite-Spin Energy  =      -1.4746393718271935 [Eh]
	 SCS Correlation Energy    =      -1.6012717840086301 [Eh]
	 SCS Total Energy          =    -383.2866202266381492 [Eh]
	-----------------------------------------------------------

  Dipole Moment: [D]
     X:     2.9976      Y:     3.7551      Z:     0.0922     Total:     4.8057

*** Psi4 exiting successfully. Buy a developer a beer!
