                               Psi4 1.4a3.dev225

  ==> Input File <==

--------------------------------------------------------------------------
#psi4
#
memory 32 gb

molecule  {
0 1
  O        1.0820120     1.3681640     0.0000000
  O       -3.8882340     0.1997640    -0.0000030
  C        2.1679760    -0.7815440    -0.0000070
  C        3.5118087    -0.0273032     0.0000041
  C        0.9697220     0.1420900     0.0000000
  C       -0.3759970    -0.5069640     0.0000040
  C       -1.5077040     0.2230700     0.0000000
  C       -2.8299410    -0.4231870     0.0000020
  H        2.0818540    -1.4423830    -0.8738950
  H        2.0818510    -1.4424050     0.8738640
  H        3.5776630     0.6025590    -0.8807220
  H        3.5776700     0.6025230     0.8807550
  H        4.3292850    -0.7422630    -0.0000140
  H       -0.4236580    -1.5964830     0.0000100
  H       -1.4638710     1.3098110    -0.0000060
  H       -2.8215620    -1.5330200     0.0000110
units angstrom
no_reorient  #important for SAPT in psi4, default
symmetry c1  #important for SAPT in psi4, default
}

set PROPERTIES_ORIGIN ["COM"]
properties('MP2/aug-cc-pvtz', properties = ['dipole'])
--------------------------------------------------------------------------

    Molecular point group: c1
  Charge       = 0
  Multiplicity = 1
  Basis Set: AUG-CC-PVTZ
    Blend: AUG-CC-PVTZ
  Basis Set: (AUG-CC-PVTZ AUX)
    Blend: AUG-CC-PVTZ-JKFIT

    Orbital Energies [Eh]
    ---------------------

    Doubly Occupied:

       1A    -20.574030     2A    -20.563920     3A    -11.354261
       4A    -11.351634     5A    -11.282629     6A    -11.278416
       7A    -11.258023     8A    -11.228278     9A     -1.394897
      10A     -1.393371    11A     -1.114065    12A     -1.066687
      13A     -0.954512    14A     -0.880300    15A     -0.801357
      16A     -0.755857    17A     -0.695787    18A     -0.685215
      19A     -0.645154    20A     -0.636564    21A     -0.629297
      22A     -0.573935    23A     -0.554910    24A     -0.543697
      25A     -0.537798    26A     -0.525840    27A     -0.504108
      28A     -0.451532    29A     -0.435623    30A     -0.404301

  @DF-RHF Final Energy:  -381.70249011411602

   => Energetics <=

    Nuclear Repulsion Energy =            330.5787416546343138
    One-Electron Energy =               -1174.4104693624656193
    Two-Electron Energy =                 462.1292375937152883
    Total Energy =                       -381.7024901141160171
  Basis Set: (AUG-CC-PVTZ AUX)
    Blend: AUG-CC-PVTZ-RI
    Molecular point group: c1

    Geometry (in Angstrom), charge = 0, multiplicity = 1:

       Center              X                  Y                   Z               Mass
    ------------   -----------------  -----------------  -----------------  -----------------
         O            1.176878957355     1.329628789519     0.000000069265    15.994914619570
         O           -3.793367042645     0.161228789519    -0.000002930735    15.994914619570
         C            2.262842957355    -0.820079210481    -0.000006930735    12.000000000000
         C            3.606675657355    -0.065838410481     0.000004169265    12.000000000000
         C            1.064588957355     0.103554789519     0.000000069265    12.000000000000
         C           -0.281130042645    -0.545499210481     0.000004069265    12.000000000000
         C           -1.412837042645     0.184534789519     0.000000069265    12.000000000000
         C           -2.735074042645    -0.461722210481     0.000002069265    12.000000000000
         H            2.176720957355    -1.480918210481    -0.873894930735     1.007825032230
         H            2.176717957355    -1.480940210481     0.873864069265     1.007825032230
         H            3.672529957355     0.564023789519    -0.880721930735     1.007825032230
         H            3.672536957355     0.563987789519     0.880755069265     1.007825032230
         H            4.424151957355    -0.780798210481    -0.000013930735     1.007825032230
         H           -0.328791042645    -1.635018210481     0.000010069265     1.007825032230
         H           -1.369004042645     1.271275789519    -0.000005930735     1.007825032230
         H           -2.726695042645    -1.571555210481     0.000011069265     1.007825032230

  Basis Set: AUG-CC-PVTZ
    Blend: AUG-CC-PVTZ
  Basis Set: (AUG-CC-PVTZ AUX)
    Blend: AUG-CC-PVTZ-JKFIT
	 Reference Energy          =    -381.7024901141160171 [Eh]
	 Singles Energy            =      -0.0000000000000000 [Eh]
	 Same-Spin Energy          =      -0.3773014246931782 [Eh]
	 Opposite-Spin Energy      =      -1.2238929233419822 [Eh]
	 Correlation Energy        =      -1.6011943480351603 [Eh]
	 Total Energy              =    -383.3036844621511818 [Eh]

	 ================> DF-SCS-MP2 Energies <==================
	-----------------------------------------------------------
	 SCS Same-Spin Scale       =       0.3333333333333333 [-]
	 SCS Opposite-Spin Scale   =       1.2000000000000000 [-]
	 SCS Same-Spin Energy      =      -0.1257671415643927 [Eh]
	 SCS Opposite-Spin Energy  =      -1.4686715080103785 [Eh]
	 SCS Correlation Energy    =      -1.5944386495747711 [Eh]
	 SCS Total Energy          =    -383.2969287636908007 [Eh]
	-----------------------------------------------------------

  Dipole Moment: [D]
     X:     2.7740      Y:    -3.5037      Z:     0.0000     Total:     4.4689

*** Psi4 exiting successfully. Buy a developer a beer!
