                               Psi4 1.3.2 release

  ==> Input File <==

--------------------------------------------------------------------------
#psi4
#
memory 32 gb

molecule  {
0 1
  O        1.1855920    -1.3251230    -0.0110750
  O       -3.8087289    -0.1416226    -0.0302670
  C        2.2579520     0.8287430     0.0207180
  C        3.5859950     0.0918750    -0.0061980
  C        1.0665970    -0.1008810     0.0170560
  C       -0.2810060     0.5415760     0.0240110
  C       -1.4085440    -0.1910960     0.0012370
  C       -2.7329950     0.4481680    -0.0067340
  H        2.1768340     1.4746290     0.9052650
  H        2.1584520     1.5067170    -0.8392700
  H        3.6798240    -0.5618240     0.8622080
  H        3.6612870    -0.5322660    -0.8978130
  H        4.4176170     0.8001410    -0.0031560
  H       -0.3336460     1.6309400     0.0414110
  H       -1.3609630    -1.2775220    -0.0163660
  H       -2.7684923     1.5572194     0.0152039
units angstrom
no_reorient  #important for SAPT in psi4, default
symmetry c1  #important for SAPT in psi4, default
}

set PROPERTIES_ORIGIN ["COM"]
properties('MP2/aug-cc-pvtz', properties = ['dipole'])
--------------------------------------------------------------------------

    Molecular point group: c1
  Charge       = 0
  Multiplicity = 1
  Basis Set: AUG-CC-PVTZ
    Blend: AUG-CC-PVTZ
  Basis Set: (AUG-CC-PVTZ AUX)
    Blend: AUG-CC-PVTZ-JKFIT

    Orbital Energies [Eh]
    ---------------------

    Doubly Occupied:

       1A    -20.572660     2A    -20.564888     3A    -11.354680
       4A    -11.350254     5A    -11.283656     6A    -11.279893
       7A    -11.257535     8A    -11.228654     9A     -1.395625
      10A     -1.393997    11A     -1.115759    12A     -1.070875
      13A     -0.955157    14A     -0.879106    15A     -0.800640
      16A     -0.756949    17A     -0.698097    18A     -0.685913
      19A     -0.646600    20A     -0.637875    21A     -0.628737
      22A     -0.575009    23A     -0.554443    24A     -0.544326
      25A     -0.536439    26A     -0.529270    27A     -0.502561
      28A     -0.450121    29A     -0.436401    30A     -0.405737

  @DF-RHF Final Energy:  -381.70246275997482

   => Energetics <=

    Nuclear Repulsion Energy =            330.8928248805557359
    One-Electron Energy =               -1175.0068622485161995
    Two-Electron Energy =                 462.4115746079856422
    Total Energy =                       -381.7024627599748214
  Basis Set: (AUG-CC-PVTZ AUX)
    Blend: AUG-CC-PVTZ-RI
    Molecular point group: c1

    Geometry (in Angstrom), charge = 0, multiplicity = 1:

       Center              X                  Y                   Z               Mass
    ------------   -----------------  -----------------  -----------------  -----------------
         O            1.188973789988    -1.330425549257    -0.011144870825    15.994914619570
         O           -3.805347110012    -0.146925149257    -0.030336870825    15.994914619570
         C            2.261333789988     0.823440450743     0.020648129175    12.000000000000
         C            3.589376789988     0.086572450743    -0.006267870825    12.000000000000
         C            1.069978789988    -0.106183549257     0.016986129175    12.000000000000
         C           -0.277624210012     0.536273450743     0.023941129175    12.000000000000
         C           -1.405162210012    -0.196398549257     0.001167129175    12.000000000000
         C           -2.729613210012     0.442865450743    -0.006803870825    12.000000000000
         H            2.180215789988     1.469326450743     0.905195129175     1.007825032230
         H            2.161833789988     1.501414450743    -0.839339870825     1.007825032230
         H            3.683205789988    -0.567126549257     0.862138129175     1.007825032230
         H            3.664668789988    -0.537568549257    -0.897882870825     1.007825032230
         H            4.420998789988     0.794838450743    -0.003225870825     1.007825032230
         H           -0.330264210012     1.625637450743     0.041341129175     1.007825032230
         H           -1.357581210012    -1.282824549257    -0.016435870825     1.007825032230
         H           -2.765110510012     1.551916850743     0.015134029175     1.007825032230

  Basis Set: AUG-CC-PVTZ
    Blend: AUG-CC-PVTZ
  Basis Set: (AUG-CC-PVTZ AUX)
    Blend: AUG-CC-PVTZ-JKFIT
	 Reference Energy          =    -381.7024627599748214 [Eh]
	 Singles Energy            =      -0.0000000000000000 [Eh]
	 Same-Spin Energy          =      -0.3773561662777462 [Eh]
	 Opposite-Spin Energy      =      -1.2237996679864618 [Eh]
	 Correlation Energy        =      -1.6011558342642078 [Eh]
	 Total Energy              =    -383.3036185942390262 [Eh]

	 ================> DF-SCS-MP2 Energies <==================
	-----------------------------------------------------------
	 SCS Same-Spin Scale       =       0.3333333333333333 [-]
	 SCS Opposite-Spin Scale   =       1.2000000000000000 [-]
	 SCS Same-Spin Energy      =      -0.1257853887592487 [Eh]
	 SCS Opposite-Spin Energy  =      -1.4685596015837541 [Eh]
	 SCS Correlation Energy    =      -1.5943449903430027 [Eh]
	 SCS Total Energy          =    -383.2968077503178392 [Eh]
	-----------------------------------------------------------

  Dipole Moment: [D]
     X:     2.8248      Y:     3.4475      Z:     0.0895     Total:     4.4578

*** Psi4 exiting successfully. Buy a developer a beer!
