                               Psi4 1.3.2 release

  ==> Input File <==

--------------------------------------------------------------------------
#psi4
#
memory 32 gb

molecule  {
0 1
  O        1.1855920    -1.3251230    -0.0110750
  O       -3.7874790    -0.1788050    -0.0307850
  C        2.2579520     0.8287430     0.0207180
  C        3.5859950     0.0918750    -0.0061980
  C        1.0943696    -0.1328432    -0.0497731
  C       -0.2810060     0.5415760     0.0240110
  C       -1.4085440    -0.1910960     0.0012370
  C       -2.7329950     0.4481680    -0.0067340
  H        2.2258976     1.5000332     0.8893458
  H        2.1584520     1.5067170    -0.8392700
  H        3.6798240    -0.5618240     0.8622080
  H        3.6612870    -0.5322660    -0.8978130
  H        4.4176170     0.8001410    -0.0031560
  H       -0.3336460     1.6309400     0.0414110
  H       -1.3609630    -1.2775220    -0.0163660
  H       -2.7297600     1.5577740     0.0156350
units angstrom
no_reorient  #important for SAPT in psi4, default
symmetry c1  #important for SAPT in psi4, default
}

set PROPERTIES_ORIGIN ["COM"]
properties('MP2/aug-cc-pvtz', properties = ['dipole'])
--------------------------------------------------------------------------

    Molecular point group: c1
  Charge       = 0
  Multiplicity = 1
  Basis Set: AUG-CC-PVTZ
    Blend: AUG-CC-PVTZ
  Basis Set: (AUG-CC-PVTZ AUX)
    Blend: AUG-CC-PVTZ-JKFIT

    Orbital Energies [Eh]
    ---------------------

    Doubly Occupied:

       1A    -20.570575     2A    -20.569275     3A    -11.354709
       4A    -11.348578     5A    -11.280999     6A    -11.272942
       7A    -11.256615     8A    -11.228354     9A     -1.420052
      10A     -1.392181    11A     -1.109105    12A     -1.071291
      13A     -0.947204    14A     -0.876126    15A     -0.797659
      16A     -0.757122    17A     -0.699857    18A     -0.683964
      19A     -0.649010    20A     -0.643531    21A     -0.629481
      22A     -0.573496    23A     -0.557192    24A     -0.545033
      25A     -0.539988    26A     -0.530376    27A     -0.505155
      28A     -0.450306    29A     -0.431069    30A     -0.403296

  @DF-RHF Final Energy:  -381.70192570170832

   => Energetics <=

    Nuclear Repulsion Energy =            331.2185633748537725
    One-Electron Energy =               -1175.6518945922621242
    Two-Electron Energy =                 462.7314055156999757
    Total Energy =                       -381.7019257017083191
  Basis Set: (AUG-CC-PVTZ AUX)
    Blend: AUG-CC-PVTZ-RI
    Molecular point group: c1

    Geometry (in Angstrom), charge = 0, multiplicity = 1:

       Center              X                  Y                   Z               Mass
    ------------   -----------------  -----------------  -----------------  -----------------
         O            1.182176575101    -1.321928510958    -0.003774715047    15.994914619570
         O           -3.790894424899    -0.175610510958    -0.023484715047    15.994914619570
         C            2.254536575101     0.831937489042     0.028018284953    12.000000000000
         C            3.582579575101     0.095069489042     0.001102284953    12.000000000000
         C            1.090954175101    -0.129648710958    -0.042472815047    12.000000000000
         C           -0.284421424899     0.544770489042     0.031311284953    12.000000000000
         C           -1.411959424899    -0.187901510958     0.008537284953    12.000000000000
         C           -2.736410424899     0.451362489042     0.000566284953    12.000000000000
         H            2.222482175101     1.503227689042     0.896646084953     1.007825032230
         H            2.155036575101     1.509911489042    -0.831969715047     1.007825032230
         H            3.676408575101    -0.558629510958     0.869508284953     1.007825032230
         H            3.657871575101    -0.529071510958    -0.890512715047     1.007825032230
         H            4.414201575101     0.803335489042     0.004144284953     1.007825032230
         H           -0.337061424899     1.634134489042     0.048711284953     1.007825032230
         H           -1.364378424899    -1.274327510958    -0.009065715047     1.007825032230
         H           -2.733175424899     1.560968489042     0.022935284953     1.007825032230

  Basis Set: AUG-CC-PVTZ
    Blend: AUG-CC-PVTZ
  Basis Set: (AUG-CC-PVTZ AUX)
    Blend: AUG-CC-PVTZ-JKFIT
	 Reference Energy          =    -381.7019257017083191 [Eh]
	 Singles Energy            =      -0.0000000000000000 [Eh]
	 Same-Spin Energy          =      -0.3764479757107028 [Eh]
	 Opposite-Spin Energy      =      -1.2218750381007504 [Eh]
	 Correlation Energy        =      -1.5983230138114530 [Eh]
	 Total Energy              =    -383.3002487155197855 [Eh]

	 ================> DF-SCS-MP2 Energies <==================
	-----------------------------------------------------------
	 SCS Same-Spin Scale       =       0.3333333333333333 [-]
	 SCS Opposite-Spin Scale   =       1.2000000000000000 [-]
	 SCS Same-Spin Energy      =      -0.1254826585702342 [Eh]
	 SCS Opposite-Spin Energy  =      -1.4662500457209005 [Eh]
	 SCS Correlation Energy    =      -1.5917327042911347 [Eh]
	 SCS Total Energy          =    -383.2936584059994516 [Eh]
	-----------------------------------------------------------

  Dipole Moment: [D]
     X:     2.9683      Y:     3.4100      Z:     0.0462     Total:     4.5212

*** Psi4 exiting successfully. Buy a developer a beer!
