                               Psi4 1.3.2 release

  ==> Input File <==

--------------------------------------------------------------------------
#psi4
#
memory 32 gb

molecule  {
0 1
  O        1.1855920    -1.3251230    -0.0110750
  O       -3.7874790    -0.1788050    -0.0307850
  C        2.2579520     0.8287430     0.0207180
  C        3.5859950     0.0918750    -0.0061980
  C        1.0609390    -0.1126147     0.0168529
  C       -0.2810060     0.5415760     0.0240110
  C       -1.4085440    -0.1910960     0.0012370
  C       -2.7329950     0.4481680    -0.0067340
  H        2.1768340     1.4746290     0.9052650
  H        2.1584520     1.5067170    -0.8392700
  H        3.6798240    -0.5618240     0.8622080
  H        3.6612870    -0.5322660    -0.8978130
  H        4.4176170     0.8001410    -0.0031560
  H       -0.3431516     1.6304396     0.0413791
  H       -1.3609630    -1.2775220    -0.0163660
  H       -2.7297600     1.5577740     0.0156350
units angstrom
no_reorient  #important for SAPT in psi4, default
symmetry c1  #important for SAPT in psi4, default
}

set PROPERTIES_ORIGIN ["COM"]
properties('MP2/aug-cc-pvtz', properties = ['dipole'])
--------------------------------------------------------------------------

    Molecular point group: c1
  Charge       = 0
  Multiplicity = 1
  Basis Set: AUG-CC-PVTZ
    Blend: AUG-CC-PVTZ
  Basis Set: (AUG-CC-PVTZ AUX)
    Blend: AUG-CC-PVTZ-JKFIT

    Orbital Energies [Eh]
    ---------------------

    Doubly Occupied:

       1A    -20.574020     2A    -20.564965     3A    -11.353228
       4A    -11.351317     5A    -11.281779     6A    -11.277612
       7A    -11.256265     8A    -11.227651     9A     -1.402117
      10A     -1.395174    11A     -1.114941    12A     -1.068044
      13A     -0.953761    14A     -0.877879    15A     -0.800948
      16A     -0.756865    17A     -0.697375    18A     -0.685705
      19A     -0.645084    20A     -0.638200    21A     -0.630962
      22A     -0.574562    23A     -0.555736    24A     -0.543612
      25A     -0.537955    26A     -0.528742    27A     -0.503124
      28A     -0.451610    29A     -0.434059    30A     -0.405270

  @DF-RHF Final Energy:  -381.70402079853676

   => Energetics <=

    Nuclear Repulsion Energy =            331.2182009547048551
    One-Electron Energy =               -1175.6673164906653710
    Two-Electron Energy =                 462.7450947374238126
    Total Energy =                       -381.7040207985367601
  Basis Set: (AUG-CC-PVTZ AUX)
    Blend: AUG-CC-PVTZ-RI
    Molecular point group: c1

    Geometry (in Angstrom), charge = 0, multiplicity = 1:

       Center              X                  Y                   Z               Mass
    ------------   -----------------  -----------------  -----------------  -----------------
         O            1.186283533852    -1.323861844279    -0.011052768922    15.994914619570
         O           -3.786787466148    -0.177543844279    -0.030762768922    15.994914619570
         C            2.258643533852     0.830004155721     0.020740231078    12.000000000000
         C            3.586686533852     0.093136155721    -0.006175768922    12.000000000000
         C            1.061630533852    -0.111353544279     0.016875131078    12.000000000000
         C           -0.280314466148     0.542837155721     0.024033231078    12.000000000000
         C           -1.407852466148    -0.189834844279     0.001259231078    12.000000000000
         C           -2.732303466148     0.449429155721    -0.006711768922    12.000000000000
         H            2.177525533852     1.475890155721     0.905287231078     1.007825032230
         H            2.159143533852     1.507978155721    -0.839247768922     1.007825032230
         H            3.680515533852    -0.560562844279     0.862230231078     1.007825032230
         H            3.661978533852    -0.531004844279    -0.897790768922     1.007825032230
         H            4.418308533852     0.801402155721    -0.003133768922     1.007825032230
         H           -0.342460066148     1.631700755721     0.041401331078     1.007825032230
         H           -1.360271466148    -1.276260844279    -0.016343768922     1.007825032230
         H           -2.729068466148     1.559035155721     0.015657231078     1.007825032230

  Basis Set: AUG-CC-PVTZ
    Blend: AUG-CC-PVTZ
  Basis Set: (AUG-CC-PVTZ AUX)
    Blend: AUG-CC-PVTZ-JKFIT
	 Reference Energy          =    -381.7040207985367601 [Eh]
	 Singles Energy            =      -0.0000000000000000 [Eh]
	 Same-Spin Energy          =      -0.3770801812434726 [Eh]
	 Opposite-Spin Energy      =      -1.2231221938866015 [Eh]
	 Correlation Energy        =      -1.6002023751300740 [Eh]
	 Total Energy              =    -383.3042231736668555 [Eh]

	 ================> DF-SCS-MP2 Energies <==================
	-----------------------------------------------------------
	 SCS Same-Spin Scale       =       0.3333333333333333 [-]
	 SCS Opposite-Spin Scale   =       1.2000000000000000 [-]
	 SCS Same-Spin Energy      =      -0.1256933937478242 [Eh]
	 SCS Opposite-Spin Energy  =      -1.4677466326639217 [Eh]
	 SCS Correlation Energy    =      -1.5934400264117459 [Eh]
	 SCS Total Energy          =    -383.2974608249485300 [Eh]
	-----------------------------------------------------------

  Dipole Moment: [D]
     X:     2.7058      Y:     3.4673      Z:     0.0896     Total:     4.3990

*** Psi4 exiting successfully. Buy a developer a beer!
