                               Psi4 1.4a3.dev225

  ==> Input File <==

--------------------------------------------------------------------------
#psi4
#
memory 32 gb

molecule  {
0 1
  O        1.0820120     1.3681640     0.0000000
  O       -3.8882340     0.1997640    -0.0000030
  C        2.1679760    -0.7815440    -0.0000070
  C        3.4943680    -0.0370920     0.0000040
  C        0.9697220     0.1420900     0.0000000
  C       -0.3759970    -0.5069640     0.0000040
  C       -1.5245106     0.2339115    -0.0000001
  C       -2.8299410    -0.4231870     0.0000020
  H        2.0818540    -1.4423830    -0.8738950
  H        2.0818510    -1.4424050     0.8738640
  H        3.5776630     0.6025590    -0.8807220
  H        3.5776700     0.6025230     0.8807550
  H        4.3292850    -0.7422630    -0.0000140
  H       -0.4236580    -1.5964830     0.0000100
  H       -1.4638710     1.3098110    -0.0000060
  H       -2.8215620    -1.5330200     0.0000110
units angstrom
no_reorient  #important for SAPT in psi4, default
symmetry c1  #important for SAPT in psi4, default
}

set PROPERTIES_ORIGIN ["COM"]
properties('MP2/aug-cc-pvtz', properties = ['dipole'])
--------------------------------------------------------------------------

    Molecular point group: c1
  Charge       = 0
  Multiplicity = 1
  Basis Set: AUG-CC-PVTZ
    Blend: AUG-CC-PVTZ
  Basis Set: (AUG-CC-PVTZ AUX)
    Blend: AUG-CC-PVTZ-JKFIT

    Orbital Energies [Eh]
    ---------------------

    Doubly Occupied:

       1A    -20.573024     2A    -20.564362     3A    -11.354597
       4A    -11.350607     5A    -11.285901     6A    -11.280111
       7A    -11.257647     8A    -11.228860     9A     -1.394906
      10A     -1.393589    11A     -1.111306    12A     -1.069511
      13A     -0.955967    14A     -0.878890    15A     -0.802901
      16A     -0.755589    17A     -0.696418    18A     -0.684770
      19A     -0.646030    20A     -0.637824    21A     -0.628368
      22A     -0.576240    23A     -0.554101    24A     -0.543542
      25A     -0.536372    26A     -0.528661    27A     -0.502291
      28A     -0.451928    29A     -0.436354    30A     -0.400153

  @DF-RHF Final Energy:  -381.70108358139913

   => Energetics <=

    Nuclear Repulsion Energy =            330.6868077614962544
    One-Electron Energy =               -1174.6141429806266387
    Two-Electron Energy =                 462.2262516377311954
    Total Energy =                       -381.7010835813991321
  Basis Set: (AUG-CC-PVTZ AUX)
    Blend: AUG-CC-PVTZ-RI
    Molecular point group: c1

    Geometry (in Angstrom), charge = 0, multiplicity = 1:

       Center              X                  Y                   Z               Mass
    ------------   -----------------  -----------------  -----------------  -----------------
         O            1.180546594030     1.329516053007     0.000000090683    15.994914619570
         O           -3.789699405970     0.161116053007    -0.000002909317    15.994914619570
         C            2.266510594030    -0.820191946993    -0.000006909317    12.000000000000
         C            3.592902594030    -0.075739946993     0.000004090683    12.000000000000
         C            1.068256594030     0.103442053007     0.000000090683    12.000000000000
         C           -0.277462405970    -0.545611946993     0.000004090683    12.000000000000
         C           -1.425976005970     0.195263553007    -0.000000009317    12.000000000000
         C           -2.731406405970    -0.461834946993     0.000002090683    12.000000000000
         H            2.180388594030    -1.481030946993    -0.873894909317     1.007825032230
         H            2.180385594030    -1.481052946993     0.873864090683     1.007825032230
         H            3.676197594030     0.563911053007    -0.880721909317     1.007825032230
         H            3.676204594030     0.563875053007     0.880755090683     1.007825032230
         H            4.427819594030    -0.780910946993    -0.000013909317     1.007825032230
         H           -0.325123405970    -1.635130946993     0.000010090683     1.007825032230
         H           -1.365336405970     1.271163053007    -0.000005909317     1.007825032230
         H           -2.723027405970    -1.571667946993     0.000011090683     1.007825032230

  Basis Set: AUG-CC-PVTZ
    Blend: AUG-CC-PVTZ
  Basis Set: (AUG-CC-PVTZ AUX)
    Blend: AUG-CC-PVTZ-JKFIT
	 Reference Energy          =    -381.7010835813991321 [Eh]
	 Singles Energy            =      -0.0000000000000000 [Eh]
	 Same-Spin Energy          =      -0.3776988501146826 [Eh]
	 Opposite-Spin Energy      =      -1.2245680412165674 [Eh]
	 Correlation Energy        =      -1.6022668913312499 [Eh]
	 Total Energy              =    -383.3033504727303580 [Eh]

	 ================> DF-SCS-MP2 Energies <==================
	-----------------------------------------------------------
	 SCS Same-Spin Scale       =       0.3333333333333333 [-]
	 SCS Opposite-Spin Scale   =       1.2000000000000000 [-]
	 SCS Same-Spin Energy      =      -0.1258996167048942 [Eh]
	 SCS Opposite-Spin Energy  =      -1.4694816494598808 [Eh]
	 SCS Correlation Energy    =      -1.5953812661647750 [Eh]
	 SCS Total Energy          =    -383.2964648475639251 [Eh]
	-----------------------------------------------------------

  Dipole Moment: [D]
     X:     2.7987      Y:    -3.5023      Z:     0.0000     Total:     4.4832

*** Psi4 exiting successfully. Buy a developer a beer!
