                               Psi4 1.3.2 release

  ==> Input File <==

--------------------------------------------------------------------------
#psi4
#
memory 32 gb

molecule  {
0 1
  O        1.1855920    -1.3251230    -0.0110750
  O       -3.7874790    -0.1788050    -0.0307850
  C        2.2579520     0.8287430     0.0207180
  C        3.5859950     0.0918750    -0.0061980
  C        1.0665970    -0.1008810     0.0170560
  C       -0.3072688     0.5804838     0.0241814
  C       -1.4085440    -0.1910960     0.0012370
  C       -2.7098850     0.4939976    -0.0058814
  H        2.1768340     1.4746290     0.9052650
  H        2.1584520     1.5067170    -0.8392700
  H        3.6798240    -0.5618240     0.8622080
  H        3.6612870    -0.5322660    -0.8978130
  H        4.4176170     0.8001410    -0.0031560
  H       -0.3336460     1.6309400     0.0414110
  H       -1.3609630    -1.2775220    -0.0163660
  H       -2.7297600     1.5577740     0.0156350
units angstrom
no_reorient  #important for SAPT in psi4, default
symmetry c1  #important for SAPT in psi4, default
}

set PROPERTIES_ORIGIN ["COM"]
properties('MP2/aug-cc-pvtz', properties = ['dipole'])
--------------------------------------------------------------------------

    Molecular point group: c1
  Charge       = 0
  Multiplicity = 1
  Basis Set: AUG-CC-PVTZ
    Blend: AUG-CC-PVTZ
  Basis Set: (AUG-CC-PVTZ AUX)
    Blend: AUG-CC-PVTZ-JKFIT

    Orbital Energies [Eh]
    ---------------------

    Doubly Occupied:

       1A    -20.570443     2A    -20.566029     3A    -11.357217
       4A    -11.351408     5A    -11.282375     6A    -11.279270
       7A    -11.257554     8A    -11.228711     9A     -1.394807
      10A     -1.365674    11A     -1.116182    12A     -1.071010
      13A     -0.951535    14A     -0.880733    15A     -0.811816
      16A     -0.756394    17A     -0.699981    18A     -0.682687
      19A     -0.646329    20A     -0.636375    21A     -0.615770
      22A     -0.586047    23A     -0.548036    24A     -0.544034
      25A     -0.528995    26A     -0.526388    27A     -0.502118
      28A     -0.454765    29A     -0.432859    30A     -0.403294

  @DF-RHF Final Energy:  -381.69221946264264

   => Energetics <=

    Nuclear Repulsion Energy =            330.2568523533751659
    One-Electron Energy =               -1173.8004743803792280
    Two-Electron Energy =                 461.8514025643614218
    Total Energy =                       -381.6922194626426403
  Basis Set: (AUG-CC-PVTZ AUX)
    Blend: AUG-CC-PVTZ-RI
    Molecular point group: c1

    Geometry (in Angstrom), charge = 0, multiplicity = 1:

       Center              X                  Y                   Z               Mass
    ------------   -----------------  -----------------  -----------------  -----------------
         O            1.185929749629    -1.334197697958    -0.011184362227    15.994914619570
         O           -3.787141250371    -0.187879697958    -0.030894362227    15.994914619570
         C            2.258289749629     0.819668302042     0.020608637773    12.000000000000
         C            3.586332749629     0.082800302042    -0.006307362227    12.000000000000
         C            1.066934749629    -0.109955697958     0.016946637773    12.000000000000
         C           -0.306931050371     0.571409102042     0.024072037773    12.000000000000
         C           -1.408206250371    -0.200170697958     0.001127637773    12.000000000000
         C           -2.709547250371     0.484922902042    -0.005990762227    12.000000000000
         H            2.177171749629     1.465554302042     0.905155637773     1.007825032230
         H            2.158789749629     1.497642302042    -0.839379362227     1.007825032230
         H            3.680161749629    -0.570898697958     0.862098637773     1.007825032230
         H            3.661624749629    -0.541340697958    -0.897922362227     1.007825032230
         H            4.417954749629     0.791066302042    -0.003265362227     1.007825032230
         H           -0.333308250371     1.621865302042     0.041301637773     1.007825032230
         H           -1.360625250371    -1.286596697958    -0.016475362227     1.007825032230
         H           -2.729422250371     1.548699302042     0.015525637773     1.007825032230

  Basis Set: AUG-CC-PVTZ
    Blend: AUG-CC-PVTZ
  Basis Set: (AUG-CC-PVTZ AUX)
    Blend: AUG-CC-PVTZ-JKFIT
	 Reference Energy          =    -381.6922194626426403 [Eh]
	 Singles Energy            =      -0.0000000000000000 [Eh]
	 Same-Spin Energy          =      -0.3783278727247279 [Eh]
	 Opposite-Spin Energy      =      -1.2264256871168207 [Eh]
	 Correlation Energy        =      -1.6047535598415485 [Eh]
	 Total Energy              =    -383.2969730224841669 [Eh]

	 ================> DF-SCS-MP2 Energies <==================
	-----------------------------------------------------------
	 SCS Same-Spin Scale       =       0.3333333333333333 [-]
	 SCS Opposite-Spin Scale   =       1.2000000000000000 [-]
	 SCS Same-Spin Energy      =      -0.1261092909082426 [Eh]
	 SCS Opposite-Spin Energy  =      -1.4717108245401846 [Eh]
	 SCS Correlation Energy    =      -1.5978201154484273 [Eh]
	 SCS Total Energy          =    -383.2900395780910685 [Eh]
	-----------------------------------------------------------

  Dipole Moment: [D]
     X:     2.9116      Y:     3.6598      Z:     0.0947     Total:     4.6776

*** Psi4 exiting successfully. Buy a developer a beer!
