                               Psi4 1.3.2 release

  ==> Input File <==

--------------------------------------------------------------------------
#psi4
#
memory 32 gb

molecule  {
0 1
  O        1.1855920    -1.3251230    -0.0110750
  O       -3.7874790    -0.1788050    -0.0307850
  C        2.2579520     0.8287430     0.0207180
  C        3.5859950     0.0918750    -0.0061980
  C        1.0665970    -0.1008810     0.0170560
  C       -0.3712718     0.5846094     0.0244769
  C       -1.4085440    -0.1910960     0.0012370
  C       -2.7329950     0.4481680    -0.0067340
  H        2.1768340     1.4746290     0.9052650
  H        2.1584520     1.5067170    -0.8392700
  H        3.6798240    -0.5618240     0.8622080
  H        3.6612870    -0.5322660    -0.8978130
  H        4.4176170     0.8001410    -0.0031560
  H       -0.3336460     1.6309400     0.0414110
  H       -1.3609630    -1.2775220    -0.0163660
  H       -2.7297600     1.5577740     0.0156350
units angstrom
no_reorient  #important for SAPT in psi4, default
symmetry c1  #important for SAPT in psi4, default
}

set PROPERTIES_ORIGIN ["COM"]
properties('MP2/aug-cc-pvtz', properties = ['dipole'])
--------------------------------------------------------------------------

    Molecular point group: c1
  Charge       = 0
  Multiplicity = 1
  Basis Set: AUG-CC-PVTZ
    Blend: AUG-CC-PVTZ
  Basis Set: (AUG-CC-PVTZ AUX)
    Blend: AUG-CC-PVTZ-JKFIT

    Orbital Energies [Eh]
    ---------------------

    Doubly Occupied:

       1A    -20.568726     2A    -20.566598     3A    -11.359529
       4A    -11.346461     5A    -11.277675     6A    -11.266979
       7A    -11.258878     8A    -11.229445     9A     -1.394059
      10A     -1.390768    11A     -1.121926    12A     -1.071866
      13A     -0.941956    14A     -0.877017    15A     -0.802595
      16A     -0.753165    17A     -0.697417    18A     -0.687407
      19A     -0.646202    20A     -0.636736    21A     -0.625015
      22A     -0.584294    23A     -0.553053    24A     -0.544736
      25A     -0.534900    26A     -0.528631    27A     -0.502580
      28A     -0.448832    29A     -0.425496    30A     -0.415500

  @DF-RHF Final Energy:  -381.69583293073890

   => Energetics <=

    Nuclear Repulsion Energy =            330.6516019262278405
    One-Electron Energy =               -1174.5779908481840721
    Two-Electron Energy =                 462.2305559912173294
    Total Energy =                       -381.6958329307389022
  Basis Set: (AUG-CC-PVTZ AUX)
    Blend: AUG-CC-PVTZ-RI
    Molecular point group: c1

    Geometry (in Angstrom), charge = 0, multiplicity = 1:

       Center              X                  Y                   Z               Mass
    ------------   -----------------  -----------------  -----------------  -----------------
         O            1.195258918169    -1.329731502961    -0.011124700870    15.994914619570
         O           -3.777812081831    -0.183413502961    -0.030834700870    15.994914619570
         C            2.267618918169     0.824134497039     0.020668299130    12.000000000000
         C            3.595661918169     0.087266497039    -0.006247700870    12.000000000000
         C            1.076263918169    -0.105489502961     0.017006299130    12.000000000000
         C           -0.361604881831     0.580000897039     0.024427199130    12.000000000000
         C           -1.398877081831    -0.195704502961     0.001187299130    12.000000000000
         C           -2.723328081831     0.443559497039    -0.006783700870    12.000000000000
         H            2.186500918169     1.470020497039     0.905215299130     1.007825032230
         H            2.168118918169     1.502108497039    -0.839319700870     1.007825032230
         H            3.689490918169    -0.566432502961     0.862158299130     1.007825032230
         H            3.670953918169    -0.536874502961    -0.897862700870     1.007825032230
         H            4.427283918169     0.795532497039    -0.003205700870     1.007825032230
         H           -0.323979081831     1.626331497039     0.041361299130     1.007825032230
         H           -1.351296081831    -1.282130502961    -0.016415700870     1.007825032230
         H           -2.720093081831     1.553165497039     0.015585299130     1.007825032230

  Basis Set: AUG-CC-PVTZ
    Blend: AUG-CC-PVTZ
  Basis Set: (AUG-CC-PVTZ AUX)
    Blend: AUG-CC-PVTZ-JKFIT
	 Reference Energy          =    -381.6958329307389022 [Eh]
	 Singles Energy            =      -0.0000000000000000 [Eh]
	 Same-Spin Energy          =      -0.3765915682923590 [Eh]
	 Opposite-Spin Energy      =      -1.2222910464821997 [Eh]
	 Correlation Energy        =      -1.5988826147745585 [Eh]
	 Total Energy              =    -383.2947155455134407 [Eh]

	 ================> DF-SCS-MP2 Energies <==================
	-----------------------------------------------------------
	 SCS Same-Spin Scale       =       0.3333333333333333 [-]
	 SCS Opposite-Spin Scale   =       1.2000000000000000 [-]
	 SCS Same-Spin Energy      =      -0.1255305227641196 [Eh]
	 SCS Opposite-Spin Energy  =      -1.4667492557786395 [Eh]
	 SCS Correlation Energy    =      -1.5922797785427591 [Eh]
	 SCS Total Energy          =    -383.2881127092816769 [Eh]
	-----------------------------------------------------------

  Dipole Moment: [D]
     X:     2.9849      Y:     3.5102      Z:     0.0908     Total:     4.6086

*** Psi4 exiting successfully. Buy a developer a beer!
