                               Psi4 1.3.2 release

  ==> Input File <==

--------------------------------------------------------------------------
#psi4
#
memory 32 gb

molecule  {
0 1
  O        1.1855920    -1.3251230    -0.0110750
  O       -3.7874790    -0.1788050    -0.0307850
  C        2.2579520     0.8287430     0.0207180
  C        3.5859950     0.0918750    -0.0061980
  C        1.0665970    -0.1008810     0.0170560
  C       -0.1004744     0.4555093     0.0230793
  C       -1.4085440    -0.1910960     0.0012370
  C       -2.7329950     0.4481680    -0.0067340
  H        2.1768340     1.4746290     0.9052650
  H        2.1584520     1.5067170    -0.8392700
  H        3.6798240    -0.5618240     0.8622080
  H        3.6612870    -0.5322660    -0.8978130
  H        4.4176170     0.8001410    -0.0031560
  H       -0.3336460     1.6309400     0.0414110
  H       -1.3609630    -1.2775220    -0.0163660
  H       -2.7297600     1.5577740     0.0156350
units angstrom
no_reorient  #important for SAPT in psi4, default
symmetry c1  #important for SAPT in psi4, default
}

set PROPERTIES_ORIGIN ["COM"]
properties('MP2/aug-cc-pvtz', properties = ['dipole'])
--------------------------------------------------------------------------

    Molecular point group: c1
  Charge       = 0
  Multiplicity = 1
  Basis Set: AUG-CC-PVTZ
    Blend: AUG-CC-PVTZ
  Basis Set: (AUG-CC-PVTZ AUX)
    Blend: AUG-CC-PVTZ-JKFIT

    Orbital Energies [Eh]
    ---------------------

    Doubly Occupied:

       1A    -20.588994     2A    -20.555276     3A    -11.364547
       4A    -11.330651     5A    -11.308630     6A    -11.289089
       7A    -11.250334     8A    -11.223579     9A     -1.407851
      10A     -1.395004    11A     -1.117674    12A     -1.062668
      13A     -0.988866    14A     -0.879601    15A     -0.811822
      16A     -0.754936    17A     -0.698158    18A     -0.682034
      19A     -0.650363    20A     -0.644953    21A     -0.631938
      22A     -0.561588    23A     -0.556119    24A     -0.542657
      25A     -0.525521    26A     -0.516090    27A     -0.499026
      28A     -0.462116    29A     -0.442241    30A     -0.382782

  @DF-RHF Final Energy:  -381.63840246472489

   => Energetics <=

    Nuclear Repulsion Energy =            332.6468802309079251
    One-Electron Energy =               -1178.3203449566551626
    Two-Electron Energy =                 464.0350622610222899
    Total Energy =                       -381.6384024647248907
  Basis Set: (AUG-CC-PVTZ AUX)
    Blend: AUG-CC-PVTZ-RI
    Molecular point group: c1

    Geometry (in Angstrom), charge = 0, multiplicity = 1:

       Center              X                  Y                   Z               Mass
    ------------   -----------------  -----------------  -----------------  -----------------
         O            1.166258486722    -1.315905821475    -0.010975028078    15.994914619570
         O           -3.806812513278    -0.169587821475    -0.030685028078    15.994914619570
         C            2.238618486722     0.837960178525     0.020817971922    12.000000000000
         C            3.566661486722     0.101092178525    -0.006098028078    12.000000000000
         C            1.047263486722    -0.091663821475     0.017155971922    12.000000000000
         C           -0.119807913278     0.464726478525     0.023179271922    12.000000000000
         C           -1.427877513278    -0.181878821475     0.001336971922    12.000000000000
         C           -2.752328513278     0.457385178525    -0.006634028078    12.000000000000
         H            2.157500486722     1.483846178525     0.905364971922     1.007825032230
         H            2.139118486722     1.515934178525    -0.839170028078     1.007825032230
         H            3.660490486722    -0.552606821475     0.862307971922     1.007825032230
         H            3.641953486722    -0.523048821475    -0.897713028078     1.007825032230
         H            4.398283486722     0.809358178525    -0.003056028078     1.007825032230
         H           -0.352979513278     1.640157178525     0.041510971922     1.007825032230
         H           -1.380296513278    -1.268304821475    -0.016266028078     1.007825032230
         H           -2.749093513278     1.566991178525     0.015734971922     1.007825032230

  Basis Set: AUG-CC-PVTZ
    Blend: AUG-CC-PVTZ
  Basis Set: (AUG-CC-PVTZ AUX)
    Blend: AUG-CC-PVTZ-JKFIT
	 Reference Energy          =    -381.6384024647248907 [Eh]
	 Singles Energy            =      -0.0000000000000000 [Eh]
	 Same-Spin Energy          =      -0.3827428200717163 [Eh]
	 Opposite-Spin Energy      =      -1.2334600166480709 [Eh]
	 Correlation Energy        =      -1.6162028367197872 [Eh]
	 Total Energy              =    -383.2546053014446557 [Eh]

	 ================> DF-SCS-MP2 Energies <==================
	-----------------------------------------------------------
	 SCS Same-Spin Scale       =       0.3333333333333333 [-]
	 SCS Opposite-Spin Scale   =       1.2000000000000000 [-]
	 SCS Same-Spin Energy      =      -0.1275809400239054 [Eh]
	 SCS Opposite-Spin Energy  =      -1.4801520199776850 [Eh]
	 SCS Correlation Energy    =      -1.6077329600015904 [Eh]
	 SCS Total Energy          =    -383.2461354247265035 [Eh]
	-----------------------------------------------------------

  Dipole Moment: [D]
     X:     2.2817      Y:     3.4886      Z:     0.0875     Total:     4.1694

*** Psi4 exiting successfully. Buy a developer a beer!
