                               Psi4 1.3.2 release

  ==> Input File <==

--------------------------------------------------------------------------
#psi4
#
memory 32 gb

molecule  {
0 1
  O        1.1749023    -1.3261178    -0.0109489
  O       -3.7874790    -0.1788050    -0.0307850
  C        2.2497962     0.8391001     0.0210547
  C        3.5859950     0.0918750    -0.0061980
  C        1.0665970    -0.1008810     0.0170560
  C       -0.2810060     0.5415760     0.0240110
  C       -1.4085440    -0.1910960     0.0012370
  C       -2.7329950     0.4481680    -0.0067340
  H        2.1768340     1.4746290     0.9052650
  H        2.1584520     1.5067170    -0.8392700
  H        3.6798240    -0.5618240     0.8622080
  H        3.6612870    -0.5322660    -0.8978130
  H        4.4176170     0.8001410    -0.0031560
  H       -0.3336460     1.6309400     0.0414110
  H       -1.3609630    -1.2775220    -0.0163660
  H       -2.7297600     1.5577740     0.0156350
units angstrom
no_reorient  #important for SAPT in psi4, default
symmetry c1  #important for SAPT in psi4, default
}

set PROPERTIES_ORIGIN ["COM"]
properties('MP2/aug-cc-pvtz', properties = ['dipole'])
--------------------------------------------------------------------------

    Molecular point group: c1
  Charge       = 0
  Multiplicity = 1
  Basis Set: AUG-CC-PVTZ
    Blend: AUG-CC-PVTZ
  Basis Set: (AUG-CC-PVTZ AUX)
    Blend: AUG-CC-PVTZ-JKFIT

    Orbital Energies [Eh]
    ---------------------

    Doubly Occupied:

       1A    -20.573632     2A    -20.564553     3A    -11.354135
       4A    -11.350971     5A    -11.281372     6A    -11.277312
       7A    -11.256878     8A    -11.229123     9A     -1.395461
      10A     -1.394151    11A     -1.114495    12A     -1.069521
      13A     -0.954164    14A     -0.879441    15A     -0.801137
      16A     -0.756796    17A     -0.696552    18A     -0.685390
      19A     -0.647584    20A     -0.637024    21A     -0.629871
      22A     -0.573201    23A     -0.554533    24A     -0.541854
      25A     -0.536667    26A     -0.528318    27A     -0.504874
      28A     -0.451397    29A     -0.435857    30A     -0.404189

  @DF-RHF Final Energy:  -381.70291338299830

   => Energetics <=

    Nuclear Repulsion Energy =            331.0892962494029348
    One-Electron Energy =               -1175.4235135816379625
    Two-Electron Energy =                 462.6313039492367807
    Total Energy =                       -381.7029133829983039
  Basis Set: (AUG-CC-PVTZ AUX)
    Blend: AUG-CC-PVTZ-RI
    Molecular point group: c1

    Geometry (in Angstrom), charge = 0, multiplicity = 1:

       Center              X                  Y                   Z               Mass
    ------------   -----------------  -----------------  -----------------  -----------------
         O            1.177301734859    -1.327084906314    -0.011002764624    15.994914619570
         O           -3.785079565141    -0.179772106314    -0.030838864624    15.994914619570
         C            2.252195634859     0.838132993686     0.021000835376    12.000000000000
         C            3.588394434859     0.090907893686    -0.006251864624    12.000000000000
         C            1.068996434859    -0.101848106314     0.017002135376    12.000000000000
         C           -0.278606565141     0.540608893686     0.023957135376    12.000000000000
         C           -1.406144565141    -0.192063106314     0.001183135376    12.000000000000
         C           -2.730595565141     0.447200893686    -0.006787864624    12.000000000000
         H            2.179233434859     1.473661893686     0.905211135376     1.007825032230
         H            2.160851434859     1.505749893686    -0.839323864624     1.007825032230
         H            3.682223434859    -0.562791106314     0.862154135376     1.007825032230
         H            3.663686434859    -0.533233106314    -0.897866864624     1.007825032230
         H            4.420016434859     0.799173893686    -0.003209864624     1.007825032230
         H           -0.331246565141     1.629972893686     0.041357135376     1.007825032230
         H           -1.358563565141    -1.278489106314    -0.016419864624     1.007825032230
         H           -2.727360565141     1.556806893686     0.015581135376     1.007825032230

  Basis Set: AUG-CC-PVTZ
    Blend: AUG-CC-PVTZ
  Basis Set: (AUG-CC-PVTZ AUX)
    Blend: AUG-CC-PVTZ-JKFIT
	 Reference Energy          =    -381.7029133829983039 [Eh]
	 Singles Energy            =      -0.0000000000000000 [Eh]
	 Same-Spin Energy          =      -0.3773404987550536 [Eh]
	 Opposite-Spin Energy      =      -1.2237796289965952 [Eh]
	 Correlation Energy        =      -1.6011201277516487 [Eh]
	 Total Energy              =    -383.3040335107499459 [Eh]

	 ================> DF-SCS-MP2 Energies <==================
	-----------------------------------------------------------
	 SCS Same-Spin Scale       =       0.3333333333333333 [-]
	 SCS Opposite-Spin Scale   =       1.2000000000000000 [-]
	 SCS Same-Spin Energy      =      -0.1257801662516845 [Eh]
	 SCS Opposite-Spin Energy  =      -1.4685355547959142 [Eh]
	 SCS Correlation Energy    =      -1.5943157210475989 [Eh]
	 SCS Total Energy          =    -383.2972291040459254 [Eh]
	-----------------------------------------------------------

  Dipole Moment: [D]
     X:     2.7809      Y:     3.5149      Z:     0.0901     Total:     4.4828

*** Psi4 exiting successfully. Buy a developer a beer!
