                               Psi4 1.4a3.dev225

  ==> Input File <==

--------------------------------------------------------------------------
#psi4
#
memory 32 gb

molecule  {
0 1
  O        1.0820120     1.3681640     0.0000000
  O       -3.8882340     0.1997640    -0.0000030
  C        2.1679760    -0.7815440    -0.0000070
  C        3.4943680    -0.0370920     0.0000040
  C        1.0093228     0.1115650    -0.0000002
  C       -0.3759970    -0.5069640     0.0000040
  C       -1.5077040     0.2230700     0.0000000
  C       -2.8299410    -0.4231870     0.0000020
  H        2.0818540    -1.4423830    -0.8738950
  H        2.0818510    -1.4424050     0.8738640
  H        3.5776630     0.6025590    -0.8807220
  H        3.5776700     0.6025230     0.8807550
  H        4.3292850    -0.7422630    -0.0000140
  H       -0.4236580    -1.5964830     0.0000100
  H       -1.4638710     1.3098110    -0.0000060
  H       -2.8215620    -1.5330200     0.0000110
units angstrom
no_reorient  #important for SAPT in psi4, default
symmetry c1  #important for SAPT in psi4, default
}

set PROPERTIES_ORIGIN ["COM"]
properties('MP2/aug-cc-pvtz', properties = ['dipole'])
--------------------------------------------------------------------------

    Molecular point group: c1
  Charge       = 0
  Multiplicity = 1
  Basis Set: AUG-CC-PVTZ
    Blend: AUG-CC-PVTZ
  Basis Set: (AUG-CC-PVTZ AUX)
    Blend: AUG-CC-PVTZ-JKFIT

    Orbital Energies [Eh]
    ---------------------

    Doubly Occupied:

       1A    -20.572325     2A    -20.563029     3A    -11.358074
       4A    -11.350438     5A    -11.283981     6A    -11.276533
       7A    -11.259884     8A    -11.231601     9A     -1.393040
      10A     -1.377144    11A     -1.112102    12A     -1.080094
      13A     -0.954745    14A     -0.882958    15A     -0.800243
      16A     -0.754890    17A     -0.695055    18A     -0.684551
      19A     -0.652015    20A     -0.635946    21A     -0.626607
      22A     -0.569695    23A     -0.551418    24A     -0.545511
      25A     -0.534316    26A     -0.530080    27A     -0.498587
      28A     -0.450980    29A     -0.439202    30A     -0.401737

  @DF-RHF Final Energy:  -381.69635191629442

   => Energetics <=

    Nuclear Repulsion Energy =            330.6251455662750232
    One-Electron Energy =               -1174.5094340079861013
    Two-Electron Energy =                 462.1879365254166601
    Total Energy =                       -381.6963519162944181
  Basis Set: (AUG-CC-PVTZ AUX)
    Blend: AUG-CC-PVTZ-RI
    Molecular point group: c1

    Geometry (in Angstrom), charge = 0, multiplicity = 1:

       Center              X                  Y                   Z               Mass
    ------------   -----------------  -----------------  -----------------  -----------------
         O            1.174505771863     1.333946104210     0.000000101392    15.994914619570
         O           -3.795740228137     0.165546104210    -0.000002898608    15.994914619570
         C            2.260469771863    -0.815761895790    -0.000006898608    12.000000000000
         C            3.586861771863    -0.071309895790     0.000004101392    12.000000000000
         C            1.101816571863     0.077347104210    -0.000000098608    12.000000000000
         C           -0.283503228137    -0.541181895790     0.000004101392    12.000000000000
         C           -1.415210228137     0.188852104210     0.000000101392    12.000000000000
         C           -2.737447228137    -0.457404895790     0.000002101392    12.000000000000
         H            2.174347771863    -1.476600895790    -0.873894898608     1.007825032230
         H            2.174344771863    -1.476622895790     0.873864101392     1.007825032230
         H            3.670156771863     0.568341104210    -0.880721898608     1.007825032230
         H            3.670163771863     0.568305104210     0.880755101392     1.007825032230
         H            4.421778771863    -0.776480895790    -0.000013898608     1.007825032230
         H           -0.331164228137    -1.630700895790     0.000010101392     1.007825032230
         H           -1.371377228137     1.275593104210    -0.000005898608     1.007825032230
         H           -2.729068228137    -1.567237895790     0.000011101392     1.007825032230

  Basis Set: AUG-CC-PVTZ
    Blend: AUG-CC-PVTZ
  Basis Set: (AUG-CC-PVTZ AUX)
    Blend: AUG-CC-PVTZ-JKFIT
	 Reference Energy          =    -381.6963519162944181 [Eh]
	 Singles Energy            =      -0.0000000000000000 [Eh]
	 Same-Spin Energy          =      -0.3783942739457801 [Eh]
	 Opposite-Spin Energy      =      -1.2259375548245663 [Eh]
	 Correlation Energy        =      -1.6043318287703463 [Eh]
	 Total Energy              =    -383.3006837450647595 [Eh]

	 ================> DF-SCS-MP2 Energies <==================
	-----------------------------------------------------------
	 SCS Same-Spin Scale       =       0.3333333333333333 [-]
	 SCS Opposite-Spin Scale   =       1.2000000000000000 [-]
	 SCS Same-Spin Energy      =      -0.1261314246485933 [Eh]
	 SCS Opposite-Spin Energy  =      -1.4711250657894797 [Eh]
	 SCS Correlation Energy    =      -1.5972564904380731 [Eh]
	 SCS Total Energy          =    -383.2936084067325169 [Eh]
	-----------------------------------------------------------

  Dipole Moment: [D]
     X:     3.0568      Y:    -3.6268      Z:     0.0000     Total:     4.7432

*** Psi4 exiting successfully. Buy a developer a beer!
