                               Psi4 1.4a3.dev225

  ==> Input File <==

--------------------------------------------------------------------------
#psi4
#
memory 32 gb

molecule  {
0 1
  O        1.0820120     1.3681640     0.0000000
  O       -3.8882340     0.1997640    -0.0000030
  C        2.1679760    -0.7815440    -0.0000070
  C        3.4943680    -0.0370920     0.0000040
  C        0.9697220     0.1420900     0.0000000
  C       -0.3759970    -0.5069640     0.0000040
  C       -1.5077040     0.2230700     0.0000000
  C       -2.8299410    -0.4231870     0.0000020
  H        2.0818540    -1.4423830    -0.8738950
  H        2.0818510    -1.4424050     0.8738640
  H        3.5776630     0.6025590    -0.8807220
  H        3.5776700     0.6025230     0.8807550
  H        4.3292850    -0.7422630    -0.0000140
  H       -0.4236580    -1.5964830     0.0000100
  H       -1.4630650     1.3297948    -0.0000061
  H       -2.8215620    -1.5330200     0.0000110
units angstrom
no_reorient  #important for SAPT in psi4, default
symmetry c1  #important for SAPT in psi4, default
}

set PROPERTIES_ORIGIN ["COM"]
properties('MP2/aug-cc-pvtz', properties = ['dipole'])
--------------------------------------------------------------------------

    Molecular point group: c1
  Charge       = 0
  Multiplicity = 1
  Basis Set: AUG-CC-PVTZ
    Blend: AUG-CC-PVTZ
  Basis Set: (AUG-CC-PVTZ AUX)
    Blend: AUG-CC-PVTZ-JKFIT

    Orbital Energies [Eh]
    ---------------------

    Doubly Occupied:

       1A    -20.574084     2A    -20.564055     3A    -11.354316
       4A    -11.351777     5A    -11.282824     6A    -11.280293
       7A    -11.257481     8A    -11.228726     9A     -1.394947
      10A     -1.393497    11A     -1.113783    12A     -1.069527
      13A     -0.954226    14A     -0.879108    15A     -0.799273
      16A     -0.755478    17A     -0.695961    18A     -0.685473
      19A     -0.645923    20A     -0.636217    21A     -0.629238
      22A     -0.571060    23A     -0.554302    24A     -0.543666
      25A     -0.536237    26A     -0.528517    27A     -0.502229
      28A     -0.451529    29A     -0.435789    30A     -0.404319

  @DF-RHF Final Energy:  -381.70196029168392

   => Energetics <=

    Nuclear Repulsion Energy =            330.7629776844785852
    One-Electron Energy =               -1174.7821680888021092
    Two-Electron Energy =                 462.3172301126396633
    Total Energy =                       -381.7019602916839176
  Basis Set: (AUG-CC-PVTZ AUX)
    Blend: AUG-CC-PVTZ-RI
    Molecular point group: c1

    Geometry (in Angstrom), charge = 0, multiplicity = 1:

       Center              X                  Y                   Z               Mass
    ------------   -----------------  -----------------  -----------------  -----------------
         O            1.178739480094     1.330497359942     0.000000080873    15.994914619570
         O           -3.791506519906     0.162097359942    -0.000002919127    15.994914619570
         C            2.264703480094    -0.819210640058    -0.000006919127    12.000000000000
         C            3.591095480094    -0.074758640058     0.000004080873    12.000000000000
         C            1.066449480094     0.104423359942     0.000000080873    12.000000000000
         C           -0.279269519906    -0.544630640058     0.000004080873    12.000000000000
         C           -1.410976519906     0.185403359942     0.000000080873    12.000000000000
         C           -2.733213519906    -0.460853640058     0.000002080873    12.000000000000
         H            2.178581480094    -1.480049640058    -0.873894919127     1.007825032230
         H            2.178578480094    -1.480071640058     0.873864080873     1.007825032230
         H            3.674390480094     0.564892359942    -0.880721919127     1.007825032230
         H            3.674397480094     0.564856359942     0.880755080873     1.007825032230
         H            4.426012480094    -0.779929640058    -0.000013919127     1.007825032230
         H           -0.326930519906    -1.634149640058     0.000010080873     1.007825032230
         H           -1.366337519906     1.292128159942    -0.000006019127     1.007825032230
         H           -2.724834519906    -1.570686640058     0.000011080873     1.007825032230

  Basis Set: AUG-CC-PVTZ
    Blend: AUG-CC-PVTZ
  Basis Set: (AUG-CC-PVTZ AUX)
    Blend: AUG-CC-PVTZ-JKFIT
	 Reference Energy          =    -381.7019602916839176 [Eh]
	 Singles Energy            =      -0.0000000000000000 [Eh]
	 Same-Spin Energy          =      -0.3774979346032423 [Eh]
	 Opposite-Spin Energy      =      -1.2241644531232911 [Eh]
	 Correlation Energy        =      -1.6016623877265335 [Eh]
	 Total Energy              =    -383.3036226794104664 [Eh]

	 ================> DF-SCS-MP2 Energies <==================
	-----------------------------------------------------------
	 SCS Same-Spin Scale       =       0.3333333333333333 [-]
	 SCS Opposite-Spin Scale   =       1.2000000000000000 [-]
	 SCS Same-Spin Energy      =      -0.1258326448677474 [Eh]
	 SCS Opposite-Spin Energy  =      -1.4689973437479493 [Eh]
	 SCS Correlation Energy    =      -1.5948299886156967 [Eh]
	 SCS Total Energy          =    -383.2967902802996036 [Eh]
	-----------------------------------------------------------

  Dipole Moment: [D]
     X:     2.7703      Y:    -3.4992      Z:     0.0000     Total:     4.4630

*** Psi4 exiting successfully. Buy a developer a beer!
