                               Psi4 1.4a3.dev225

  ==> Input File <==

--------------------------------------------------------------------------
#psi4
#
memory 32 gb

molecule  {
0 1
  O        1.0820120     1.3681640     0.0000000
  O       -3.8882340     0.1997640    -0.0000030
  C        2.1679760    -0.7815440    -0.0000070
  C        3.5379698    -0.0126200     0.0000044
  C        0.9697220     0.1420900     0.0000000
  C       -0.3759970    -0.5069640     0.0000040
  C       -1.5077040     0.2230700     0.0000000
  C       -2.8299410    -0.4231870     0.0000020
  H        2.0818540    -1.4423830    -0.8738950
  H        2.0818510    -1.4424050     0.8738640
  H        3.5776630     0.6025590    -0.8807220
  H        3.5776700     0.6025230     0.8807550
  H        4.3292850    -0.7422630    -0.0000140
  H       -0.4236580    -1.5964830     0.0000100
  H       -1.4638710     1.3098110    -0.0000060
  H       -2.8215620    -1.5330200     0.0000110
units angstrom
no_reorient  #important for SAPT in psi4, default
symmetry c1  #important for SAPT in psi4, default
}

set PROPERTIES_ORIGIN ["COM"]
properties('MP2/aug-cc-pvtz', properties = ['dipole'])
--------------------------------------------------------------------------

    Molecular point group: c1
  Charge       = 0
  Multiplicity = 1
  Basis Set: AUG-CC-PVTZ
    Blend: AUG-CC-PVTZ
  Basis Set: (AUG-CC-PVTZ AUX)
    Blend: AUG-CC-PVTZ-JKFIT

    Orbital Energies [Eh]
    ---------------------

    Doubly Occupied:

       1A    -20.573947     2A    -20.563618     3A    -11.354129
       4A    -11.351553     5A    -11.282507     6A    -11.278299
       7A    -11.258717     8A    -11.227830     9A     -1.394769
      10A     -1.393101    11A     -1.113763    12A     -1.062527
      13A     -0.954627    14A     -0.882009    15A     -0.801336
      16A     -0.755481    17A     -0.695149    18A     -0.684821
      19A     -0.644139    20A     -0.636354    21A     -0.628787
      22A     -0.574052    23A     -0.556158    24A     -0.547399
      25A     -0.540093    26A     -0.517791    27A     -0.506263
      28A     -0.451407    29A     -0.435332    30A     -0.404211

  @DF-RHF Final Energy:  -381.70096820237046

   => Energetics <=

    Nuclear Repulsion Energy =            330.1764420574086785
    One-Electron Energy =               -1173.6144893634109394
    Two-Electron Energy =                 461.7370791036318565
    Total Energy =                       -381.7009682023704613
  Basis Set: (AUG-CC-PVTZ AUX)
    Blend: AUG-CC-PVTZ-RI
    Molecular point group: c1

    Geometry (in Angstrom), charge = 0, multiplicity = 1:

       Center              X                  Y                   Z               Mass
    ------------   -----------------  -----------------  -----------------  -----------------
         O            1.174077293871     1.328056325621     0.000000037137    15.994914619570
         O           -3.796168706129     0.159656325621    -0.000002962863    15.994914619570
         C            2.260041293871    -0.821651674379    -0.000006962863    12.000000000000
         C            3.630035093871    -0.052727674379     0.000004437137    12.000000000000
         C            1.061787293871     0.101982325621     0.000000037137    12.000000000000
         C           -0.283931706129    -0.547071674379     0.000004037137    12.000000000000
         C           -1.415638706129     0.182962325621     0.000000037137    12.000000000000
         C           -2.737875706129    -0.463294674379     0.000002037137    12.000000000000
         H            2.173919293871    -1.482490674379    -0.873894962863     1.007825032230
         H            2.173916293871    -1.482512674379     0.873864037137     1.007825032230
         H            3.669728293871     0.562451325621    -0.880721962863     1.007825032230
         H            3.669735293871     0.562415325621     0.880755037137     1.007825032230
         H            4.421350293871    -0.782370674379    -0.000013962863     1.007825032230
         H           -0.331592706129    -1.636590674379     0.000010037137     1.007825032230
         H           -1.371805706129     1.269703325621    -0.000005962863     1.007825032230
         H           -2.729496706129    -1.573127674379     0.000011037137     1.007825032230

  Basis Set: AUG-CC-PVTZ
    Blend: AUG-CC-PVTZ
  Basis Set: (AUG-CC-PVTZ AUX)
    Blend: AUG-CC-PVTZ-JKFIT
	 Reference Energy          =    -381.7009682023704613 [Eh]
	 Singles Energy            =      -0.0000000000000000 [Eh]
	 Same-Spin Energy          =      -0.3771652492541007 [Eh]
	 Opposite-Spin Energy      =      -1.2238210520416182 [Eh]
	 Correlation Energy        =      -1.6009863012957188 [Eh]
	 Total Energy              =    -383.3019545036661953 [Eh]

	 ================> DF-SCS-MP2 Energies <==================
	-----------------------------------------------------------
	 SCS Same-Spin Scale       =       0.3333333333333333 [-]
	 SCS Opposite-Spin Scale   =       1.2000000000000000 [-]
	 SCS Same-Spin Energy      =      -0.1257217497513669 [Eh]
	 SCS Opposite-Spin Energy  =      -1.4685852624499418 [Eh]
	 SCS Correlation Energy    =      -1.5943070122013088 [Eh]
	 SCS Total Energy          =    -383.2952752145717454 [Eh]
	-----------------------------------------------------------

  Dipole Moment: [D]
     X:     2.7775      Y:    -3.5046      Z:     0.0000     Total:     4.4717

*** Psi4 exiting successfully. Buy a developer a beer!
