                               Psi4 1.4a3.dev225

  ==> Input File <==

--------------------------------------------------------------------------
#psi4
#
memory 32 gb

molecule  {
0 1
  O        1.0820120     1.3681640     0.0000000
  O       -3.8882340     0.1997640    -0.0000030
  C        2.1679760    -0.7815440    -0.0000070
  C        3.4943680    -0.0370920     0.0000040
  C        0.9538817     0.1543000     0.0000001
  C       -0.3759970    -0.5069640     0.0000040
  C       -1.5077040     0.2230700     0.0000000
  C       -2.8299410    -0.4231870     0.0000020
  H        2.0818540    -1.4423830    -0.8738950
  H        2.0818510    -1.4424050     0.8738640
  H        3.5776630     0.6025590    -0.8807220
  H        3.5776700     0.6025230     0.8807550
  H        4.3292850    -0.7422630    -0.0000140
  H       -0.4236580    -1.5964830     0.0000100
  H       -1.4638710     1.3098110    -0.0000060
  H       -2.8215620    -1.5330200     0.0000110
units angstrom
no_reorient  #important for SAPT in psi4, default
symmetry c1  #important for SAPT in psi4, default
}

set PROPERTIES_ORIGIN ["COM"]
properties('MP2/aug-cc-pvtz', properties = ['dipole'])
--------------------------------------------------------------------------

    Molecular point group: c1
  Charge       = 0
  Multiplicity = 1
  Basis Set: AUG-CC-PVTZ
    Blend: AUG-CC-PVTZ
  Basis Set: (AUG-CC-PVTZ AUX)
    Blend: AUG-CC-PVTZ-JKFIT

    Orbital Energies [Eh]
    ---------------------

    Doubly Occupied:

       1A    -20.574815     2A    -20.564533     3A    -11.352951
       4A    -11.352207     5A    -11.282352     6A    -11.279274
       7A    -11.256315     8A    -11.227597     9A     -1.400744
      10A     -1.395174    11A     -1.115636    12A     -1.065540
      13A     -0.954656    14A     -0.877297    15A     -0.801789
      16A     -0.756760    17A     -0.696910    18A     -0.686011
      19A     -0.643704    20A     -0.637002    21A     -0.630897
      22A     -0.575768    23A     -0.555812    24A     -0.542904
      25A     -0.537620    26A     -0.527819    27A     -0.502811
      28A     -0.451923    29A     -0.433444    30A     -0.405448

  @DF-RHF Final Energy:  -381.70334781444802

   => Energetics <=

    Nuclear Repulsion Energy =            330.9492927703134910
    One-Electron Energy =               -1175.1338516948530923
    Two-Electron Energy =                 462.4812111100915786
    Total Energy =                       -381.7033478144480227
  Basis Set: (AUG-CC-PVTZ AUX)
    Blend: AUG-CC-PVTZ-RI
    Molecular point group: c1

    Geometry (in Angstrom), charge = 0, multiplicity = 1:

       Center              X                  Y                   Z               Mass
    ------------   -----------------  -----------------  -----------------  -----------------
         O            1.180443110330     1.329369496613     0.000000069265    15.994914619570
         O           -3.789802889670     0.160969496613    -0.000002930735    15.994914619570
         C            2.266407110330    -0.820338503387    -0.000006930735    12.000000000000
         C            3.592799110330    -0.075886503387     0.000004069265    12.000000000000
         C            1.052312810330     0.115505496613     0.000000169265    12.000000000000
         C           -0.277565889670    -0.545758503387     0.000004069265    12.000000000000
         C           -1.409272889670     0.184275496613     0.000000069265    12.000000000000
         C           -2.731509889670    -0.461981503387     0.000002069265    12.000000000000
         H            2.180285110330    -1.481177503387    -0.873894930735     1.007825032230
         H            2.180282110330    -1.481199503387     0.873864069265     1.007825032230
         H            3.676094110330     0.563764496613    -0.880721930735     1.007825032230
         H            3.676101110330     0.563728496613     0.880755069265     1.007825032230
         H            4.427716110330    -0.781057503387    -0.000013930735     1.007825032230
         H           -0.325226889670    -1.635277503387     0.000010069265     1.007825032230
         H           -1.365439889670     1.271016496613    -0.000005930735     1.007825032230
         H           -2.723130889670    -1.571814503387     0.000011069265     1.007825032230

  Basis Set: AUG-CC-PVTZ
    Blend: AUG-CC-PVTZ
  Basis Set: (AUG-CC-PVTZ AUX)
    Blend: AUG-CC-PVTZ-JKFIT
	 Reference Energy          =    -381.7033478144480227 [Eh]
	 Singles Energy            =      -0.0000000000000000 [Eh]
	 Same-Spin Energy          =      -0.3771183536163475 [Eh]
	 Opposite-Spin Energy      =      -1.2233711318064169 [Eh]
	 Correlation Energy        =      -1.6004894854227645 [Eh]
	 Total Energy              =    -383.3038372998707928 [Eh]

	 ================> DF-SCS-MP2 Energies <==================
	-----------------------------------------------------------
	 SCS Same-Spin Scale       =       0.3333333333333333 [-]
	 SCS Opposite-Spin Scale   =       1.2000000000000000 [-]
	 SCS Same-Spin Energy      =      -0.1257061178721158 [Eh]
	 SCS Opposite-Spin Energy  =      -1.4680453581677002 [Eh]
	 SCS Correlation Energy    =      -1.5937514760398162 [Eh]
	 SCS Total Energy          =    -383.2970992904878358 [Eh]
	-----------------------------------------------------------

  Dipole Moment: [D]
     X:     2.6536      Y:    -3.4516      Z:     0.0000     Total:     4.3538

*** Psi4 exiting successfully. Buy a developer a beer!
