                               Psi4 1.3.2 release

  ==> Input File <==

--------------------------------------------------------------------------
#psi4
#
memory 32 gb

molecule  {
0 1
  O        1.1855920    -1.3251230    -0.0110750
  O       -3.7874790    -0.1788050    -0.0307850
  C        2.2579520     0.8287430     0.0207180
  C        3.5859950     0.0918750    -0.0061980
  C        1.0433537    -0.1475135     0.0162471
  C       -0.2810060     0.5415760     0.0240110
  C       -1.4085440    -0.1910960     0.0012370
  C       -2.7329950     0.4481680    -0.0067340
  H        2.1768340     1.4746290     0.9052650
  H        2.1584520     1.5067170    -0.8392700
  H        3.6798240    -0.5618240     0.8622080
  H        3.6612870    -0.5322660    -0.8978130
  H        4.4176170     0.8001410    -0.0031560
  H       -0.3716369     1.6284410     0.0412754
  H       -1.3609630    -1.2775220    -0.0163660
  H       -2.7297600     1.5577740     0.0156350
units angstrom
no_reorient  #important for SAPT in psi4, default
symmetry c1  #important for SAPT in psi4, default
}

set PROPERTIES_ORIGIN ["COM"]
properties('MP2/aug-cc-pvtz', properties = ['dipole'])
--------------------------------------------------------------------------

    Molecular point group: c1
  Charge       = 0
  Multiplicity = 1
  Basis Set: AUG-CC-PVTZ
    Blend: AUG-CC-PVTZ
  Basis Set: (AUG-CC-PVTZ AUX)
    Blend: AUG-CC-PVTZ-JKFIT

    Orbital Energies [Eh]
    ---------------------

    Doubly Occupied:

       1A    -20.574073     2A    -20.567670     3A    -11.351265
       4A    -11.351249     5A    -11.280665     6A    -11.276769
       7A    -11.253575     8A    -11.225757     9A     -1.425211
      10A     -1.395291    11A     -1.115352    12A     -1.061191
      13A     -0.950713    14A     -0.873841    15A     -0.800124
      16A     -0.758665    17A     -0.700058    18A     -0.685819
      19A     -0.642461    20A     -0.642290    21A     -0.632708
      22A     -0.576758    23A     -0.560828    24A     -0.543273
      25A     -0.542218    26A     -0.527857    27A     -0.504452
      28A     -0.451541    29A     -0.427468    30A     -0.406836

  @DF-RHF Final Energy:  -381.70358726144417

   => Energetics <=

    Nuclear Repulsion Energy =            331.4781184399235485
    One-Electron Energy =               -1176.1514546759760833
    Two-Electron Energy =                 462.9697489746084216
    Total Energy =                       -381.7035872614441701
  Basis Set: (AUG-CC-PVTZ AUX)
    Blend: AUG-CC-PVTZ-RI
    Molecular point group: c1

    Geometry (in Angstrom), charge = 0, multiplicity = 1:

       Center              X                  Y                   Z               Mass
    ------------   -----------------  -----------------  -----------------  -----------------
         O            1.188422994812    -1.320106460831    -0.010986959447    15.994914619570
         O           -3.784648005188    -0.173788460831    -0.030696959447    15.994914619570
         C            2.260782994812     0.833759539169     0.020806040553    12.000000000000
         C            3.588825994812     0.096891539169    -0.006109959447    12.000000000000
         C            1.046184694812    -0.142496960831     0.016335140553    12.000000000000
         C           -0.278175005188     0.546592539169     0.024099040553    12.000000000000
         C           -1.405713005188    -0.186079460831     0.001325040553    12.000000000000
         C           -2.730164005188     0.453184539169    -0.006645959447    12.000000000000
         H            2.179664994812     1.479645539169     0.905353040553     1.007825032230
         H            2.161282994812     1.511733539169    -0.839181959447     1.007825032230
         H            3.682654994812    -0.556807460831     0.862296040553     1.007825032230
         H            3.664117994812    -0.527249460831    -0.897724959447     1.007825032230
         H            4.420447994812     0.805157539169    -0.003067959447     1.007825032230
         H           -0.368805905188     1.633457539169     0.041363440553     1.007825032230
         H           -1.358132005188    -1.272505460831    -0.016277959447     1.007825032230
         H           -2.726929005188     1.562790539169     0.015723040553     1.007825032230

  Basis Set: AUG-CC-PVTZ
    Blend: AUG-CC-PVTZ
  Basis Set: (AUG-CC-PVTZ AUX)
    Blend: AUG-CC-PVTZ-JKFIT
	 Reference Energy          =    -381.7035872614441701 [Eh]
	 Singles Energy            =      -0.0000000000000000 [Eh]
	 Same-Spin Energy          =      -0.3762080241518962 [Eh]
	 Opposite-Spin Energy      =      -1.2212571950554891 [Eh]
	 Correlation Energy        =      -1.5974652192073853 [Eh]
	 Total Energy              =    -383.3010524806515491 [Eh]

	 ================> DF-SCS-MP2 Energies <==================
	-----------------------------------------------------------
	 SCS Same-Spin Scale       =       0.3333333333333333 [-]
	 SCS Opposite-Spin Scale   =       1.2000000000000000 [-]
	 SCS Same-Spin Energy      =      -0.1254026747172987 [Eh]
	 SCS Opposite-Spin Energy  =      -1.4655086340665868 [Eh]
	 SCS Correlation Energy    =      -1.5909113087838855 [Eh]
	 SCS Total Energy          =    -383.2944985702280292 [Eh]
	-----------------------------------------------------------

  Dipole Moment: [D]
     X:     2.5690      Y:     3.3184      Z:     0.0881     Total:     4.1975

*** Psi4 exiting successfully. Buy a developer a beer!
