                               Psi4 1.3.2 release

  ==> Input File <==

--------------------------------------------------------------------------
#psi4
#
memory 32 gb

molecule  {
0 1
  O       -0.8411900    -0.2286010    -0.2822800
  C        2.0174600     0.2824600    -0.5354820
  C       -2.1232200    -0.2252560     0.3552070
  C        1.3918360    -0.8685520     0.1861030
  C        2.7655740     1.2103670     0.4230210
  C        0.0733200    -1.0572940     0.3167640
  C       -3.0226980     0.6919650    -0.4518750
  H        2.7145670    -0.0909720    -1.2924960
  H        1.2438280     0.8410150    -1.0636660
  H       -2.5250500    -1.2529680     0.3825710
  H       -2.0263210     0.1331820     1.3936400
  H        2.0401478    -1.5805490     0.6933478
  H        3.2481390     2.0275410    -0.1185540
  H        2.0757450     1.6393580     1.1523020
  H        3.5397370     0.6653480     0.9697790
  H       -0.3482160    -1.8932280     0.8773390
  H       -4.0255760     0.7295450    -0.0161740
  H       -2.6128620     1.7059100    -0.4684560
  H       -3.0981720     0.3293290    -1.4847820
units angstrom
no_reorient  #important for SAPT in psi4, default
symmetry c1  #important for SAPT in psi4, default
}

set PROPERTIES_ORIGIN ["COM"]
properties('MP2/aug-cc-pvtz', properties = ['dipole'])
--------------------------------------------------------------------------

    Molecular point group: c1
  Charge       = 0
  Multiplicity = 1
  Basis Set: AUG-CC-PVTZ
    Blend: AUG-CC-PVTZ
  Basis Set: (AUG-CC-PVTZ AUX)
    Blend: AUG-CC-PVTZ-JKFIT

    Orbital Energies [Eh]
    ---------------------

    Doubly Occupied:

       1A    -20.572128     2A    -11.286480     3A    -11.278197
       4A    -11.221115     5A    -11.214810     6A    -11.213517
       7A    -11.207542     8A     -1.393165     9A     -1.074722
      10A     -1.025072    11A     -0.966743    12A     -0.851420
      13A     -0.841523    14A     -0.754639    15A     -0.683591
      16A     -0.654395    17A     -0.642552    18A     -0.597429
      19A     -0.560388    20A     -0.557059    21A     -0.542101
      22A     -0.527641    23A     -0.509665    24A     -0.501692
      25A     -0.478974    26A     -0.473985    27A     -0.463718
      28A     -0.325557

  @DF-RHF Final Energy:  -309.14086978421079

   => Energetics <=

    Nuclear Repulsion Energy =            302.1372692195971581
    One-Electron Energy =               -1017.7166384387830931
    Two-Electron Energy =                 406.4384994349751992
    Total Energy =                       -309.1408697842107927
  Basis Set: (AUG-CC-PVTZ AUX)
    Blend: AUG-CC-PVTZ-RI
    Molecular point group: c1

    Geometry (in Angstrom), charge = 0, multiplicity = 1:

       Center              X                  Y                   Z               Mass
    ------------   -----------------  -----------------  -----------------  -----------------
         O           -0.841192365586    -0.228868725734    -0.282706439175    15.994914619570
         C            2.017457634414     0.282192274266    -0.535908439175    12.000000000000
         C           -2.123222365586    -0.225523725734     0.354780560825    12.000000000000
         C            1.391833634414    -0.868819725734     0.185676560825    12.000000000000
         C            2.765571634414     1.210099274266     0.422594560825    12.000000000000
         C            0.073317634414    -1.057561725734     0.316337560825    12.000000000000
         C           -3.022700365586     0.691697274266    -0.452301439175    12.000000000000
         H            2.714564634414    -0.091239725734    -1.292922439175     1.007825032230
         H            1.243825634414     0.840747274266    -1.064092439175     1.007825032230
         H           -2.525052365586    -1.253235725734     0.382144560825     1.007825032230
         H           -2.026323365586     0.132914274266     1.393213560825     1.007825032230
         H            2.040145434414    -1.580816725734     0.692921360825     1.007825032230
         H            3.248136634414     2.027273274266    -0.118980439175     1.007825032230
         H            2.075742634414     1.639090274266     1.151875560825     1.007825032230
         H            3.539734634414     0.665080274266     0.969352560825     1.007825032230
         H           -0.348218365586    -1.893495725734     0.876912560825     1.007825032230
         H           -4.025578365586     0.729277274266    -0.016600439175     1.007825032230
         H           -2.612864365586     1.705642274266    -0.468882439175     1.007825032230
         H           -3.098174365586     0.329061274266    -1.485208439175     1.007825032230

  Basis Set: AUG-CC-PVTZ
    Blend: AUG-CC-PVTZ
  Basis Set: (AUG-CC-PVTZ AUX)
    Blend: AUG-CC-PVTZ-JKFIT
	 Reference Energy          =    -309.1408697842107927 [Eh]
	 Singles Energy            =      -0.0000000000000000 [Eh]
	 Same-Spin Energy          =      -0.3138203217185792 [Eh]
	 Opposite-Spin Energy      =      -1.0991842508561551 [Eh]
	 Correlation Energy        =      -1.4130045725747342 [Eh]
	 Total Energy              =    -310.5538743567855136 [Eh]

	 ================> DF-SCS-MP2 Energies <==================
	-----------------------------------------------------------
	 SCS Same-Spin Scale       =       0.3333333333333333 [-]
	 SCS Opposite-Spin Scale   =       1.2000000000000000 [-]
	 SCS Same-Spin Energy      =      -0.1046067739061931 [Eh]
	 SCS Opposite-Spin Energy  =      -1.3190211010273860 [Eh]
	 SCS Correlation Energy    =      -1.4236278749335791 [Eh]
	 SCS Total Energy          =    -310.5644976591443651 [Eh]
	-----------------------------------------------------------

  Dipole Moment: [D]
     X:    -1.0995      Y:    -0.1695      Z:     0.7505     Total:     1.3420

*** Psi4 exiting successfully. Buy a developer a beer!
