                               Psi4 1.3.2 release

  ==> Input File <==

--------------------------------------------------------------------------
#psi4
#
memory 32 gb

molecule  {
0 1
  O       -0.8411900    -0.2286010    -0.2822800
  C        2.0174600     0.2824600    -0.5354820
  C       -2.1232200    -0.2252560     0.3552070
  C        1.3918360    -0.8685520     0.1861030
  C        2.7655740     1.2103670     0.4230210
  C        0.0733200    -1.0572940     0.3167640
  C       -3.0226980     0.6919650    -0.4518750
  H        2.7145670    -0.0909720    -1.2924960
  H        1.2438280     0.8410150    -1.0636660
  H       -2.5250500    -1.2529680     0.3825710
  H       -2.0263210     0.1331820     1.3936400
  H        2.0410991    -1.4741888     0.8627190
  H        3.2481390     2.0275410    -0.1185540
  H        2.0757450     1.6393580     1.1523020
  H        3.5397370     0.6653480     0.9697790
  H       -0.3482160    -1.8932280     0.8773390
  H       -4.0255760     0.7295450    -0.0161740
  H       -2.6128620     1.7059100    -0.4684560
  H       -3.0981720     0.3293290    -1.4847820
units angstrom
no_reorient  #important for SAPT in psi4, default
symmetry c1  #important for SAPT in psi4, default
}

set PROPERTIES_ORIGIN ["COM"]
properties('MP2/aug-cc-pvtz', properties = ['dipole'])
--------------------------------------------------------------------------

    Molecular point group: c1
  Charge       = 0
  Multiplicity = 1
  Basis Set: AUG-CC-PVTZ
    Blend: AUG-CC-PVTZ
  Basis Set: (AUG-CC-PVTZ AUX)
    Blend: AUG-CC-PVTZ-JKFIT

    Orbital Energies [Eh]
    ---------------------

    Doubly Occupied:

       1A    -20.572286     2A    -11.287097     3A    -11.279371
       4A    -11.221455     5A    -11.216369     6A    -11.214744
       7A    -11.208010     8A     -1.393604     9A     -1.074631
      10A     -1.025427    11A     -0.966439    12A     -0.851349
      13A     -0.841934    14A     -0.753405    15A     -0.682991
      16A     -0.654625    17A     -0.641935    18A     -0.596775
      19A     -0.558049    20A     -0.556671    21A     -0.541746
      22A     -0.527861    23A     -0.509386    24A     -0.502016
      25A     -0.479282    26A     -0.475340    27A     -0.462887
      28A     -0.325130

  @DF-RHF Final Energy:  -309.13749608676665

   => Energetics <=

    Nuclear Repulsion Energy =            302.0841958647266097
    One-Electron Energy =               -1017.6017500574929500
    Two-Electron Energy =                 406.3800581059996375
    Total Energy =                       -309.1374960867666459
  Basis Set: (AUG-CC-PVTZ AUX)
    Blend: AUG-CC-PVTZ-RI
    Molecular point group: c1

    Geometry (in Angstrom), charge = 0, multiplicity = 1:

       Center              X                  Y                   Z               Mass
    ------------   -----------------  -----------------  -----------------  -----------------
         O           -0.841201944518    -0.229939699269    -0.284411889830    15.994914619570
         C            2.017448055482     0.281121300731    -0.537613889830    12.000000000000
         C           -2.123231944518    -0.226594699269     0.353075110170    12.000000000000
         C            1.391824055482    -0.869890699269     0.183971110170    12.000000000000
         C            2.765562055482     1.209028300731     0.420889110170    12.000000000000
         C            0.073308055482    -1.058632699269     0.314632110170    12.000000000000
         C           -3.022709944518     0.690626300731    -0.454006889830    12.000000000000
         H            2.714555055482    -0.092310699269    -1.294627889830     1.007825032230
         H            1.243816055482     0.839676300731    -1.065797889830     1.007825032230
         H           -2.525061944518    -1.254306699269     0.380439110170     1.007825032230
         H           -2.026332944518     0.131843300731     1.391508110170     1.007825032230
         H            2.041087155482    -1.475527499269     0.860587110170     1.007825032230
         H            3.248127055482     2.026202300731    -0.120685889830     1.007825032230
         H            2.075733055482     1.638019300731     1.150170110170     1.007825032230
         H            3.539725055482     0.664009300731     0.967647110170     1.007825032230
         H           -0.348227944518    -1.894566699269     0.875207110170     1.007825032230
         H           -4.025587944518     0.728206300731    -0.018305889830     1.007825032230
         H           -2.612873944518     1.704571300731    -0.470587889830     1.007825032230
         H           -3.098183944518     0.327990300731    -1.486913889830     1.007825032230

  Basis Set: AUG-CC-PVTZ
    Blend: AUG-CC-PVTZ
  Basis Set: (AUG-CC-PVTZ AUX)
    Blend: AUG-CC-PVTZ-JKFIT
	 Reference Energy          =    -309.1374960867666459 [Eh]
	 Singles Energy            =      -0.0000000000000000 [Eh]
	 Same-Spin Energy          =      -0.3139953310719824 [Eh]
	 Opposite-Spin Energy      =      -1.0996005829585127 [Eh]
	 Correlation Energy        =      -1.4135959140304952 [Eh]
	 Total Energy              =    -310.5510920007971549 [Eh]

	 ================> DF-SCS-MP2 Energies <==================
	-----------------------------------------------------------
	 SCS Same-Spin Scale       =       0.3333333333333333 [-]
	 SCS Opposite-Spin Scale   =       1.2000000000000000 [-]
	 SCS Same-Spin Energy      =      -0.1046651103573275 [Eh]
	 SCS Opposite-Spin Energy  =      -1.3195206995502151 [Eh]
	 SCS Correlation Energy    =      -1.4241858099075426 [Eh]
	 SCS Total Energy          =    -310.5616818966742017 [Eh]
	-----------------------------------------------------------

  Dipole Moment: [D]
     X:    -1.1405      Y:    -0.0733      Z:     0.8350     Total:     1.4154

*** Psi4 exiting successfully. Buy a developer a beer!
