                               Psi4 1.3.2 release

  ==> Input File <==

--------------------------------------------------------------------------
#psi4
#
memory 32 gb

molecule  {
0 1
  O       -0.8411900    -0.2286010    -0.2822800
  C        2.0174600     0.2824600    -0.5354820
  C       -2.1232200    -0.2252560     0.3552070
  C        1.3918360    -0.8685520     0.1861030
  C        2.7655740     1.2103670     0.4230210
  C        0.0733200    -1.0572940     0.3167640
  C       -3.0226980     0.6919650    -0.4518750
  H        2.7145670    -0.0909720    -1.2924960
  H        1.2438280     0.8410150    -1.0636660
  H       -2.5250500    -1.2529680     0.3825710
  H       -2.0263210     0.1331820     1.3936400
  H        2.0408613    -1.5007788     0.8203762
  H        3.2481390     2.0275410    -0.1185540
  H        2.0757450     1.6393580     1.1523020
  H        3.5397370     0.6653480     0.9697790
  H       -0.3482160    -1.8932280     0.8773390
  H       -4.0255760     0.7295450    -0.0161740
  H       -2.6128620     1.7059100    -0.4684560
  H       -3.0981720     0.3293290    -1.4847820
units angstrom
no_reorient  #important for SAPT in psi4, default
symmetry c1  #important for SAPT in psi4, default
}

set PROPERTIES_ORIGIN ["COM"]
properties('MP2/aug-cc-pvtz', properties = ['dipole'])
--------------------------------------------------------------------------

    Molecular point group: c1
  Charge       = 0
  Multiplicity = 1
  Basis Set: AUG-CC-PVTZ
    Blend: AUG-CC-PVTZ
  Basis Set: (AUG-CC-PVTZ AUX)
    Blend: AUG-CC-PVTZ-JKFIT

    Orbital Energies [Eh]
    ---------------------

    Doubly Occupied:

       1A    -20.572133     2A    -11.286886     3A    -11.278918
       4A    -11.221328     5A    -11.215503     6A    -11.214627
       7A    -11.207914     8A     -1.393392     9A     -1.074683
      10A     -1.025307    11A     -0.966537    12A     -0.851355
      13A     -0.841799    14A     -0.753915    15A     -0.683133
      16A     -0.654501    17A     -0.642249    18A     -0.596897
      19A     -0.558396    20A     -0.557191    21A     -0.541811
      22A     -0.527988    23A     -0.509499    24A     -0.501904
      25A     -0.479190    26A     -0.475086    27A     -0.463133
      28A     -0.325257

  @DF-RHF Final Energy:  -309.13888148528611

   => Energetics <=

    Nuclear Repulsion Energy =            302.1093189464676243
    One-Electron Energy =               -1017.6553374403783891
    Two-Electron Energy =                 406.4071370086246588
    Total Energy =                       -309.1388814852861060
  Basis Set: (AUG-CC-PVTZ AUX)
    Blend: AUG-CC-PVTZ-RI
    Molecular point group: c1

    Geometry (in Angstrom), charge = 0, multiplicity = 1:

       Center              X                  Y                   Z               Mass
    ------------   -----------------  -----------------  -----------------  -----------------
         O           -0.841199550036    -0.229671956389    -0.283985527166    15.994914619570
         C            2.017450449964     0.281389043611    -0.537187527166    12.000000000000
         C           -2.123229550036    -0.226326956389     0.353501472834    12.000000000000
         C            1.391826449964    -0.869622956389     0.184397472834    12.000000000000
         C            2.765564449964     1.209296043611     0.421315472834    12.000000000000
         C            0.073310449964    -1.058364956389     0.315058472834    12.000000000000
         C           -3.022707550036     0.690894043611    -0.453580527166    12.000000000000
         H            2.714557449964    -0.092042956389    -1.294201527166     1.007825032230
         H            1.243818449964     0.839944043611    -1.065371527166     1.007825032230
         H           -2.525059550036    -1.254038956389     0.380865472834     1.007825032230
         H           -2.026330550036     0.132111043611     1.391934472834     1.007825032230
         H            2.040851749964    -1.501849756389     0.818670672834     1.007825032230
         H            3.248129449964     2.026470043611    -0.120259527166     1.007825032230
         H            2.075735449964     1.638287043611     1.150596472834     1.007825032230
         H            3.539727449964     0.664277043611     0.968073472834     1.007825032230
         H           -0.348225550036    -1.894298956389     0.875633472834     1.007825032230
         H           -4.025585550036     0.728474043611    -0.017879527166     1.007825032230
         H           -2.612871550036     1.704839043611    -0.470161527166     1.007825032230
         H           -3.098181550036     0.328258043611    -1.486487527166     1.007825032230

  Basis Set: AUG-CC-PVTZ
    Blend: AUG-CC-PVTZ
  Basis Set: (AUG-CC-PVTZ AUX)
    Blend: AUG-CC-PVTZ-JKFIT
	 Reference Energy          =    -309.1388814852861060 [Eh]
	 Singles Energy            =      -0.0000000000000000 [Eh]
	 Same-Spin Energy          =      -0.3139263558496008 [Eh]
	 Opposite-Spin Energy      =      -1.0994272021186760 [Eh]
	 Correlation Energy        =      -1.4133535579682768 [Eh]
	 Total Energy              =    -310.5522350432543703 [Eh]

	 ================> DF-SCS-MP2 Energies <==================
	-----------------------------------------------------------
	 SCS Same-Spin Scale       =       0.3333333333333333 [-]
	 SCS Opposite-Spin Scale   =       1.2000000000000000 [-]
	 SCS Same-Spin Energy      =      -0.1046421186165336 [Eh]
	 SCS Opposite-Spin Energy  =      -1.3193126425424111 [Eh]
	 SCS Correlation Energy    =      -1.4239547611589447 [Eh]
	 SCS Total Energy          =    -310.5628362464450447 [Eh]
	-----------------------------------------------------------

  Dipole Moment: [D]
     X:    -1.1241      Y:    -0.0996      Z:     0.8165     Total:     1.3929

*** Psi4 exiting successfully. Buy a developer a beer!
