                               Psi4 1.3.2 release

  ==> Input File <==

--------------------------------------------------------------------------
#psi4
#
memory 32 gb

molecule  {
0 1
  O       -0.8411900    -0.2286010    -0.2822800
  C        2.0174600     0.2824600    -0.5354820
  C       -2.1232200    -0.2252560     0.3552070
  C        1.3918360    -0.8685520     0.1861030
  C        2.7655740     1.2103670     0.4230210
  C        0.0733200    -1.0572940     0.3167640
  C       -3.0226980     0.6919650    -0.4518750
  H        2.7145670    -0.0909720    -1.2924960
  H        1.2438280     0.8410150    -1.0636660
  H       -2.5250500    -1.2529680     0.3825710
  H       -2.0263210     0.1331820     1.3936400
  H        2.0399100    -1.6071390     0.6510050
  H        3.2481390     2.0275410    -0.1185540
  H        2.0757450     1.6393580     1.1523020
  H        3.5397370     0.6653480     0.9697790
  H       -0.3473081    -1.9502046     0.7951633
  H       -4.0255760     0.7295450    -0.0161740
  H       -2.6128620     1.7059100    -0.4684560
  H       -3.0981720     0.3293290    -1.4847820
units angstrom
no_reorient  #important for SAPT in psi4, default
symmetry c1  #important for SAPT in psi4, default
}

set PROPERTIES_ORIGIN ["COM"]
properties('MP2/aug-cc-pvtz', properties = ['dipole'])
--------------------------------------------------------------------------

    Molecular point group: c1
  Charge       = 0
  Multiplicity = 1
  Basis Set: AUG-CC-PVTZ
    Blend: AUG-CC-PVTZ
  Basis Set: (AUG-CC-PVTZ AUX)
    Blend: AUG-CC-PVTZ-JKFIT

    Orbital Energies [Eh]
    ---------------------

    Doubly Occupied:

       1A    -20.571952     2A    -11.286087     3A    -11.278320
       4A    -11.220891     5A    -11.215063     6A    -11.213976
       7A    -11.207338     8A     -1.392907     9A     -1.074827
      10A     -1.024924    11A     -0.966691    12A     -0.851457
      13A     -0.840691    14A     -0.754158    15A     -0.684117
      16A     -0.652475    17A     -0.642571    18A     -0.597486
      19A     -0.561010    20A     -0.558389    21A     -0.541064
      22A     -0.527091    23A     -0.509948    24A     -0.501464
      25A     -0.479249    26A     -0.473442    27A     -0.462074
      28A     -0.326397

  @DF-RHF Final Energy:  -309.14042272039563

   => Energetics <=

    Nuclear Repulsion Energy =            302.0833558007064426
    One-Electron Energy =               -1017.6154427840938297
    Two-Electron Energy =                 406.3916642629918101
    Total Energy =                       -309.1404227203956339
  Basis Set: (AUG-CC-PVTZ AUX)
    Blend: AUG-CC-PVTZ-RI
    Molecular point group: c1

    Geometry (in Angstrom), charge = 0, multiplicity = 1:

       Center              X                  Y                   Z               Mass
    ------------   -----------------  -----------------  -----------------  -----------------
         O           -0.841199113028    -0.228027267962    -0.281452624138    15.994914619570
         C            2.017450886972     0.283033732038    -0.534654624138    12.000000000000
         C           -2.123229113028    -0.224682267962     0.356034375862    12.000000000000
         C            1.391826886972    -0.867978267962     0.186930375862    12.000000000000
         C            2.765564886972     1.210940732038     0.423848375862    12.000000000000
         C            0.073310886972    -1.056720267962     0.317591375862    12.000000000000
         C           -3.022707113028     0.692538732038    -0.451047624138    12.000000000000
         H            2.714557886972    -0.090398267962    -1.291668624138     1.007825032230
         H            1.243818886972     0.841588732038    -1.062838624138     1.007825032230
         H           -2.525059113028    -1.252394267962     0.383398375862     1.007825032230
         H           -2.026330113028     0.133755732038     1.394467375862     1.007825032230
         H            2.039900886972    -1.606565267962     0.651832375862     1.007825032230
         H            3.248129886972     2.028114732038    -0.117726624138     1.007825032230
         H            2.075735886972     1.639931732038     1.153129375862     1.007825032230
         H            3.539727886972     0.665921732038     0.970606375862     1.007825032230
         H           -0.347317213028    -1.949630867962     0.795990675862     1.007825032230
         H           -4.025585113028     0.730118732038    -0.015346624138     1.007825032230
         H           -2.612871113028     1.706483732038    -0.467628624138     1.007825032230
         H           -3.098181113028     0.329902732038    -1.483954624138     1.007825032230

  Basis Set: AUG-CC-PVTZ
    Blend: AUG-CC-PVTZ
  Basis Set: (AUG-CC-PVTZ AUX)
    Blend: AUG-CC-PVTZ-JKFIT
	 Reference Energy          =    -309.1404227203956339 [Eh]
	 Singles Energy            =      -0.0000000000000000 [Eh]
	 Same-Spin Energy          =      -0.3138222635595618 [Eh]
	 Opposite-Spin Energy      =      -1.0992491577896617 [Eh]
	 Correlation Energy        =      -1.4130714213492235 [Eh]
	 Total Energy              =    -310.5534941417448636 [Eh]

	 ================> DF-SCS-MP2 Energies <==================
	-----------------------------------------------------------
	 SCS Same-Spin Scale       =       0.3333333333333333 [-]
	 SCS Opposite-Spin Scale   =       1.2000000000000000 [-]
	 SCS Same-Spin Energy      =      -0.1046074211865206 [Eh]
	 SCS Opposite-Spin Energy  =      -1.3190989893475940 [Eh]
	 SCS Correlation Energy    =      -1.4237064105341146 [Eh]
	 SCS Total Energy          =    -310.5641291309297571 [Eh]
	-----------------------------------------------------------

  Dipole Moment: [D]
     X:    -1.0712      Y:    -0.2230      Z:     0.6650     Total:     1.2804

*** Psi4 exiting successfully. Buy a developer a beer!
