                               Psi4 1.3.2 release

  ==> Input File <==

--------------------------------------------------------------------------
#psi4
#
memory 32 gb

molecule  {
0 1
  O       -0.8411900    -0.2286010    -0.2822800
  C        2.0174600     0.2824600    -0.5354820
  C       -2.1232200    -0.2252560     0.3552070
  C        1.3918360    -0.8685520     0.1861030
  C        2.7655740     1.2103670     0.4230210
  C        0.0733200    -1.0572940     0.3167640
  C       -3.0226980     0.6919650    -0.4518750
  H        2.7145670    -0.0909720    -1.2924960
  H        1.2438280     0.8410150    -1.0636660
  H       -2.5250500    -1.2529680     0.3825710
  H       -2.0263210     0.1331820     1.3936400
  H        2.0399100    -1.6071390     0.6510050
  H        3.2481390     2.0275410    -0.1185540
  H        2.0757450     1.6393580     1.1523020
  H        3.5397370     0.6653480     0.9697790
  H       -0.3477620    -1.9217163     0.8362512
  H       -4.0255760     0.7295450    -0.0161740
  H       -2.6128620     1.7059100    -0.4684560
  H       -3.0981720     0.3293290    -1.4847820
units angstrom
no_reorient  #important for SAPT in psi4, default
symmetry c1  #important for SAPT in psi4, default
}

set PROPERTIES_ORIGIN ["COM"]
properties('MP2/aug-cc-pvtz', properties = ['dipole'])
--------------------------------------------------------------------------

    Molecular point group: c1
  Charge       = 0
  Multiplicity = 1
  Basis Set: AUG-CC-PVTZ
    Blend: AUG-CC-PVTZ
  Basis Set: (AUG-CC-PVTZ AUX)
    Blend: AUG-CC-PVTZ-JKFIT

    Orbital Energies [Eh]
    ---------------------

    Doubly Occupied:

       1A    -20.572122     2A    -11.286268     3A    -11.278150
       4A    -11.221005     5A    -11.214878     6A    -11.213622
       7A    -11.207342     8A     -1.393077     9A     -1.074743
      10A     -1.024982    11A     -0.966739    12A     -0.851461
      13A     -0.841130    14A     -0.754417    15A     -0.684056
      16A     -0.653519    17A     -0.642488    18A     -0.597556
      19A     -0.560856    20A     -0.557747    21A     -0.541663
      22A     -0.527224    23A     -0.509801    24A     -0.501569
      25A     -0.479069    26A     -0.473471    27A     -0.463041
      28A     -0.326011

  @DF-RHF Final Energy:  -309.14082341382044

   => Energetics <=

    Nuclear Repulsion Energy =            302.1111291524757121
    One-Electron Energy =               -1017.6678880544837966
    Two-Electron Energy =                 406.4159354881876993
    Total Energy =                       -309.1408234138204421
  Basis Set: (AUG-CC-PVTZ AUX)
    Blend: AUG-CC-PVTZ-RI
    Molecular point group: c1

    Geometry (in Angstrom), charge = 0, multiplicity = 1:

       Center              X                  Y                   Z               Mass
    ------------   -----------------  -----------------  -----------------  -----------------
         O           -0.841194542570    -0.228314125408    -0.281866350828    15.994914619570
         C            2.017455457430     0.282746874592    -0.535068350828    12.000000000000
         C           -2.123224542570    -0.224969125408     0.355620649172    12.000000000000
         C            1.391831457430    -0.868265125408     0.186516649172    12.000000000000
         C            2.765569457430     1.210653874592     0.423434649172    12.000000000000
         C            0.073315457430    -1.057007125408     0.317177649172    12.000000000000
         C           -3.022702542570     0.692251874592    -0.451461350828    12.000000000000
         H            2.714562457430    -0.090685125408    -1.292082350828     1.007825032230
         H            1.243823457430     0.841301874592    -1.063252350828     1.007825032230
         H           -2.525054542570    -1.252681125408     0.382984649172     1.007825032230
         H           -2.026325542570     0.133468874592     1.394053649172     1.007825032230
         H            2.039905457430    -1.606852125408     0.651418649172     1.007825032230
         H            3.248134457430     2.027827874592    -0.118140350828     1.007825032230
         H            2.075740457430     1.639644874592     1.152715649172     1.007825032230
         H            3.539732457430     0.665634874592     0.970192649172     1.007825032230
         H           -0.347766542570    -1.921429425408     0.836664849172     1.007825032230
         H           -4.025580542570     0.729831874592    -0.015760350828     1.007825032230
         H           -2.612866542570     1.706196874592    -0.468042350828     1.007825032230
         H           -3.098176542570     0.329615874592    -1.484368350828     1.007825032230

  Basis Set: AUG-CC-PVTZ
    Blend: AUG-CC-PVTZ
  Basis Set: (AUG-CC-PVTZ AUX)
    Blend: AUG-CC-PVTZ-JKFIT
	 Reference Energy          =    -309.1408234138204421 [Eh]
	 Singles Energy            =      -0.0000000000000000 [Eh]
	 Same-Spin Energy          =      -0.3138113650103276 [Eh]
	 Opposite-Spin Energy      =      -1.0991946373318129 [Eh]
	 Correlation Energy        =      -1.4130060023421405 [Eh]
	 Total Energy              =    -310.5538294161625572 [Eh]

	 ================> DF-SCS-MP2 Energies <==================
	-----------------------------------------------------------
	 SCS Same-Spin Scale       =       0.3333333333333333 [-]
	 SCS Opposite-Spin Scale   =       1.2000000000000000 [-]
	 SCS Same-Spin Energy      =      -0.1046037883367759 [Eh]
	 SCS Opposite-Spin Energy  =      -1.3190335647981755 [Eh]
	 SCS Correlation Energy    =      -1.4236373531349513 [Eh]
	 SCS Total Energy          =    -310.5644607669553920 [Eh]
	-----------------------------------------------------------

  Dipole Moment: [D]
     X:    -1.0875      Y:    -0.2078      Z:     0.6959     Total:     1.3077

*** Psi4 exiting successfully. Buy a developer a beer!
