                               Psi4 1.3.2 release

  ==> Input File <==

--------------------------------------------------------------------------
#psi4
#
memory 32 gb

molecule  {
0 1
  O       -0.8411900    -0.2286010    -0.2822800
  C        2.0174600     0.2824600    -0.5354820
  C       -2.1232200    -0.2252560     0.3552070
  C        1.3918360    -0.8685520     0.1861030
  C        2.7655740     1.2103670     0.4230210
  C        0.0733200    -1.0572940     0.3167640
  C       -3.0226980     0.6919650    -0.4518750
  H        2.7145670    -0.0909720    -1.2924960
  H        1.2438280     0.8410150    -1.0636660
  H       -2.5250500    -1.2529680     0.3825710
  H       -2.0263210     0.1331820     1.3936400
  H        2.0413369    -1.4475987     0.9050618
  H        3.2481390     2.0275410    -0.1185540
  H        2.0757450     1.6393580     1.1523020
  H        3.5397370     0.6653480     0.9697790
  H       -0.3482160    -1.8932280     0.8773390
  H       -4.0255760     0.7295450    -0.0161740
  H       -2.6128620     1.7059100    -0.4684560
  H       -3.0981720     0.3293290    -1.4847820
units angstrom
no_reorient  #important for SAPT in psi4, default
symmetry c1  #important for SAPT in psi4, default
}

set PROPERTIES_ORIGIN ["COM"]
properties('MP2/aug-cc-pvtz', properties = ['dipole'])
--------------------------------------------------------------------------

    Molecular point group: c1
  Charge       = 0
  Multiplicity = 1
  Basis Set: AUG-CC-PVTZ
    Blend: AUG-CC-PVTZ
  Basis Set: (AUG-CC-PVTZ AUX)
    Blend: AUG-CC-PVTZ-JKFIT

    Orbital Energies [Eh]
    ---------------------

    Doubly Occupied:

       1A    -20.572510     2A    -11.287343     3A    -11.279925
       4A    -11.221609     5A    -11.217478     6A    -11.214799
       7A    -11.208093     8A     -1.393881     9A     -1.074566
      10A     -1.025568    11A     -0.966335    12A     -0.851356
      13A     -0.842091    14A     -0.752797    15A     -0.682871
      16A     -0.654792    17A     -0.641527    18A     -0.596684
      19A     -0.558127    20A     -0.555665    21A     -0.541698
      22A     -0.527567    23A     -0.509246    24A     -0.502146
      25A     -0.479383    26A     -0.475535    27A     -0.462600
      28A     -0.324993

  @DF-RHF Final Energy:  -309.13567787215942

   => Energetics <=

    Nuclear Repulsion Energy =            302.0518788021414025
    One-Electron Energy =               -1017.5327419266728839
    Two-Electron Energy =                 406.3451852523720049
    Total Energy =                       -309.1356778721594196
  Basis Set: (AUG-CC-PVTZ AUX)
    Blend: AUG-CC-PVTZ-RI
    Molecular point group: c1

    Geometry (in Angstrom), charge = 0, multiplicity = 1:

       Center              X                  Y                   Z               Mass
    ------------   -----------------  -----------------  -----------------  -----------------
         O           -0.841204338999    -0.230207443156    -0.284838252494    15.994914619570
         C            2.017445661001     0.280853556844    -0.538040252494    12.000000000000
         C           -2.123234338999    -0.226862443156     0.352648747506    12.000000000000
         C            1.391821661001    -0.870158443156     0.183544747506    12.000000000000
         C            2.765559661001     1.208760556844     0.420462747506    12.000000000000
         C            0.073305661001    -1.058900443156     0.314205747506    12.000000000000
         C           -3.022712338999     0.690358556844    -0.454433252494    12.000000000000
         H            2.714552661001    -0.092578443156    -1.295054252494     1.007825032230
         H            1.243813661001     0.839408556844    -1.066224252494     1.007825032230
         H           -2.525064338999    -1.254574443156     0.380012747506     1.007825032230
         H           -2.026335338999     0.131575556844     1.391081747506     1.007825032230
         H            2.041322561001    -1.449205143156     0.902503547506     1.007825032230
         H            3.248124661001     2.025934556844    -0.121112252494     1.007825032230
         H            2.075730661001     1.637751556844     1.149743747506     1.007825032230
         H            3.539722661001     0.663741556844     0.967220747506     1.007825032230
         H           -0.348230338999    -1.894834443156     0.874780747506     1.007825032230
         H           -4.025590338999     0.727938556844    -0.018732252494     1.007825032230
         H           -2.612876338999     1.704303556844    -0.471014252494     1.007825032230
         H           -3.098186338999     0.327722556844    -1.487340252494     1.007825032230

  Basis Set: AUG-CC-PVTZ
    Blend: AUG-CC-PVTZ
  Basis Set: (AUG-CC-PVTZ AUX)
    Blend: AUG-CC-PVTZ-JKFIT
	 Reference Energy          =    -309.1356778721594196 [Eh]
	 Singles Energy            =      -0.0000000000000000 [Eh]
	 Same-Spin Energy          =      -0.3140802080515293 [Eh]
	 Opposite-Spin Energy      =      -1.0998211158225915 [Eh]
	 Correlation Energy        =      -1.4139013238741207 [Eh]
	 Total Energy              =    -310.5495791960335623 [Eh]

	 ================> DF-SCS-MP2 Energies <==================
	-----------------------------------------------------------
	 SCS Same-Spin Scale       =       0.3333333333333333 [-]
	 SCS Opposite-Spin Scale   =       1.2000000000000000 [-]
	 SCS Same-Spin Energy      =      -0.1046934026838431 [Eh]
	 SCS Opposite-Spin Energy  =      -1.3197853389871097 [Eh]
	 SCS Correlation Energy    =      -1.4244787416709528 [Eh]
	 SCS Total Energy          =    -310.5601566138303724 [Eh]
	-----------------------------------------------------------

  Dipole Moment: [D]
     X:    -1.1607      Y:    -0.0458      Z:     0.8516     Total:     1.4403

*** Psi4 exiting successfully. Buy a developer a beer!
