                               Psi4 1.3.2 release

  ==> Input File <==

--------------------------------------------------------------------------
#psi4
#
memory 32 gb

molecule  {
0 1
  O       -0.8411900    -0.2286010    -0.2822800
  C        2.0174600     0.2824600    -0.5354820
  C       -2.1232200    -0.2252560     0.3552070
  C        1.3918360    -0.8685520     0.1861030
  C        2.7655740     1.2103670     0.4230210
  C        0.0733200    -1.0572940     0.3167640
  C       -3.0226980     0.6919650    -0.4518750
  H        2.7145670    -0.0909720    -1.2924960
  H        1.2438280     0.8410150    -1.0636660
  H       -2.5250500    -1.2529680     0.3825710
  H       -2.0263210     0.1331820     1.3936400
  H        2.0399100    -1.6071390     0.6510050
  H        3.2481390     2.0275410    -0.1185540
  H        2.0757450     1.6393580     1.1523020
  H        3.5397370     0.6653480     0.9697790
  H       -0.3454922    -2.0641579     0.6308120
  H       -4.0255760     0.7295450    -0.0161740
  H       -2.6128620     1.7059100    -0.4684560
  H       -3.0981720     0.3293290    -1.4847820
units angstrom
no_reorient  #important for SAPT in psi4, default
symmetry c1  #important for SAPT in psi4, default
}

set PROPERTIES_ORIGIN ["COM"]
properties('MP2/aug-cc-pvtz', properties = ['dipole'])
--------------------------------------------------------------------------

    Molecular point group: c1
  Charge       = 0
  Multiplicity = 1
  Basis Set: AUG-CC-PVTZ
    Blend: AUG-CC-PVTZ
  Basis Set: (AUG-CC-PVTZ AUX)
    Blend: AUG-CC-PVTZ-JKFIT

    Orbital Energies [Eh]
    ---------------------

    Doubly Occupied:

       1A    -20.571261     2A    -11.285136     3A    -11.280905
       4A    -11.220300     5A    -11.216757     6A    -11.215911
       7A    -11.207753     8A     -1.392121     9A     -1.075468
      10A     -1.024675    11A     -0.966403    12A     -0.851338
      13A     -0.838302    14A     -0.752186    15A     -0.682060
      16A     -0.647245    17A     -0.643016    18A     -0.597405
      19A     -0.562071    20A     -0.559917    21A     -0.538545
      22A     -0.526548    23A     -0.510450    24A     -0.501017
      25A     -0.480056    26A     -0.473741    27A     -0.456760
      28A     -0.327885

  @DF-RHF Final Energy:  -309.13519317848056

   => Energetics <=

    Nuclear Repulsion Energy =            301.8878780982287822
    One-Electron Energy =               -1017.2356782431163538
    Two-Electron Energy =                 406.2126069664069519
    Total Energy =                       -309.1351931784805629
  Basis Set: (AUG-CC-PVTZ AUX)
    Blend: AUG-CC-PVTZ-RI
    Molecular point group: c1

    Geometry (in Angstrom), charge = 0, multiplicity = 1:

       Center              X                  Y                   Z               Mass
    ------------   -----------------  -----------------  -----------------  -----------------
         O           -0.841217397883    -0.226879837170    -0.279797720399    15.994914619570
         C            2.017432602117     0.284181162830    -0.532999720399    12.000000000000
         C           -2.123247397883    -0.223534837170     0.357689279601    12.000000000000
         C            1.391808602117    -0.866830837170     0.188585279601    12.000000000000
         C            2.765546602117     1.212088162830     0.425503279601    12.000000000000
         C            0.073292602117    -1.055572837170     0.319246279601    12.000000000000
         C           -3.022725397883     0.693686162830    -0.449392720399    12.000000000000
         H            2.714539602117    -0.089250837170    -1.290013720399     1.007825032230
         H            1.243800602117     0.842736162830    -1.061183720399     1.007825032230
         H           -2.525077397883    -1.251246837170     0.385053279601     1.007825032230
         H           -2.026348397883     0.134903162830     1.396122279601     1.007825032230
         H            2.039882602117    -1.605417837170     0.653487279601     1.007825032230
         H            3.248111602117     2.029262162830    -0.116071720399     1.007825032230
         H            2.075717602117     1.641079162830     1.154784279601     1.007825032230
         H            3.539709602117     0.667069162830     0.972261279601     1.007825032230
         H           -0.345519597883    -2.062436737170     0.633294279601     1.007825032230
         H           -4.025603397883     0.731266162830    -0.013691720399     1.007825032230
         H           -2.612889397883     1.707631162830    -0.465973720399     1.007825032230
         H           -3.098199397883     0.331050162830    -1.482299720399     1.007825032230

  Basis Set: AUG-CC-PVTZ
    Blend: AUG-CC-PVTZ
  Basis Set: (AUG-CC-PVTZ AUX)
    Blend: AUG-CC-PVTZ-JKFIT
	 Reference Energy          =    -309.1351931784805629 [Eh]
	 Singles Energy            =      -0.0000000000000000 [Eh]
	 Same-Spin Energy          =      -0.3140476547522164 [Eh]
	 Opposite-Spin Energy      =      -1.0999859953873947 [Eh]
	 Correlation Energy        =      -1.4140336501396111 [Eh]
	 Total Energy              =    -310.5492268286201920 [Eh]

	 ================> DF-SCS-MP2 Energies <==================
	-----------------------------------------------------------
	 SCS Same-Spin Scale       =       0.3333333333333333 [-]
	 SCS Opposite-Spin Scale   =       1.2000000000000000 [-]
	 SCS Same-Spin Energy      =      -0.1046825515840721 [Eh]
	 SCS Opposite-Spin Energy  =      -1.3199831944648737 [Eh]
	 SCS Correlation Energy    =      -1.4246657460489458 [Eh]
	 SCS Total Energy          =    -310.5598589245295216 [Eh]
	-----------------------------------------------------------

  Dipole Moment: [D]
     X:    -0.9738      Y:    -0.2508      Z:     0.5318     Total:     1.1376

*** Psi4 exiting successfully. Buy a developer a beer!
