                               Psi4 1.3.2 release

  ==> Input File <==

--------------------------------------------------------------------------
#psi4
#
memory 32 gb

molecule  {
0 1
  O       -0.8411900    -0.2286010    -0.2822800
  C        2.0174600     0.2824600    -0.5354820
  C       -2.1232200    -0.2252560     0.3552070
  C        1.3918360    -0.8685520     0.1861030
  C        2.7655740     1.2103670     0.4230210
  C        0.0733200    -1.0572940     0.3167640
  C       -3.0226980     0.6919650    -0.4518750
  H        2.7145670    -0.0909720    -1.2924960
  H        1.2438280     0.8410150    -1.0636660
  H       -2.5250500    -1.2529680     0.3825710
  H       -2.0263210     0.1331820     1.3936400
  H        2.0399100    -1.6071390     0.6510050
  H        3.2481390     2.0275410    -0.1185540
  H        2.0757450     1.6393580     1.1523020
  H        3.5397370     0.6653480     0.9697790
  H       -0.3468541    -1.9786930     0.7540755
  H       -4.0255760     0.7295450    -0.0161740
  H       -2.6128620     1.7059100    -0.4684560
  H       -3.0981720     0.3293290    -1.4847820
units angstrom
no_reorient  #important for SAPT in psi4, default
symmetry c1  #important for SAPT in psi4, default
}

set PROPERTIES_ORIGIN ["COM"]
properties('MP2/aug-cc-pvtz', properties = ['dipole'])
--------------------------------------------------------------------------

    Molecular point group: c1
  Charge       = 0
  Multiplicity = 1
  Basis Set: AUG-CC-PVTZ
    Blend: AUG-CC-PVTZ
  Basis Set: (AUG-CC-PVTZ AUX)
    Blend: AUG-CC-PVTZ-JKFIT

    Orbital Energies [Eh]
    ---------------------

    Doubly Occupied:

       1A    -20.571776     2A    -11.285880     3A    -11.278685
       4A    -11.220762     5A    -11.215317     6A    -11.214413
       7A    -11.207378     8A     -1.392722     9A     -1.074940
      10A     -1.024864    11A     -0.966628    12A     -0.851440
      13A     -0.840170    14A     -0.753792    15A     -0.683923
      16A     -0.651316    17A     -0.642676    18A     -0.597438
      19A     -0.561226    20A     -0.558914    21A     -0.540444
      22A     -0.526955    23A     -0.510090    24A     -0.501354
      25A     -0.479449    26A     -0.473447    27A     -0.460966
      28A     -0.326776

  @DF-RHF Final Energy:  -309.13969520579303

   => Energetics <=

    Nuclear Repulsion Energy =            302.0467471330145486
    One-Electron Energy =               -1017.5454104999867013
    Two-Electron Energy =                 406.3589681611790638
    Total Energy =                       -309.1396952057930321
  Basis Set: (AUG-CC-PVTZ AUX)
    Blend: AUG-CC-PVTZ-RI
    Molecular point group: c1

    Geometry (in Angstrom), charge = 0, multiplicity = 1:

       Center              X                  Y                   Z               Mass
    ------------   -----------------  -----------------  -----------------  -----------------
         O           -0.841203684494    -0.227740409509    -0.281038898455    15.994914619570
         C            2.017446315506     0.283320590491    -0.534240898455    12.000000000000
         C           -2.123233684494    -0.224395409509     0.356448101545    12.000000000000
         C            1.391822315506    -0.867691409509     0.187344101545    12.000000000000
         C            2.765560315506     1.211227590491     0.424262101545    12.000000000000
         C            0.073306315506    -1.056433409509     0.318005101545    12.000000000000
         C           -3.022711684494     0.692825590491    -0.450633898455    12.000000000000
         H            2.714553315506    -0.090111409509    -1.291254898455     1.007825032230
         H            1.243814315506     0.841875590491    -1.062424898455     1.007825032230
         H           -2.525063684494    -1.252107409509     0.383812101545     1.007825032230
         H           -2.026334684494     0.134042590491     1.394881101545     1.007825032230
         H            2.039896315506    -1.606278409509     0.652246101545     1.007825032230
         H            3.248125315506     2.028401590491    -0.117312898455     1.007825032230
         H            2.075731315506     1.640218590491     1.153543101545     1.007825032230
         H            3.539723315506     0.666208590491     0.971020101545     1.007825032230
         H           -0.346867784494    -1.977832409509     0.755316601545     1.007825032230
         H           -4.025589684494     0.730405590491    -0.014932898455     1.007825032230
         H           -2.612875684494     1.706770590491    -0.467214898455     1.007825032230
         H           -3.098185684494     0.330189590491    -1.483540898455     1.007825032230

  Basis Set: AUG-CC-PVTZ
    Blend: AUG-CC-PVTZ
  Basis Set: (AUG-CC-PVTZ AUX)
    Blend: AUG-CC-PVTZ-JKFIT
	 Reference Energy          =    -309.1396952057930321 [Eh]
	 Singles Energy            =      -0.0000000000000000 [Eh]
	 Same-Spin Energy          =      -0.3138518304059472 [Eh]
	 Opposite-Spin Energy      =      -1.0993553145294448 [Eh]
	 Correlation Energy        =      -1.4132071449353920 [Eh]
	 Total Energy              =    -310.5529023507284023 [Eh]

	 ================> DF-SCS-MP2 Energies <==================
	-----------------------------------------------------------
	 SCS Same-Spin Scale       =       0.3333333333333333 [-]
	 SCS Opposite-Spin Scale   =       1.2000000000000000 [-]
	 SCS Same-Spin Energy      =      -0.1046172768019824 [Eh]
	 SCS Opposite-Spin Energy  =      -1.3192263774353337 [Eh]
	 SCS Correlation Energy    =      -1.4238436542373161 [Eh]
	 SCS Total Energy          =    -310.5635388600303486 [Eh]
	-----------------------------------------------------------

  Dipole Moment: [D]
     X:    -1.0514      Y:    -0.2351      Z:     0.6329     Total:     1.2495

*** Psi4 exiting successfully. Buy a developer a beer!
