                               Psi4 1.3.2 release

  ==> Input File <==

--------------------------------------------------------------------------
#psi4
#
memory 32 gb

molecule  {
0 1
  O       -0.8411900    -0.2286010    -0.2822800
  C        2.0174600     0.2824600    -0.5354820
  C       -2.1232200    -0.2252560     0.3552070
  C        1.3918360    -0.8685520     0.1861030
  C        2.7655740     1.2103670     0.4230210
  C        0.0733200    -1.0572940     0.3167640
  C       -3.0226980     0.6919650    -0.4518750
  H        2.7145670    -0.0909720    -1.2924960
  H        1.2438280     0.8410150    -1.0636660
  H       -2.5250500    -1.2529680     0.3825710
  H       -2.0263210     0.1331820     1.3936400
  H        2.0399100    -1.6071390     0.6510050
  H        3.2481390     2.0275410    -0.1185540
  H        2.0757450     1.6393580     1.1523020
  H        3.5397370     0.6653480     0.9697790
  H       -0.3482160    -1.8932280     0.8773390
  H       -4.0255760     0.7295450    -0.0161740
  H       -2.6128620     1.7059100    -0.4684560
  H       -3.0981720     0.3293290    -1.4847820
units angstrom
no_reorient  #important for SAPT in psi4, default
symmetry c1  #important for SAPT in psi4, default
}

set PROPERTIES_ORIGIN ["COM"]
properties('MP2/aug-cc-pvtz', properties = ['dipole'])
--------------------------------------------------------------------------

    Molecular point group: c1
  Charge       = 0
  Multiplicity = 1
  Basis Set: AUG-CC-PVTZ
    Blend: AUG-CC-PVTZ
  Basis Set: (AUG-CC-PVTZ AUX)
    Blend: AUG-CC-PVTZ-JKFIT

    Orbital Energies [Eh]
    ---------------------

    Doubly Occupied:

       1A    -20.572280     2A    -11.286423     3A    -11.278179
       4A    -11.221102     5A    -11.214756     6A    -11.213363
       7A    -11.207390     8A     -1.393229     9A     -1.074688
      10A     -1.025037    11A     -0.966769    12A     -0.851452
      13A     -0.841475    14A     -0.754564    15A     -0.683724
      16A     -0.654448    17A     -0.642428    18A     -0.597649
      19A     -0.560764    20A     -0.556993    21A     -0.542233
      22A     -0.527352    23A     -0.509656    24A     -0.501666
      25A     -0.478921    26A     -0.473516    27A     -0.463870
      28A     -0.325621

  @DF-RHF Final Energy:  -309.14092011988424

   => Energetics <=

    Nuclear Repulsion Energy =            302.1298298747619242
    One-Electron Energy =               -1017.7024066947583378
    Two-Electron Energy =                 406.4316567001121143
    Total Energy =                       -309.1409201198842425
  Basis Set: (AUG-CC-PVTZ AUX)
    Blend: AUG-CC-PVTZ-RI
    Molecular point group: c1

    Geometry (in Angstrom), charge = 0, multiplicity = 1:

       Center              X                  Y                   Z               Mass
    ------------   -----------------  -----------------  -----------------  -----------------
         O           -0.841189971104    -0.228600982854    -0.282280076512    15.994914619570
         C            2.017460028896     0.282460017146    -0.535482076512    12.000000000000
         C           -2.123219971104    -0.225255982854     0.355206923488    12.000000000000
         C            1.391836028896    -0.868551982854     0.186102923488    12.000000000000
         C            2.765574028896     1.210367017146     0.423020923488    12.000000000000
         C            0.073320028896    -1.057293982854     0.316763923488    12.000000000000
         C           -3.022697971104     0.691965017146    -0.451875076512    12.000000000000
         H            2.714567028896    -0.090971982854    -1.292496076512     1.007825032230
         H            1.243828028896     0.841015017146    -1.063666076512     1.007825032230
         H           -2.525049971104    -1.252967982854     0.382570923488     1.007825032230
         H           -2.026320971104     0.133182017146     1.393639923488     1.007825032230
         H            2.039910028896    -1.607138982854     0.651004923488     1.007825032230
         H            3.248139028896     2.027541017146    -0.118554076512     1.007825032230
         H            2.075745028896     1.639358017146     1.152301923488     1.007825032230
         H            3.539737028896     0.665348017146     0.969778923488     1.007825032230
         H           -0.348215971104    -1.893227982854     0.877338923488     1.007825032230
         H           -4.025575971104     0.729545017146    -0.016174076512     1.007825032230
         H           -2.612861971104     1.705910017146    -0.468456076512     1.007825032230
         H           -3.098171971104     0.329329017146    -1.484782076512     1.007825032230

  Basis Set: AUG-CC-PVTZ
    Blend: AUG-CC-PVTZ
  Basis Set: (AUG-CC-PVTZ AUX)
    Blend: AUG-CC-PVTZ-JKFIT
	 Reference Energy          =    -309.1409201198842425 [Eh]
	 Singles Energy            =      -0.0000000000000000 [Eh]
	 Same-Spin Energy          =      -0.3138194050670051 [Eh]
	 Opposite-Spin Energy      =      -1.0991913843414347 [Eh]
	 Correlation Energy        =      -1.4130107894084398 [Eh]
	 Total Energy              =    -310.5539309092926601 [Eh]

	 ================> DF-SCS-MP2 Energies <==================
	-----------------------------------------------------------
	 SCS Same-Spin Scale       =       0.3333333333333333 [-]
	 SCS Opposite-Spin Scale   =       1.2000000000000000 [-]
	 SCS Same-Spin Energy      =      -0.1046064683556684 [Eh]
	 SCS Opposite-Spin Energy  =      -1.3190296612097216 [Eh]
	 SCS Correlation Energy    =      -1.4236361295653901 [Eh]
	 SCS Total Energy          =    -310.5645562494496517 [Eh]
	-----------------------------------------------------------

  Dipole Moment: [D]
     X:    -1.1001      Y:    -0.1895      Z:     0.7254     Total:     1.3313

*** Psi4 exiting successfully. Buy a developer a beer!
