                               Psi4 1.3.2 release

  ==> Input File <==

--------------------------------------------------------------------------
#psi4
#
memory 32 gb

molecule  {
0 1
  O       -0.8411900    -0.2286010    -0.2822800
  C        2.0174600     0.2824600    -0.5354820
  C       -2.1232200    -0.2252560     0.3552070
  C        1.3918360    -0.8685520     0.1861030
  C        2.7655740     1.2103670     0.4230210
  C        0.0733200    -1.0572940     0.3167640
  C       -3.0226980     0.6919650    -0.4518750
  H        2.7145670    -0.0909720    -1.2924960
  H        1.2438280     0.8410150    -1.0636660
  H       -2.5250500    -1.2529680     0.3825710
  H       -2.0263210     0.1331820     1.3936400
  H        2.0403856    -1.5539589     0.7356906
  H        3.2481390     2.0275410    -0.1185540
  H        2.0757450     1.6393580     1.1523020
  H        3.5397370     0.6653480     0.9697790
  H       -0.3482160    -1.8932280     0.8773390
  H       -4.0255760     0.7295450    -0.0161740
  H       -2.6128620     1.7059100    -0.4684560
  H       -3.0981720     0.3293290    -1.4847820
units angstrom
no_reorient  #important for SAPT in psi4, default
symmetry c1  #important for SAPT in psi4, default
}

set PROPERTIES_ORIGIN ["COM"]
properties('MP2/aug-cc-pvtz', properties = ['dipole'])
--------------------------------------------------------------------------

    Molecular point group: c1
  Charge       = 0
  Multiplicity = 1
  Basis Set: AUG-CC-PVTZ
    Blend: AUG-CC-PVTZ
  Basis Set: (AUG-CC-PVTZ AUX)
    Blend: AUG-CC-PVTZ-JKFIT

    Orbital Energies [Eh]
    ---------------------

    Doubly Occupied:

       1A    -20.572053     2A    -11.286576     3A    -11.278327
       4A    -11.221157     5A    -11.214881     6A    -11.213851
       7A    -11.207680     8A     -1.393171     9A     -1.074732
      10A     -1.025129    11A     -0.966694    12A     -0.851392
      13A     -0.841593    14A     -0.754550    15A     -0.683443
      16A     -0.654385    17A     -0.642562    18A     -0.597228
      19A     -0.559833    20A     -0.557141    21A     -0.541987
      22A     -0.527855    23A     -0.509640    24A     -0.501741
      25A     -0.479037    26A     -0.474405    27A     -0.463544
      28A     -0.325474

  @DF-RHF Final Energy:  -309.14053038400317

   => Energetics <=

    Nuclear Repulsion Energy =            302.1361939771042557
    One-Electron Energy =               -1017.7133238660475172
    Two-Electron Energy =                 406.4365995049401477
    Total Energy =                       -309.1405303840031706
  Basis Set: (AUG-CC-PVTZ AUX)
    Blend: AUG-CC-PVTZ-RI
    Molecular point group: c1

    Geometry (in Angstrom), charge = 0, multiplicity = 1:

       Center              X                  Y                   Z               Mass
    ------------   -----------------  -----------------  -----------------  -----------------
         O           -0.841194760067    -0.229136469621    -0.283132801839    15.994914619570
         C            2.017455239933     0.281924530379    -0.536334801839    12.000000000000
         C           -2.123224760067    -0.225791469621     0.354354198161    12.000000000000
         C            1.391831239933    -0.869087469621     0.185250198161    12.000000000000
         C            2.765569239933     1.209831530379     0.422168198161    12.000000000000
         C            0.073315239933    -1.057829469621     0.315911198161    12.000000000000
         C           -3.022702760067     0.691429530379    -0.452727801839    12.000000000000
         H            2.714562239933    -0.091507469621    -1.293348801839     1.007825032230
         H            1.243823239933     0.840479530379    -1.064518801839     1.007825032230
         H           -2.525054760067    -1.253503469621     0.381718198161     1.007825032230
         H           -2.026325760067     0.132646530379     1.392787198161     1.007825032230
         H            2.040380839933    -1.554494369621     0.734837798161     1.007825032230
         H            3.248134239933     2.027005530379    -0.119406801839     1.007825032230
         H            2.075740239933     1.638822530379     1.151449198161     1.007825032230
         H            3.539732239933     0.664812530379     0.968926198161     1.007825032230
         H           -0.348220760067    -1.893763469621     0.876486198161     1.007825032230
         H           -4.025580760067     0.729009530379    -0.017026801839     1.007825032230
         H           -2.612866760067     1.705374530379    -0.469308801839     1.007825032230
         H           -3.098176760067     0.328793530379    -1.485634801839     1.007825032230

  Basis Set: AUG-CC-PVTZ
    Blend: AUG-CC-PVTZ
  Basis Set: (AUG-CC-PVTZ AUX)
    Blend: AUG-CC-PVTZ-JKFIT
	 Reference Energy          =    -309.1405303840031706 [Eh]
	 Singles Energy            =      -0.0000000000000000 [Eh]
	 Same-Spin Energy          =      -0.3138385090010335 [Eh]
	 Opposite-Spin Energy      =      -1.0992202100565562 [Eh]
	 Correlation Energy        =      -1.4130587190575898 [Eh]
	 Total Energy              =    -310.5535891030607445 [Eh]

	 ================> DF-SCS-MP2 Energies <==================
	-----------------------------------------------------------
	 SCS Same-Spin Scale       =       0.3333333333333333 [-]
	 SCS Opposite-Spin Scale   =       1.2000000000000000 [-]
	 SCS Same-Spin Energy      =      -0.1046128363336778 [Eh]
	 SCS Opposite-Spin Energy  =      -1.3190642520678675 [Eh]
	 SCS Correlation Energy    =      -1.4236770884015453 [Eh]
	 SCS Total Energy          =    -310.5642074724046893 [Eh]
	-----------------------------------------------------------

  Dipole Moment: [D]
     X:    -1.1034      Y:    -0.1478      Z:     0.7741     Total:     1.3559

*** Psi4 exiting successfully. Buy a developer a beer!
