                               Psi4 1.3.2 release

  ==> Input File <==

--------------------------------------------------------------------------
#psi4
#
memory 32 gb

molecule  {
0 1
  O       -0.8411900    -0.2286010    -0.2822800
  C        2.0174600     0.2824600    -0.5354820
  C       -2.1232200    -0.2252560     0.3552070
  C        1.3918360    -0.8685520     0.1861030
  C        2.7655740     1.2103670     0.4230210
  C        0.0733200    -1.0572940     0.3167640
  C       -3.0226980     0.6919650    -0.4518750
  H        2.7145670    -0.0909720    -1.2924960
  H        1.2438280     0.8410150    -1.0636660
  H       -2.5250500    -1.2529680     0.3825710
  H       -2.0263210     0.1331820     1.3936400
  H        2.0399100    -1.6071390     0.6510050
  H        3.2481390     2.0275410    -0.1185540
  H        2.0757450     1.6393580     1.1523020
  H        3.5397370     0.6653480     0.9697790
  H       -0.3464002    -2.0071813     0.7129877
  H       -4.0255760     0.7295450    -0.0161740
  H       -2.6128620     1.7059100    -0.4684560
  H       -3.0981720     0.3293290    -1.4847820
units angstrom
no_reorient  #important for SAPT in psi4, default
symmetry c1  #important for SAPT in psi4, default
}

set PROPERTIES_ORIGIN ["COM"]
properties('MP2/aug-cc-pvtz', properties = ['dipole'])
--------------------------------------------------------------------------

    Molecular point group: c1
  Charge       = 0
  Multiplicity = 1
  Basis Set: AUG-CC-PVTZ
    Blend: AUG-CC-PVTZ
  Basis Set: (AUG-CC-PVTZ AUX)
    Blend: AUG-CC-PVTZ-JKFIT

    Orbital Energies [Eh]
    ---------------------

    Doubly Occupied:

       1A    -20.571598     2A    -11.285651     3A    -11.279241
       4A    -11.220618     5A    -11.215658     6A    -11.214910
       7A    -11.207461     8A     -1.392526     9A     -1.075084
      10A     -1.024801    11A     -0.966555    12A     -0.851412
      13A     -0.839585    14A     -0.753331    15A     -0.683496
      16A     -0.650045    17A     -0.642796    18A     -0.597409
      19A     -0.561492    20A     -0.559329    21A     -0.539811
      22A     -0.526818    23A     -0.510225    24A     -0.501240
      25A     -0.479656    26A     -0.473496    27A     -0.459711
      28A     -0.327151

  @DF-RHF Final Energy:  -309.13860784243593

   => Energetics <=

    Nuclear Repulsion Energy =            302.0016537841268018
    One-Electron Energy =               -1017.4583058903901929
    Two-Electron Energy =                 406.3180442638274599
    Total Energy =                       -309.1386078424359312
  Basis Set: (AUG-CC-PVTZ AUX)
    Blend: AUG-CC-PVTZ-RI
    Molecular point group: c1

    Geometry (in Angstrom), charge = 0, multiplicity = 1:

       Center              X                  Y                   Z               Mass
    ------------   -----------------  -----------------  -----------------  -----------------
         O           -0.841208254952    -0.227453552062    -0.280625172772    15.994914619570
         C            2.017441745048     0.283607447938    -0.533827172772    12.000000000000
         C           -2.123238254952    -0.224108552062     0.356861827228    12.000000000000
         C            1.391817745048    -0.867404552062     0.187757827228    12.000000000000
         C            2.765555745048     1.211514447938     0.424675827228    12.000000000000
         C            0.073301745048    -1.056146552062     0.318418827228    12.000000000000
         C           -3.022716254952     0.693112447938    -0.450220172772    12.000000000000
         H            2.714548745048    -0.089824552062    -1.290841172772     1.007825032230
         H            1.243809745048     0.842162447938    -1.062011172772     1.007825032230
         H           -2.525068254952    -1.251820552062     0.384225827228     1.007825032230
         H           -2.026339254952     0.134329447938     1.395294827228     1.007825032230
         H            2.039891745048    -1.605991552062     0.652659827228     1.007825032230
         H            3.248120745048     2.028688447938    -0.116899172772     1.007825032230
         H            2.075726745048     1.640505447938     1.153956827228     1.007825032230
         H            3.539718745048     0.666495447938     0.971433827228     1.007825032230
         H           -0.346418454952    -2.006033852062     0.714642527228     1.007825032230
         H           -4.025594254952     0.730692447938    -0.014519172772     1.007825032230
         H           -2.612880254952     1.707057447938    -0.466801172772     1.007825032230
         H           -3.098190254952     0.330476447938    -1.483127172772     1.007825032230

  Basis Set: AUG-CC-PVTZ
    Blend: AUG-CC-PVTZ
  Basis Set: (AUG-CC-PVTZ AUX)
    Blend: AUG-CC-PVTZ-JKFIT
	 Reference Energy          =    -309.1386078424359312 [Eh]
	 Singles Energy            =      -0.0000000000000000 [Eh]
	 Same-Spin Energy          =      -0.3138996568207857 [Eh]
	 Opposite-Spin Energy      =      -1.0995134714537531 [Eh]
	 Correlation Energy        =      -1.4134131282745388 [Eh]
	 Total Energy              =    -310.5520209707104868 [Eh]

	 ================> DF-SCS-MP2 Energies <==================
	-----------------------------------------------------------
	 SCS Same-Spin Scale       =       0.3333333333333333 [-]
	 SCS Opposite-Spin Scale   =       1.2000000000000000 [-]
	 SCS Same-Spin Energy      =      -0.1046332189402619 [Eh]
	 SCS Opposite-Spin Energy  =      -1.3194161657445036 [Eh]
	 SCS Correlation Energy    =      -1.4240493846847655 [Eh]
	 SCS Total Energy          =    -310.5626572271207237 [Eh]
	-----------------------------------------------------------

  Dipole Moment: [D]
     X:    -1.0284      Y:    -0.2438      Z:     0.5999     Total:     1.2152

*** Psi4 exiting successfully. Buy a developer a beer!
