                               Psi4 1.3.2 release

  ==> Input File <==

--------------------------------------------------------------------------
#psi4
#
memory 32 gb

molecule  {
0 1
  O       -0.8411900    -0.2286010    -0.2822800
  C        2.0174600     0.2824600    -0.5354820
  C       -2.1232200    -0.2252560     0.3552070
  C        1.3918360    -0.8685520     0.1861030
  C        2.7655740     1.2103670     0.4230210
  C        0.0733200    -1.0572940     0.3167640
  C       -3.0226980     0.6919650    -0.4518750
  H        2.7145670    -0.0909720    -1.2924960
  H        1.2438280     0.8410150    -1.0636660
  H       -2.5250500    -1.2529680     0.3825710
  H       -2.0263210     0.1331820     1.3936400
  H        2.0399100    -1.6071390     0.6510050
  H        3.2481390     2.0275410    -0.1185540
  H        2.0757450     1.6393580     1.1523020
  H        3.5397370     0.6653480     0.9697790
  H       -0.3459462    -2.0356696     0.6718999
  H       -4.0255760     0.7295450    -0.0161740
  H       -2.6128620     1.7059100    -0.4684560
  H       -3.0981720     0.3293290    -1.4847820
units angstrom
no_reorient  #important for SAPT in psi4, default
symmetry c1  #important for SAPT in psi4, default
}

set PROPERTIES_ORIGIN ["COM"]
properties('MP2/aug-cc-pvtz', properties = ['dipole'])
--------------------------------------------------------------------------

    Molecular point group: c1
  Charge       = 0
  Multiplicity = 1
  Basis Set: AUG-CC-PVTZ
    Blend: AUG-CC-PVTZ
  Basis Set: (AUG-CC-PVTZ AUX)
    Blend: AUG-CC-PVTZ-JKFIT

    Orbital Energies [Eh]
    ---------------------

    Doubly Occupied:

       1A    -20.571424     2A    -11.285402     3A    -11.279984
       4A    -11.220464     5A    -11.216127     6A    -11.215423
       7A    -11.207587     8A     -1.392324     9A     -1.075260
      10A     -1.024738    11A     -0.966478    12A     -0.851376
      13A     -0.838956    14A     -0.752789    15A     -0.682864
      16A     -0.648676    17A     -0.642920    18A     -0.597399
      19A     -0.561782    20A     -0.559656    21A     -0.539176
      22A     -0.526681    23A     -0.510347    24A     -0.501127
      25A     -0.479862    26A     -0.473593    27A     -0.458309
      28A     -0.327520

  @DF-RHF Final Energy:  -309.13712110121503

   => Energetics <=

    Nuclear Repulsion Energy =            301.9485222575446528
    One-Electron Energy =               -1017.3547956414413420
    Two-Electron Energy =                 406.2691522826816026
    Total Energy =                       -309.1371211012150297
  Basis Set: (AUG-CC-PVTZ AUX)
    Blend: AUG-CC-PVTZ-RI
    Molecular point group: c1

    Geometry (in Angstrom), charge = 0, multiplicity = 1:

       Center              X                  Y                   Z               Mass
    ------------   -----------------  -----------------  -----------------  -----------------
         O           -0.841212826418    -0.227166694616    -0.280211447089    15.994914619570
         C            2.017437173582     0.283894305384    -0.533413447089    12.000000000000
         C           -2.123242826418    -0.223821694616     0.357275552911    12.000000000000
         C            1.391813173582    -0.867117694616     0.188171552911    12.000000000000
         C            2.765551173582     1.211801305384     0.425089552911    12.000000000000
         C            0.073297173582    -1.055859694616     0.318832552911    12.000000000000
         C           -3.022720826418     0.693399305384    -0.449806447089    12.000000000000
         H            2.714544173582    -0.089537694616    -1.290427447089     1.007825032230
         H            1.243805173582     0.842449305384    -1.061597447089     1.007825032230
         H           -2.525072826418    -1.251533694616     0.384639552911     1.007825032230
         H           -2.026343826418     0.134616305384     1.395708552911     1.007825032230
         H            2.039887173582    -1.605704694616     0.653073552911     1.007825032230
         H            3.248116173582     2.028975305384    -0.116485447089     1.007825032230
         H            2.075722173582     1.640792305384     1.154370552911     1.007825032230
         H            3.539714173582     0.666782305384     0.971847552911     1.007825032230
         H           -0.345969026418    -2.034235294616     0.673968452911     1.007825032230
         H           -4.025598826418     0.730979305384    -0.014105447089     1.007825032230
         H           -2.612884826418     1.707344305384    -0.466387447089     1.007825032230
         H           -3.098194826418     0.330763305384    -1.482713447089     1.007825032230

  Basis Set: AUG-CC-PVTZ
    Blend: AUG-CC-PVTZ
  Basis Set: (AUG-CC-PVTZ AUX)
    Blend: AUG-CC-PVTZ-JKFIT
	 Reference Energy          =    -309.1371211012150297 [Eh]
	 Singles Energy            =      -0.0000000000000000 [Eh]
	 Same-Spin Energy          =      -0.3139651775877464 [Eh]
	 Opposite-Spin Energy      =      -1.0997237917640823 [Eh]
	 Correlation Energy        =      -1.4136889693518286 [Eh]
	 Total Energy              =    -310.5508100705668539 [Eh]

	 ================> DF-SCS-MP2 Energies <==================
	-----------------------------------------------------------
	 SCS Same-Spin Scale       =       0.3333333333333333 [-]
	 SCS Opposite-Spin Scale   =       1.2000000000000000 [-]
	 SCS Same-Spin Energy      =      -0.1046550591959155 [Eh]
	 SCS Opposite-Spin Energy  =      -1.3196685501168988 [Eh]
	 SCS Correlation Energy    =      -1.4243236093128142 [Eh]
	 SCS Total Energy          =    -310.5614447105278373 [Eh]
	-----------------------------------------------------------

  Dipole Moment: [D]
     X:    -1.0024      Y:    -0.2491      Z:     0.5661     Total:     1.1778

*** Psi4 exiting successfully. Buy a developer a beer!
