                               Psi4 1.3.2 release

  ==> Input File <==

--------------------------------------------------------------------------
#psi4
#
memory 32 gb

molecule  {
0 1
  O       -0.8411900    -0.2286010    -0.2822800
  C        2.0174600     0.2824600    -0.5354820
  C       -2.1232200    -0.2252560     0.3552070
  C        1.3918360    -0.8685520     0.1861030
  C        2.7655740     1.2103670     0.4230210
  C        0.0733200    -1.0572940     0.3167640
  C       -3.0226980     0.6919650    -0.4518750
  H        2.7145670    -0.0909720    -1.2924960
  H        1.2438280     0.8410150    -1.0636660
  H       -2.5250500    -1.2529680     0.3825710
  H       -2.0263210     0.1331820     1.3936400
  H        2.0406235    -1.5273689     0.7780334
  H        3.2481390     2.0275410    -0.1185540
  H        2.0757450     1.6393580     1.1523020
  H        3.5397370     0.6653480     0.9697790
  H       -0.3482160    -1.8932280     0.8773390
  H       -4.0255760     0.7295450    -0.0161740
  H       -2.6128620     1.7059100    -0.4684560
  H       -3.0981720     0.3293290    -1.4847820
units angstrom
no_reorient  #important for SAPT in psi4, default
symmetry c1  #important for SAPT in psi4, default
}

set PROPERTIES_ORIGIN ["COM"]
properties('MP2/aug-cc-pvtz', properties = ['dipole'])
--------------------------------------------------------------------------

    Molecular point group: c1
  Charge       = 0
  Multiplicity = 1
  Basis Set: AUG-CC-PVTZ
    Blend: AUG-CC-PVTZ
  Basis Set: (AUG-CC-PVTZ AUX)
    Blend: AUG-CC-PVTZ-JKFIT

    Orbital Energies [Eh]
    ---------------------

    Doubly Occupied:

       1A    -20.572055     2A    -11.286712     3A    -11.278569
       4A    -11.221228     5A    -11.215033     6A    -11.214302
       7A    -11.207804     8A     -1.393247     9A     -1.074718
      10A     -1.025207    11A     -0.966624    12A     -0.851370
      13A     -0.841685    14A     -0.754304    15A     -0.683287
      16A     -0.654421    17A     -0.642460    18A     -0.597049
      19A     -0.559129    20A     -0.557219    21A     -0.541891
      22A     -0.527977    23A     -0.509584    24A     -0.501812
      25A     -0.479109    26A     -0.474773    27A     -0.463349
      28A     -0.325373

  @DF-RHF Final Energy:  -309.13987900312372

   => Energetics <=

    Nuclear Repulsion Energy =            302.1267803876452263
    One-Electron Energy =               -1017.6927363878746746
    Two-Electron Energy =                 406.4260769971057243
    Total Energy =                       -309.1398790031237240
  Basis Set: (AUG-CC-PVTZ AUX)
    Blend: AUG-CC-PVTZ-RI
    Molecular point group: c1

    Geometry (in Angstrom), charge = 0, multiplicity = 1:

       Center              X                  Y                   Z               Mass
    ------------   -----------------  -----------------  -----------------  -----------------
         O           -0.841197155555    -0.229404212502    -0.283559164503    15.994914619570
         C            2.017452844445     0.281656787498    -0.536761164503    12.000000000000
         C           -2.123227155555    -0.226059212502     0.353927835497    12.000000000000
         C            1.391828844445    -0.869355212502     0.184823835497    12.000000000000
         C            2.765566844445     1.209563787498     0.421741835497    12.000000000000
         C            0.073312844445    -1.058097212502     0.315484835497    12.000000000000
         C           -3.022705155555     0.691161787498    -0.453154164503    12.000000000000
         H            2.714559844445    -0.091775212502    -1.293775164503     1.007825032230
         H            1.243820844445     0.840211787498    -1.064945164503     1.007825032230
         H           -2.525057155555    -1.253771212502     0.381291835497     1.007825032230
         H           -2.026328155555     0.132378787498     1.392360835497     1.007825032230
         H            2.040616344445    -1.528172112502     0.776754235497     1.007825032230
         H            3.248131844445     2.026737787498    -0.119833164503     1.007825032230
         H            2.075737844445     1.638554787498     1.151022835497     1.007825032230
         H            3.539729844445     0.664544787498     0.968499835497     1.007825032230
         H           -0.348223155555    -1.894031212502     0.876059835497     1.007825032230
         H           -4.025583155555     0.728741787498    -0.017453164503     1.007825032230
         H           -2.612869155555     1.705106787498    -0.469735164503     1.007825032230
         H           -3.098179155555     0.328525787498    -1.486061164503     1.007825032230

  Basis Set: AUG-CC-PVTZ
    Blend: AUG-CC-PVTZ
  Basis Set: (AUG-CC-PVTZ AUX)
    Blend: AUG-CC-PVTZ-JKFIT
	 Reference Energy          =    -309.1398790031237240 [Eh]
	 Singles Energy            =      -0.0000000000000000 [Eh]
	 Same-Spin Energy          =      -0.3138739332032449 [Eh]
	 Opposite-Spin Energy      =      -1.0993007228158087 [Eh]
	 Correlation Energy        =      -1.4131746560190535 [Eh]
	 Total Energy              =    -310.5530536591427904 [Eh]

	 ================> DF-SCS-MP2 Energies <==================
	-----------------------------------------------------------
	 SCS Same-Spin Scale       =       0.3333333333333333 [-]
	 SCS Opposite-Spin Scale   =       1.2000000000000000 [-]
	 SCS Same-Spin Energy      =      -0.1046246444010816 [Eh]
	 SCS Opposite-Spin Energy  =      -1.3191608673789703 [Eh]
	 SCS Correlation Energy    =      -1.4237855117800520 [Eh]
	 SCS Total Energy          =    -310.5636645149037918 [Eh]
	-----------------------------------------------------------

  Dipole Moment: [D]
     X:    -1.1116      Y:    -0.1244      Z:     0.7962     Total:     1.3730

*** Psi4 exiting successfully. Buy a developer a beer!
