                               Psi4 1.3.2 release

  ==> Input File <==

--------------------------------------------------------------------------
#psi4
#
memory 32 gb

molecule  {
0 1
  S       -1.0050790    -1.7376190    -0.0151270
  O        2.1293390     1.6156530    -0.0602560
  N        1.4328010    -0.5712990    -0.0002240
  C       -2.0712570     0.6114660     0.0102110
  C        0.0482060    -0.3546190     0.0027700
  C       -0.6600310     0.8254930     0.0130800
  C       -2.4003070    -0.7218620    -0.0026000
  C       -3.0748160     1.7280810     0.0214760
  C        2.3954760     0.4154750    -0.0251370
  C        3.8156290    -0.1071950     0.0454080
  H       -0.1788490     1.7941090     0.0202490
  H       -3.3868100    -1.1685230    -0.0043580
  H        1.7498623    -1.5355104    -0.0699432
  H       -2.9559420     2.3719740    -0.8556620
  H       -4.0955650     1.3361040     0.0184570
  H       -2.9548850     2.3555760     0.9102830
  H        3.9313990    -1.0827470    -0.4343570
  H        4.1211000    -0.1952360     1.0924070
  H        4.4689380     0.6162650    -0.4426230
units angstrom
no_reorient  #important for SAPT in psi4, default
symmetry c1  #important for SAPT in psi4, default
}

set PROPERTIES_ORIGIN ["COM"]
properties('MP2/aug-cc-pvtz', properties = ['dipole'])
--------------------------------------------------------------------------

    Molecular point group: c1
  Charge       = 0
  Multiplicity = 1
  Basis Set: AUG-CC-PVTZ
    Blend: AUG-CC-PVTZ
  Basis Set: (AUG-CC-PVTZ AUX)
    Blend: AUG-CC-PVTZ-JKFIT

    Orbital Energies [Eh]
    ---------------------

    Doubly Occupied:

       1A    -91.984395     2A    -20.533131     3A    -15.619554
       4A    -11.369328     5A    -11.311666     6A    -11.249520
       7A    -11.249267     8A    -11.244934     9A    -11.225977
      10A    -11.221982    11A     -8.984877    12A     -6.666040
      13A     -6.665487    14A     -6.664597    15A     -1.388848
      16A     -1.264541    17A     -1.159517    18A     -1.038133
      19A     -1.012098    20A     -0.971742    21A     -0.912742
      22A     -0.825499    23A     -0.784522    24A     -0.727319
      25A     -0.687973    26A     -0.673845    27A     -0.632867
      28A     -0.610052    29A     -0.592791    30A     -0.580931
      31A     -0.577449    32A     -0.561109    33A     -0.557519
      34A     -0.523526    35A     -0.516140    36A     -0.503128
      37A     -0.472990    38A     -0.442590    39A     -0.433694
      40A     -0.340305    41A     -0.295566

  @DF-RHF Final Energy:  -797.31916805330377

   => Energetics <=

    Nuclear Repulsion Energy =            584.8076936289376135
    One-Electron Energy =               -2254.0973367712444997
    Two-Electron Energy =                 871.9704750890031164
    Total Energy =                       -797.3191680533037697
  Basis Set: (AUG-CC-PVTZ AUX)
    Blend: AUG-CC-PVTZ-RI
    Molecular point group: c1

    Geometry (in Angstrom), charge = 0, multiplicity = 1:

       Center              X                  Y                   Z               Mass
    ------------   -----------------  -----------------  -----------------  -----------------
         S           -1.000739982064    -1.709086072038    -0.012342021718    31.972071174400
         O            2.133678017936     1.644185927962    -0.057471021718    15.994914619570
         N            1.437140017936    -0.542766072038     0.002560978282    14.003074004430
         C           -2.066917982064     0.639998927962     0.012995978282    12.000000000000
         C            0.052545017936    -0.326086072038     0.005554978282    12.000000000000
         C           -0.655691982064     0.854025927962     0.015864978282    12.000000000000
         C           -2.395967982064    -0.693329072038     0.000184978282    12.000000000000
         C           -3.070476982064     1.756613927962     0.024260978282    12.000000000000
         C            2.399815017936     0.444007927962    -0.022352021718    12.000000000000
         C            3.819968017936    -0.078662072038     0.048192978282    12.000000000000
         H           -0.174509982064     1.822641927962     0.023033978282     1.007825032230
         H           -3.382470982064    -1.139990072038    -0.001573021718     1.007825032230
         H            1.754201317936    -1.506977472038    -0.067158221718     1.007825032230
         H           -2.951602982064     2.400506927962    -0.852877021718     1.007825032230
         H           -4.091225982064     1.364636927962     0.021241978282     1.007825032230
         H           -2.950545982064     2.384108927962     0.913067978282     1.007825032230
         H            3.935738017936    -1.054214072038    -0.431572021718     1.007825032230
         H            4.125439017936    -0.166703072038     1.095191978282     1.007825032230
         H            4.473277017936     0.644797927962    -0.439838021718     1.007825032230

  Basis Set: AUG-CC-PVTZ
    Blend: AUG-CC-PVTZ
  Basis Set: (AUG-CC-PVTZ AUX)
    Blend: AUG-CC-PVTZ-JKFIT
	 Reference Energy          =    -797.3191680533037697 [Eh]
	 Singles Energy            =      -0.0000000000000000 [Eh]
	 Same-Spin Energy          =      -0.4855629090991707 [Eh]
	 Opposite-Spin Energy      =      -1.5017969508317668 [Eh]
	 Correlation Energy        =      -1.9873598599309374 [Eh]
	 Total Energy              =    -799.3065279132347314 [Eh]

	 ================> DF-SCS-MP2 Energies <==================
	-----------------------------------------------------------
	 SCS Same-Spin Scale       =       0.3333333333333333 [-]
	 SCS Opposite-Spin Scale   =       1.2000000000000000 [-]
	 SCS Same-Spin Energy      =      -0.1618543030330569 [Eh]
	 SCS Opposite-Spin Energy  =      -1.8021563409981201 [Eh]
	 SCS Correlation Energy    =      -1.9640106440311769 [Eh]
	 SCS Total Energy          =    -799.2831786973349608 [Eh]
	-----------------------------------------------------------

  Dipole Moment: [D]
     X:     0.4297      Y:    -2.5249      Z:     0.0558     Total:     2.5618

*** Psi4 exiting successfully. Buy a developer a beer!
