                               Psi4 1.3.2 release

  ==> Input File <==

--------------------------------------------------------------------------
#psi4
#
memory 32 gb

molecule  {
0 1
  S       -1.0050790    -1.7376190    -0.0151270
  O        2.1293390     1.6156530    -0.0602560
  N        1.4328010    -0.5712990    -0.0002240
  C       -2.0712570     0.6114660     0.0102110
  C        0.0482060    -0.3546190     0.0027700
  C       -0.6600310     0.8254930     0.0130800
  C       -2.4003070    -0.7218620    -0.0026000
  C       -3.0748160     1.7280810     0.0214760
  C        2.3954760     0.4154750    -0.0251370
  C        3.8156290    -0.1071950     0.0454080
  H       -0.1788490     1.7941090     0.0202490
  H       -3.3868100    -1.1685230    -0.0043580
  H        1.7494247    -1.5396104    -0.2198865
  H       -2.9559420     2.3719740    -0.8556620
  H       -4.0955650     1.3361040     0.0184570
  H       -2.9548850     2.3555760     0.9102830
  H        3.9313990    -1.0827470    -0.4343570
  H        4.1211000    -0.1952360     1.0924070
  H        4.4689380     0.6162650    -0.4426230
units angstrom
no_reorient  #important for SAPT in psi4, default
symmetry c1  #important for SAPT in psi4, default
}

set PROPERTIES_ORIGIN ["COM"]
properties('MP2/aug-cc-pvtz', properties = ['dipole'])
--------------------------------------------------------------------------

    Molecular point group: c1
  Charge       = 0
  Multiplicity = 1
  Basis Set: AUG-CC-PVTZ
    Blend: AUG-CC-PVTZ
  Basis Set: (AUG-CC-PVTZ AUX)
    Blend: AUG-CC-PVTZ-JKFIT

    Orbital Energies [Eh]
    ---------------------

    Doubly Occupied:

       1A    -91.984243     2A    -20.533813     3A    -15.620966
       4A    -11.369311     5A    -11.311182     6A    -11.249433
       7A    -11.249277     8A    -11.244848     9A    -11.225954
      10A    -11.222040    11A     -8.984722    12A     -6.665880
      13A     -6.665330    14A     -6.664440    15A     -1.389031
      16A     -1.262145    17A     -1.159025    18A     -1.037950
      19A     -1.011961    20A     -0.971189    21A     -0.912615
      22A     -0.824240    23A     -0.779545    24A     -0.726700
      25A     -0.686456    26A     -0.673886    27A     -0.632975
      28A     -0.609391    29A     -0.592321    30A     -0.580931
      31A     -0.577266    32A     -0.561666    33A     -0.556001
      34A     -0.523518    35A     -0.515686    36A     -0.503123
      37A     -0.472871    38A     -0.442999    39A     -0.433552
      40A     -0.340221    41A     -0.295811

  @DF-RHF Final Energy:  -797.31684403878933

   => Energetics <=

    Nuclear Repulsion Energy =            584.6774933445345823
    One-Electron Energy =               -2253.8596493566833487
    Two-Electron Energy =                 871.8653119733595531
    Total Energy =                       -797.3168440387893270
  Basis Set: (AUG-CC-PVTZ AUX)
    Blend: AUG-CC-PVTZ-RI
    Molecular point group: c1

    Geometry (in Angstrom), charge = 0, multiplicity = 1:

       Center              X                  Y                   Z               Mass
    ------------   -----------------  -----------------  -----------------  -----------------
         S           -1.000737137489    -1.709059420401    -0.011367330423    31.972071174400
         O            2.133680862511     1.644212579599    -0.056496330423    15.994914619570
         N            1.437142862511    -0.542739420401     0.003535669577    14.003074004430
         C           -2.066915137489     0.640025579599     0.013970669577    12.000000000000
         C            0.052547862511    -0.326059420401     0.006529669577    12.000000000000
         C           -0.655689137489     0.854052579599     0.016839669577    12.000000000000
         C           -2.395965137489    -0.693302420401     0.001159669577    12.000000000000
         C           -3.070474137489     1.756640579599     0.025235669577    12.000000000000
         C            2.399817862511     0.444034579599    -0.021377330423    12.000000000000
         C            3.819970862511    -0.078635420401     0.049167669577    12.000000000000
         H           -0.174507137489     1.822668579599     0.024008669577     1.007825032230
         H           -3.382468137489    -1.139963420401    -0.000598330423     1.007825032230
         H            1.753766562511    -1.511050820401    -0.216126830423     1.007825032230
         H           -2.951600137489     2.400533579599    -0.851902330423     1.007825032230
         H           -4.091223137489     1.364663579599     0.022216669577     1.007825032230
         H           -2.950543137489     2.384135579599     0.914042669577     1.007825032230
         H            3.935740862511    -1.054187420401    -0.430597330423     1.007825032230
         H            4.125441862511    -0.166676420401     1.096166669577     1.007825032230
         H            4.473279862511     0.644824579599    -0.438863330423     1.007825032230

  Basis Set: AUG-CC-PVTZ
    Blend: AUG-CC-PVTZ
  Basis Set: (AUG-CC-PVTZ AUX)
    Blend: AUG-CC-PVTZ-JKFIT
	 Reference Energy          =    -797.3168440387893270 [Eh]
	 Singles Energy            =      -0.0000000000000000 [Eh]
	 Same-Spin Energy          =      -0.4857399275364730 [Eh]
	 Opposite-Spin Energy      =      -1.5023176421052966 [Eh]
	 Correlation Energy        =      -1.9880575696417697 [Eh]
	 Total Energy              =    -799.3049016084311233 [Eh]

	 ================> DF-SCS-MP2 Energies <==================
	-----------------------------------------------------------
	 SCS Same-Spin Scale       =       0.3333333333333333 [-]
	 SCS Opposite-Spin Scale   =       1.2000000000000000 [-]
	 SCS Same-Spin Energy      =      -0.1619133091788243 [Eh]
	 SCS Opposite-Spin Energy  =      -1.8027811705263559 [Eh]
	 SCS Correlation Energy    =      -1.9646944797051802 [Eh]
	 SCS Total Energy          =    -799.2815385184944716 [Eh]
	-----------------------------------------------------------

  Dipole Moment: [D]
     X:     0.4295      Y:    -2.4978      Z:    -0.1248     Total:     2.5376

*** Psi4 exiting successfully. Buy a developer a beer!
