                               Psi4 1.3.2 release

  ==> Input File <==

--------------------------------------------------------------------------
#psi4
#
memory 32 gb

molecule  {
0 1
  S       -1.0050790    -1.7376190    -0.0151270
  O        2.1293390     1.6156530    -0.0602560
  N        1.4328010    -0.5712990    -0.0002240
  C       -2.0712570     0.6114660     0.0102110
  C        0.0482060    -0.3546190     0.0027700
  C       -0.6600310     0.8254930     0.0130800
  C       -2.4003070    -0.7218620    -0.0026000
  C       -3.0748160     1.7280810     0.0214760
  C        2.3954760     0.4154750    -0.0251370
  C        3.8156290    -0.1071950     0.0454080
  H       -0.1788490     1.7941090     0.0202490
  H       -3.3867010    -1.1690128     0.0456395
  H        1.7501540    -1.5327770     0.0300190
  H       -2.9559420     2.3719740    -0.8556620
  H       -4.0955650     1.3361040     0.0184570
  H       -2.9548850     2.3555760     0.9102830
  H        3.9313990    -1.0827470    -0.4343570
  H        4.1211000    -0.1952360     1.0924070
  H        4.4689380     0.6162650    -0.4426230
units angstrom
no_reorient  #important for SAPT in psi4, default
symmetry c1  #important for SAPT in psi4, default
}

set PROPERTIES_ORIGIN ["COM"]
properties('MP2/aug-cc-pvtz', properties = ['dipole'])
--------------------------------------------------------------------------

    Molecular point group: c1
  Charge       = 0
  Multiplicity = 1
  Basis Set: AUG-CC-PVTZ
    Blend: AUG-CC-PVTZ
  Basis Set: (AUG-CC-PVTZ AUX)
    Blend: AUG-CC-PVTZ-JKFIT

    Orbital Energies [Eh]
    ---------------------

    Doubly Occupied:

       1A    -91.984385     2A    -20.532995     3A    -15.619251
       4A    -11.369335     5A    -11.311742     6A    -11.249482
       7A    -11.249352     8A    -11.244989     9A    -11.225994
      10A    -11.222021    11A     -8.984869    12A     -6.666033
      13A     -6.665478    14A     -6.664588    15A     -1.388812
      16A     -1.264982    17A     -1.159611    18A     -1.038171
      19A     -1.012123    20A     -0.971813    21A     -0.912755
      22A     -0.825737    23A     -0.785289    24A     -0.727333
      25A     -0.688261    26A     -0.673792    27A     -0.632906
      28A     -0.610191    29A     -0.592879    30A     -0.580980
      31A     -0.577301    32A     -0.560523    33A     -0.558189
      34A     -0.523533    35A     -0.516269    36A     -0.502996
      37A     -0.472988    38A     -0.442467    39A     -0.433662
      40A     -0.340314    41A     -0.295605

  @DF-RHF Final Energy:  -797.31937648829989

   => Energetics <=

    Nuclear Repulsion Energy =            584.8266926174553646
    One-Electron Energy =               -2254.1321413107884837
    Two-Electron Energy =                 871.9860722050332242
    Total Energy =                       -797.3193764882998948
  Basis Set: (AUG-CC-PVTZ AUX)
    Blend: AUG-CC-PVTZ-RI
    Molecular point group: c1

    Geometry (in Angstrom), charge = 0, multiplicity = 1:

       Center              X                  Y                   Z               Mass
    ------------   -----------------  -----------------  -----------------  -----------------
         S           -1.000742586774    -1.709100656333    -0.013316819619    31.972071174400
         O            2.133675413226     1.644171343667    -0.058445819619    15.994914619570
         N            1.437137413226    -0.542780656333     0.001586180381    14.003074004430
         C           -2.066920586774     0.639984343667     0.012021180381    12.000000000000
         C            0.052542413226    -0.326100656333     0.004580180381    12.000000000000
         C           -0.655694586774     0.854011343667     0.014890180381    12.000000000000
         C           -2.395970586774    -0.693343656333    -0.000789819619    12.000000000000
         C           -3.070479586774     1.756599343667     0.023286180381    12.000000000000
         C            2.399812413226     0.443993343667    -0.023326819619    12.000000000000
         C            3.819965413226    -0.078676656333     0.047218180381    12.000000000000
         H           -0.174512586774     1.822627343667     0.022059180381     1.007825032230
         H           -3.382364586774    -1.140494456333     0.047449680381     1.007825032230
         H            1.754490413226    -1.504258656333     0.031829180381     1.007825032230
         H           -2.951605586774     2.400492343667    -0.853851819619     1.007825032230
         H           -4.091228586774     1.364622343667     0.020267180381     1.007825032230
         H           -2.950548586774     2.384094343667     0.912093180381     1.007825032230
         H            3.935735413226    -1.054228656333    -0.432546819619     1.007825032230
         H            4.125436413226    -0.166717656333     1.094217180381     1.007825032230
         H            4.473274413226     0.644783343667    -0.440812819619     1.007825032230

  Basis Set: AUG-CC-PVTZ
    Blend: AUG-CC-PVTZ
  Basis Set: (AUG-CC-PVTZ AUX)
    Blend: AUG-CC-PVTZ-JKFIT
	 Reference Energy          =    -797.3193764882998948 [Eh]
	 Singles Energy            =      -0.0000000000000000 [Eh]
	 Same-Spin Energy          =      -0.4855367464993943 [Eh]
	 Opposite-Spin Energy      =      -1.5017111155495249 [Eh]
	 Correlation Energy        =      -1.9872478620489191 [Eh]
	 Total Energy              =    -799.3066243503487840 [Eh]

	 ================> DF-SCS-MP2 Energies <==================
	-----------------------------------------------------------
	 SCS Same-Spin Scale       =       0.3333333333333333 [-]
	 SCS Opposite-Spin Scale   =       1.2000000000000000 [-]
	 SCS Same-Spin Energy      =      -0.1618455821664647 [Eh]
	 SCS Opposite-Spin Energy  =      -1.8020533386594297 [Eh]
	 SCS Correlation Energy    =      -1.9638989208258946 [Eh]
	 SCS Total Energy          =    -799.2832754091257357 [Eh]
	-----------------------------------------------------------

  Dipole Moment: [D]
     X:     0.4326      Y:    -2.5263      Z:     0.2178     Total:     2.5723

*** Psi4 exiting successfully. Buy a developer a beer!
