                               Psi4 1.3.2 release

  ==> Input File <==

--------------------------------------------------------------------------
#psi4
#
memory 32 gb

molecule  {
0 1
  S       -1.0050790    -1.7376190    -0.0151270
  O        2.1293390     1.6156530    -0.0602560
  N        1.4328010    -0.5712990    -0.0002240
  C       -2.0712570     0.6114660     0.0102110
  C        0.0482060    -0.3546190     0.0027700
  C       -0.6600310     0.8254930     0.0130800
  C       -2.4003070    -0.7218620    -0.0026000
  C       -3.0748160     1.7280810     0.0214760
  C        2.3954760     0.4154750    -0.0251370
  C        3.8156290    -0.1071950     0.0454080
  H       -0.1788490     1.7941090     0.0202490
  H       -3.3868100    -1.1685230    -0.0043580
  H        1.7497164    -1.5368770    -0.1199243
  H       -2.9559420     2.3719740    -0.8556620
  H       -4.0955650     1.3361040     0.0184570
  H       -2.9548850     2.3555760     0.9102830
  H        3.9313990    -1.0827470    -0.4343570
  H        4.1211000    -0.1952360     1.0924070
  H        4.4689380     0.6162650    -0.4426230
units angstrom
no_reorient  #important for SAPT in psi4, default
symmetry c1  #important for SAPT in psi4, default
}

set PROPERTIES_ORIGIN ["COM"]
properties('MP2/aug-cc-pvtz', properties = ['dipole'])
--------------------------------------------------------------------------

    Molecular point group: c1
  Charge       = 0
  Multiplicity = 1
  Basis Set: AUG-CC-PVTZ
    Blend: AUG-CC-PVTZ
  Basis Set: (AUG-CC-PVTZ AUX)
    Blend: AUG-CC-PVTZ-JKFIT

    Orbital Energies [Eh]
    ---------------------

    Doubly Occupied:

       1A    -91.984363     2A    -20.533301     3A    -15.619907
       4A    -11.369326     5A    -11.311558     6A    -11.249514
       7A    -11.249265     8A    -11.244915     9A    -11.225971
      10A    -11.221989    11A     -8.984844    12A     -6.666006
      13A     -6.665454    14A     -6.664564    15A     -1.388895
      16A     -1.263961    17A     -1.159398    18A     -1.038091
      19A     -1.012066    20A     -0.971608    21A     -0.912713
      22A     -0.825175    23A     -0.783336    24A     -0.727175
      25A     -0.687622    26A     -0.673859    27A     -0.632883
      28A     -0.609890    29A     -0.592687    30A     -0.580945
      31A     -0.577409    32A     -0.561325    33A     -0.557081
      34A     -0.523526    35A     -0.516042    36A     -0.503127
      37A     -0.472965    38A     -0.442692    39A     -0.433674
      40A     -0.340286    41A     -0.295614

  @DF-RHF Final Energy:  -797.31869271109133

   => Energetics <=

    Nuclear Repulsion Energy =            584.7764260298700947
    One-Electron Energy =               -2254.0401945589942443
    Two-Electron Energy =                 871.9450758180329331
    Total Energy =                       -797.3186927110913302
  Basis Set: (AUG-CC-PVTZ AUX)
    Blend: AUG-CC-PVTZ-RI
    Molecular point group: c1

    Geometry (in Angstrom), charge = 0, multiplicity = 1:

       Center              X                  Y                   Z               Mass
    ------------   -----------------  -----------------  -----------------  -----------------
         S           -1.000739033655    -1.709077188592    -0.012017124620    31.972071174400
         O            2.133678966345     1.644194811408    -0.057146124620    15.994914619570
         N            1.437140966345    -0.542757188592     0.002885875380    14.003074004430
         C           -2.066917033655     0.640007811408     0.013320875380    12.000000000000
         C            0.052545966345    -0.326077188592     0.005879875380    12.000000000000
         C           -0.655691033655     0.854034811408     0.016189875380    12.000000000000
         C           -2.395967033655    -0.693320188592     0.000509875380    12.000000000000
         C           -3.070476033655     1.756622811408     0.024585875380    12.000000000000
         C            2.399815966345     0.444016811408    -0.022027124620    12.000000000000
         C            3.819968966345    -0.078653188592     0.048517875380    12.000000000000
         H           -0.174509033655     1.822650811408     0.023358875380     1.007825032230
         H           -3.382470033655    -1.139981188592    -0.001248124620     1.007825032230
         H            1.754056366345    -1.508335188592    -0.116814424620     1.007825032230
         H           -2.951602033655     2.400515811408    -0.852552124620     1.007825032230
         H           -4.091225033655     1.364645811408     0.021566875380     1.007825032230
         H           -2.950545033655     2.384117811408     0.913392875380     1.007825032230
         H            3.935738966345    -1.054205188592    -0.431247124620     1.007825032230
         H            4.125439966345    -0.166694188592     1.095516875380     1.007825032230
         H            4.473277966345     0.644806811408    -0.439513124620     1.007825032230

  Basis Set: AUG-CC-PVTZ
    Blend: AUG-CC-PVTZ
  Basis Set: (AUG-CC-PVTZ AUX)
    Blend: AUG-CC-PVTZ-JKFIT
	 Reference Energy          =    -797.3186927110913302 [Eh]
	 Singles Energy            =      -0.0000000000000000 [Eh]
	 Same-Spin Energy          =      -0.4856056603332105 [Eh]
	 Opposite-Spin Energy      =      -1.5019210326155790 [Eh]
	 Correlation Energy        =      -1.9875266929487894 [Eh]
	 Total Energy              =    -799.3062194040401209 [Eh]

	 ================> DF-SCS-MP2 Energies <==================
	-----------------------------------------------------------
	 SCS Same-Spin Scale       =       0.3333333333333333 [-]
	 SCS Opposite-Spin Scale   =       1.2000000000000000 [-]
	 SCS Same-Spin Energy      =      -0.1618685534444035 [Eh]
	 SCS Opposite-Spin Energy  =      -1.8023052391386947 [Eh]
	 SCS Correlation Energy    =      -1.9641737925830982 [Eh]
	 SCS Total Energy          =    -799.2828665036744269 [Eh]
	-----------------------------------------------------------

  Dipole Moment: [D]
     X:     0.4297      Y:    -2.5188      Z:    -0.0048     Total:     2.5552

*** Psi4 exiting successfully. Buy a developer a beer!
