                               Psi4 1.3.2 release

  ==> Input File <==

--------------------------------------------------------------------------
#psi4
#
memory 32 gb

molecule  {
0 1
  S       -1.0050790    -1.7376190    -0.0151270
  O        2.1293390     1.6156530    -0.0602560
  N        1.4328010    -0.5712990    -0.0002240
  C       -2.0712570     0.6114660     0.0102110
  C        0.0482060    -0.3546190     0.0027700
  C       -0.6600310     0.8254930     0.0130800
  C       -2.4003070    -0.7218620    -0.0026000
  C       -3.0748160     1.7280810     0.0214760
  C        2.3954760     0.4154750    -0.0251370
  C        3.8156290    -0.1071950     0.0454080
  H       -0.1788490     1.7941090     0.0202490
  H       -3.3868100    -1.1685230    -0.0043580
  H        1.7500081    -1.5341437    -0.0199621
  H       -2.9559420     2.3719740    -0.8556620
  H       -4.0955650     1.3361040     0.0184570
  H       -2.9548850     2.3555760     0.9102830
  H        3.9313990    -1.0827470    -0.4343570
  H        4.1211000    -0.1952360     1.0924070
  H        4.4689380     0.6162650    -0.4426230
units angstrom
no_reorient  #important for SAPT in psi4, default
symmetry c1  #important for SAPT in psi4, default
}

set PROPERTIES_ORIGIN ["COM"]
properties('MP2/aug-cc-pvtz', properties = ['dipole'])
--------------------------------------------------------------------------

    Molecular point group: c1
  Charge       = 0
  Multiplicity = 1
  Basis Set: AUG-CC-PVTZ
    Blend: AUG-CC-PVTZ
  Basis Set: (AUG-CC-PVTZ AUX)
    Blend: AUG-CC-PVTZ-JKFIT

    Orbital Energies [Eh]
    ---------------------

    Doubly Occupied:

       1A    -91.984408     2A    -20.533023     3A    -15.619328
       4A    -11.369325     5A    -11.311717     6A    -11.249505
       7A    -11.249273     8A    -11.244944     9A    -11.225982
      10A    -11.221988    11A     -8.984890    12A     -6.666054
      13A     -6.665500    14A     -6.664610    15A     -1.388815
      16A     -1.264879    17A     -1.159586    18A     -1.038156
      19A     -1.012115    20A     -0.971820    21A     -0.912757
      22A     -0.825692    23A     -0.785196    24A     -0.727403
      25A     -0.688184    26A     -0.673831    27A     -0.632874
      28A     -0.610155    29A     -0.592849    30A     -0.580902
      31A     -0.577470    32A     -0.560869    33A     -0.557876
      34A     -0.523524    35A     -0.516185    36A     -0.503129
      37A     -0.473000    38A     -0.442526    39A     -0.433686
      40A     -0.340312    41A     -0.295554

  @DF-RHF Final Energy:  -797.31942408345662

   => Energetics <=

    Nuclear Repulsion Energy =            584.8261402355196878
    One-Electron Energy =               -2254.1313472826959696
    Two-Electron Energy =                 871.9857829637196573
    Total Energy =                       -797.3194240834566244
  Basis Set: (AUG-CC-PVTZ AUX)
    Blend: AUG-CC-PVTZ-RI
    Molecular point group: c1

    Geometry (in Angstrom), charge = 0, multiplicity = 1:

       Center              X                  Y                   Z               Mass
    ------------   -----------------  -----------------  -----------------  -----------------
         S           -1.000740929822    -1.709094956133    -0.012666918816    31.972071174400
         O            2.133677070178     1.644177043867    -0.057795918816    15.994914619570
         N            1.437139070178    -0.542774956133     0.002236081184    14.003074004430
         C           -2.066918929822     0.639990043867     0.012671081184    12.000000000000
         C            0.052544070178    -0.326094956133     0.005230081184    12.000000000000
         C           -0.655692929822     0.854017043867     0.015540081184    12.000000000000
         C           -2.395968929822    -0.693337956133    -0.000139918816    12.000000000000
         C           -3.070477929822     1.756605043867     0.023936081184    12.000000000000
         C            2.399814070178     0.443999043867    -0.022676918816    12.000000000000
         C            3.819967070178    -0.078670956133     0.047868081184    12.000000000000
         H           -0.174510929822     1.822633043867     0.022709081184     1.007825032230
         H           -3.382471929822    -1.139998956133    -0.001897918816     1.007825032230
         H            1.754346170178    -1.505619656133    -0.017502018816     1.007825032230
         H           -2.951603929822     2.400498043867    -0.853201918816     1.007825032230
         H           -4.091226929822     1.364628043867     0.020917081184     1.007825032230
         H           -2.950546929822     2.384100043867     0.912743081184     1.007825032230
         H            3.935737070178    -1.054222956133    -0.431896918816     1.007825032230
         H            4.125438070178    -0.166711956133     1.094867081184     1.007825032230
         H            4.473276070178     0.644789043867    -0.440162918816     1.007825032230

  Basis Set: AUG-CC-PVTZ
    Blend: AUG-CC-PVTZ
  Basis Set: (AUG-CC-PVTZ AUX)
    Blend: AUG-CC-PVTZ-JKFIT
	 Reference Energy          =    -797.3194240834566244 [Eh]
	 Singles Energy            =      -0.0000000000000000 [Eh]
	 Same-Spin Energy          =      -0.4855365043610887 [Eh]
	 Opposite-Spin Energy      =      -1.5017215721732391 [Eh]
	 Correlation Energy        =      -1.9872580765343280 [Eh]
	 Total Energy              =    -799.3066821599909417 [Eh]

	 ================> DF-SCS-MP2 Energies <==================
	-----------------------------------------------------------
	 SCS Same-Spin Scale       =       0.3333333333333333 [-]
	 SCS Opposite-Spin Scale   =       1.2000000000000000 [-]
	 SCS Same-Spin Energy      =      -0.1618455014536962 [Eh]
	 SCS Opposite-Spin Energy  =      -1.8020658866078869 [Eh]
	 SCS Correlation Energy    =      -1.9639113880615833 [Eh]
	 SCS Total Energy          =    -799.2833354715181713 [Eh]
	-----------------------------------------------------------

  Dipole Moment: [D]
     X:     0.4297      Y:    -2.5279      Z:     0.1168     Total:     2.5668

*** Psi4 exiting successfully. Buy a developer a beer!
