                               Psi4 1.3.2 release

  ==> Input File <==

--------------------------------------------------------------------------
#psi4
#
memory 32 gb

molecule  {
0 1
  S       -1.0050790    -1.7376190    -0.0151270
  O        2.1293390     1.6156530    -0.0602560
  N        1.4328010    -0.5712990    -0.0002240
  C       -2.0712570     0.6114660     0.0102110
  C        0.0482060    -0.3546190     0.0027700
  C       -0.6601216     0.8244048     0.1130740
  C       -2.4003070    -0.7218620    -0.0026000
  C       -3.0748160     1.7280810     0.0214760
  C        2.3954760     0.4154750    -0.0251370
  C        3.8156290    -0.1071950     0.0454080
  H       -0.1788490     1.7941090     0.0202490
  H       -3.3868100    -1.1685230    -0.0043580
  H        1.7501540    -1.5327770     0.0300190
  H       -2.9559420     2.3719740    -0.8556620
  H       -4.0955650     1.3361040     0.0184570
  H       -2.9548850     2.3555760     0.9102830
  H        3.9313990    -1.0827470    -0.4343570
  H        4.1211000    -0.1952360     1.0924070
  H        4.4689380     0.6162650    -0.4426230
units angstrom
no_reorient  #important for SAPT in psi4, default
symmetry c1  #important for SAPT in psi4, default
}

set PROPERTIES_ORIGIN ["COM"]
properties('MP2/aug-cc-pvtz', properties = ['dipole'])
--------------------------------------------------------------------------

    Molecular point group: c1
  Charge       = 0
  Multiplicity = 1
  Basis Set: AUG-CC-PVTZ
    Blend: AUG-CC-PVTZ
  Basis Set: (AUG-CC-PVTZ AUX)
    Blend: AUG-CC-PVTZ-JKFIT

    Orbital Energies [Eh]
    ---------------------

    Doubly Occupied:

       1A    -91.984606     2A    -20.533177     3A    -15.619525
       4A    -11.369525     5A    -11.312909     6A    -11.249611
       7A    -11.249180     8A    -11.245285     9A    -11.225866
      10A    -11.222721    11A     -8.985099    12A     -6.666261
      13A     -6.665704    14A     -6.664816    15A     -1.388965
      16A     -1.265213    17A     -1.159218    18A     -1.038173
      19A     -1.012123    20A     -0.971285    21A     -0.912723
      22A     -0.825902    23A     -0.785024    24A     -0.726781
      25A     -0.687811    26A     -0.673365    27A     -0.633000
      28A     -0.610083    29A     -0.592860    30A     -0.581142
      31A     -0.576762    32A     -0.560056    33A     -0.558712
      34A     -0.522885    35A     -0.515234    36A     -0.502832
      37A     -0.472795    38A     -0.442413    39A     -0.433647
      40A     -0.340277    41A     -0.295684

  @DF-RHF Final Energy:  -797.31670773677058

   => Energetics <=

    Nuclear Repulsion Energy =            584.6953650078580722
    One-Electron Energy =               -2253.8656513089458713
    Two-Electron Energy =                 871.8535785643172176
    Total Energy =                       -797.3167077367705815
  Basis Set: (AUG-CC-PVTZ AUX)
    Blend: AUG-CC-PVTZ-RI
    Molecular point group: c1

    Geometry (in Angstrom), charge = 0, multiplicity = 1:

       Center              X                  Y                   Z               Mass
    ------------   -----------------  -----------------  -----------------  -----------------
         S           -1.000734865868    -1.709019614486    -0.020731265383    31.972071174400
         O            2.133683134132     1.644252385514    -0.065860265383    15.994914619570
         N            1.437145134132    -0.542699614486    -0.005828265383    14.003074004430
         C           -2.066912865868     0.640065385514     0.004606734617    12.000000000000
         C            0.052550134132    -0.326019614486    -0.002834265383    12.000000000000
         C           -0.655777465868     0.853004185514     0.107469734617    12.000000000000
         C           -2.395962865868    -0.693262614486    -0.008204265383    12.000000000000
         C           -3.070471865868     1.756680385514     0.015871734617    12.000000000000
         C            2.399820134132     0.444074385514    -0.030741265383    12.000000000000
         C            3.819973134132    -0.078595614486     0.039803734617    12.000000000000
         H           -0.174504865868     1.822708385514     0.014644734617     1.007825032230
         H           -3.382465865868    -1.139923614486    -0.009962265383     1.007825032230
         H            1.754498134132    -1.504177614486     0.024414734617     1.007825032230
         H           -2.951597865868     2.400573385514    -0.861266265383     1.007825032230
         H           -4.091220865868     1.364703385514     0.012852734617     1.007825032230
         H           -2.950540865868     2.384175385514     0.904678734617     1.007825032230
         H            3.935743134132    -1.054147614486    -0.439961265383     1.007825032230
         H            4.125444134132    -0.166636614486     1.086802734617     1.007825032230
         H            4.473282134132     0.644864385514    -0.448227265383     1.007825032230

  Basis Set: AUG-CC-PVTZ
    Blend: AUG-CC-PVTZ
  Basis Set: (AUG-CC-PVTZ AUX)
    Blend: AUG-CC-PVTZ-JKFIT
	 Reference Energy          =    -797.3167077367705815 [Eh]
	 Singles Energy            =      -0.0000000000000000 [Eh]
	 Same-Spin Energy          =      -0.4856686296086518 [Eh]
	 Opposite-Spin Energy      =      -1.5019784688058304 [Eh]
	 Correlation Energy        =      -1.9876470984144823 [Eh]
	 Total Energy              =    -799.3043548351851086 [Eh]

	 ================> DF-SCS-MP2 Energies <==================
	-----------------------------------------------------------
	 SCS Same-Spin Scale       =       0.3333333333333333 [-]
	 SCS Opposite-Spin Scale   =       1.2000000000000000 [-]
	 SCS Same-Spin Energy      =      -0.1618895432028839 [Eh]
	 SCS Opposite-Spin Energy  =      -1.8023741625669965 [Eh]
	 SCS Correlation Energy    =      -1.9642637057698804 [Eh]
	 SCS Total Energy          =    -799.2809714425404763 [Eh]
	-----------------------------------------------------------

  Dipole Moment: [D]
     X:     0.4340      Y:    -2.5431      Z:     0.1199     Total:     2.5826

*** Psi4 exiting successfully. Buy a developer a beer!
