                               Psi4 1.3.2 release

  ==> Input File <==

--------------------------------------------------------------------------
#psi4
#
memory 32 gb

molecule  {
0 1
  S       -1.0050790    -1.7376190    -0.0151270
  O        2.1293390     1.6156530    -0.0602560
  N        1.4328010    -0.5712990    -0.0002240
  C       -2.0712570     0.6114660     0.0102110
  C        0.0482060    -0.3546190     0.0027700
  C       -0.6602576     0.8227724     0.2630651
  C       -2.4003070    -0.7218620    -0.0026000
  C       -3.0748160     1.7280810     0.0214760
  C        2.3954760     0.4154750    -0.0251370
  C        3.8156290    -0.1071950     0.0454080
  H       -0.1788490     1.7941090     0.0202490
  H       -3.3868100    -1.1685230    -0.0043580
  H        1.7501540    -1.5327770     0.0300190
  H       -2.9559420     2.3719740    -0.8556620
  H       -4.0955650     1.3361040     0.0184570
  H       -2.9548850     2.3555760     0.9102830
  H        3.9313990    -1.0827470    -0.4343570
  H        4.1211000    -0.1952360     1.0924070
  H        4.4689380     0.6162650    -0.4426230
units angstrom
no_reorient  #important for SAPT in psi4, default
symmetry c1  #important for SAPT in psi4, default
}

set PROPERTIES_ORIGIN ["COM"]
properties('MP2/aug-cc-pvtz', properties = ['dipole'])
--------------------------------------------------------------------------

    Molecular point group: c1
  Charge       = 0
  Multiplicity = 1
  Basis Set: AUG-CC-PVTZ
    Blend: AUG-CC-PVTZ
  Basis Set: (AUG-CC-PVTZ AUX)
    Blend: AUG-CC-PVTZ-JKFIT

    Orbital Energies [Eh]
    ---------------------

    Doubly Occupied:

       1A    -91.985661     2A    -20.534250     3A    -15.621286
       4A    -11.370604     5A    -11.319118     6A    -11.250384
       7A    -11.248682     8A    -11.246819     9A    -11.226281
      10A    -11.225222    11A     -8.986208    12A     -6.667367
      13A     -6.666791    14A     -6.665919    15A     -1.389906
      16A     -1.266632    17A     -1.157181    18A     -1.038296
      19A     -1.012166    20A     -0.968249    21A     -0.912517
      22A     -0.826847    23A     -0.783707    24A     -0.723972
      25A     -0.685769    26A     -0.670549    27A     -0.633634
      28A     -0.609656    29A     -0.592901    30A     -0.581212
      31A     -0.574901    32A     -0.559992    33A     -0.558014
      34A     -0.520256    35A     -0.510439    36A     -0.501252
      37A     -0.471587    38A     -0.442331    39A     -0.433327
      40A     -0.340093    41A     -0.295908

  @DF-RHF Final Energy:  -797.30179138180631

   => Energetics <=

    Nuclear Repulsion Energy =            584.0234813890971282
    One-Electron Energy =               -2252.4987773576740437
    Two-Electron Energy =                 871.1735045867707186
    Total Energy =                       -797.3017913818063107
  Basis Set: (AUG-CC-PVTZ AUX)
    Blend: AUG-CC-PVTZ-RI
    Molecular point group: c1

    Geometry (in Angstrom), charge = 0, multiplicity = 1:

       Center              X                  Y                   Z               Mass
    ------------   -----------------  -----------------  -----------------  -----------------
         S           -1.000724339585    -1.708893268132    -0.032340447327    31.972071174400
         O            2.133693660415     1.644378731868    -0.077469447327    15.994914619570
         N            1.437155660415    -0.542573268132    -0.017437447327    14.003074004430
         C           -2.066902339585     0.640191731868    -0.007002447327    12.000000000000
         C            0.052560660415    -0.325893268132    -0.014443447327    12.000000000000
         C           -0.655902939585     0.851498131868     0.245851652673    12.000000000000
         C           -2.395952339585    -0.693136268132    -0.019813447327    12.000000000000
         C           -3.070461339585     1.756806731868     0.004262552673    12.000000000000
         C            2.399830660415     0.444200731868    -0.042350447327    12.000000000000
         C            3.819983660415    -0.078469268132     0.028194552673    12.000000000000
         H           -0.174494339585     1.822834731868     0.003035552673     1.007825032230
         H           -3.382455339585    -1.139797268132    -0.021571447327     1.007825032230
         H            1.754508660415    -1.504051268132     0.012805552673     1.007825032230
         H           -2.951587339585     2.400699731868    -0.872875447327     1.007825032230
         H           -4.091210339585     1.364829731868     0.001243552673     1.007825032230
         H           -2.950530339585     2.384301731868     0.893069552673     1.007825032230
         H            3.935753660415    -1.054021268132    -0.451570447327     1.007825032230
         H            4.125454660415    -0.166510268132     1.075193552673     1.007825032230
         H            4.473292660415     0.644990731868    -0.459836447327     1.007825032230

  Basis Set: AUG-CC-PVTZ
    Blend: AUG-CC-PVTZ
  Basis Set: (AUG-CC-PVTZ AUX)
    Blend: AUG-CC-PVTZ-JKFIT
	 Reference Energy          =    -797.3017913818063107 [Eh]
	 Singles Energy            =      -0.0000000000000000 [Eh]
	 Same-Spin Energy          =      -0.4864052667934852 [Eh]
	 Opposite-Spin Energy      =      -1.5039391943373930 [Eh]
	 Correlation Energy        =      -1.9903444611308783 [Eh]
	 Total Energy              =    -799.2921358429372276 [Eh]

	 ================> DF-SCS-MP2 Energies <==================
	-----------------------------------------------------------
	 SCS Same-Spin Scale       =       0.3333333333333333 [-]
	 SCS Opposite-Spin Scale   =       1.2000000000000000 [-]
	 SCS Same-Spin Energy      =      -0.1621350889311617 [Eh]
	 SCS Opposite-Spin Energy  =      -1.8047270332048715 [Eh]
	 SCS Correlation Energy    =      -1.9668621221360332 [Eh]
	 SCS Total Energy          =    -799.2686535039423461 [Eh]
	-----------------------------------------------------------

  Dipole Moment: [D]
     X:     0.4664      Y:    -2.6202      Z:     0.0262     Total:     2.6615

*** Psi4 exiting successfully. Buy a developer a beer!
