                               Psi4 1.3.2 release

  ==> Input File <==

--------------------------------------------------------------------------
#psi4
#
memory 32 gb

molecule  {
0 1
  S       -1.0050790    -1.7376190    -0.0151270
  O        2.1293390     1.6156530    -0.0602560
  N        1.4328010    -0.5712990    -0.0002240
  C       -2.0712570     0.6114660     0.0102110
  C        0.0482060    -0.3546190     0.0027700
  C       -0.6600763     0.8249489     0.0630770
  C       -2.4003070    -0.7218620    -0.0026000
  C       -3.0748160     1.7280810     0.0214760
  C        2.3954760     0.4154750    -0.0251370
  C        3.8156290    -0.1071950     0.0454080
  H       -0.1788490     1.7941090     0.0202490
  H       -3.3868100    -1.1685230    -0.0043580
  H        1.7501540    -1.5327770     0.0300190
  H       -2.9559420     2.3719740    -0.8556620
  H       -4.0955650     1.3361040     0.0184570
  H       -2.9548850     2.3555760     0.9102830
  H        3.9313990    -1.0827470    -0.4343570
  H        4.1211000    -0.1952360     1.0924070
  H        4.4689380     0.6162650    -0.4426230
units angstrom
no_reorient  #important for SAPT in psi4, default
symmetry c1  #important for SAPT in psi4, default
}

set PROPERTIES_ORIGIN ["COM"]
properties('MP2/aug-cc-pvtz', properties = ['dipole'])
--------------------------------------------------------------------------

    Molecular point group: c1
  Charge       = 0
  Multiplicity = 1
  Basis Set: AUG-CC-PVTZ
    Blend: AUG-CC-PVTZ
  Basis Set: (AUG-CC-PVTZ AUX)
    Blend: AUG-CC-PVTZ-JKFIT

    Orbital Energies [Eh]
    ---------------------

    Doubly Occupied:

       1A    -91.984457     2A    -20.533026     3A    -15.619290
       4A    -11.369371     5A    -11.312005     6A    -11.249503
       7A    -11.249269     8A    -11.245032     9A    -11.225957
      10A    -11.222192    11A     -8.984942    12A     -6.666105
      13A     -6.665550    14A     -6.664661    15A     -1.388835
      16A     -1.265019    17A     -1.159514    18A     -1.038162
      19A     -1.012119    20A     -0.971706    21A     -0.912751
      22A     -0.825773    23A     -0.785257    24A     -0.727257
      25A     -0.688171    26A     -0.673703    27A     -0.632918
      28A     -0.610169    29A     -0.592863    30A     -0.580971
      31A     -0.577238    32A     -0.560352    33A     -0.558459
      34A     -0.523318    35A     -0.515937    36A     -0.503049
      37A     -0.472947    38A     -0.442454    39A     -0.433660
      40A     -0.340310    41A     -0.295633

  @DF-RHF Final Energy:  -797.31880420677294

   => Energetics <=

    Nuclear Repulsion Energy =            584.7953737451491634
    One-Electron Energy =               -2254.0685526057395691
    Two-Electron Energy =                 871.9543746538174673
    Total Energy =                       -797.3188042067729384
  Basis Set: (AUG-CC-PVTZ AUX)
    Blend: AUG-CC-PVTZ-RI
    Molecular point group: c1

    Geometry (in Angstrom), charge = 0, multiplicity = 1:

       Center              X                  Y                   Z               Mass
    ------------   -----------------  -----------------  -----------------  -----------------
         S           -1.000738372049    -1.709061727357    -0.016861540649    31.972071174400
         O            2.133679627951     1.644210272643    -0.061990540649    15.994914619570
         N            1.437141627951    -0.542741727357    -0.001958540649    14.003074004430
         C           -2.066916372049     0.640023272643     0.008476459351    12.000000000000
         C            0.052546627951    -0.326061727357     0.001035459351    12.000000000000
         C           -0.655735672049     0.853506172643     0.061342459351    12.000000000000
         C           -2.395966372049    -0.693304727357    -0.004334540649    12.000000000000
         C           -3.070475372049     1.756638272643     0.019741459351    12.000000000000
         C            2.399816627951     0.444032272643    -0.026871540649    12.000000000000
         C            3.819969627951    -0.078637727357     0.043673459351    12.000000000000
         H           -0.174508372049     1.822666272643     0.018514459351     1.007825032230
         H           -3.382469372049    -1.139965727357    -0.006092540649     1.007825032230
         H            1.754494627951    -1.504219727357     0.028284459351     1.007825032230
         H           -2.951601372049     2.400531272643    -0.857396540649     1.007825032230
         H           -4.091224372049     1.364661272643     0.016722459351     1.007825032230
         H           -2.950544372049     2.384133272643     0.908548459351     1.007825032230
         H            3.935739627951    -1.054189727357    -0.436091540649     1.007825032230
         H            4.125440627951    -0.166678727357     1.090672459351     1.007825032230
         H            4.473278627951     0.644822272643    -0.444357540649     1.007825032230

  Basis Set: AUG-CC-PVTZ
    Blend: AUG-CC-PVTZ
  Basis Set: (AUG-CC-PVTZ AUX)
    Blend: AUG-CC-PVTZ-JKFIT
	 Reference Energy          =    -797.3188042067729384 [Eh]
	 Singles Energy            =      -0.0000000000000000 [Eh]
	 Same-Spin Energy          =      -0.4855600864667637 [Eh]
	 Opposite-Spin Energy      =      -1.5017547671315161 [Eh]
	 Correlation Energy        =      -1.9873148535982799 [Eh]
	 Total Energy              =    -799.3061190603712021 [Eh]

	 ================> DF-SCS-MP2 Energies <==================
	-----------------------------------------------------------
	 SCS Same-Spin Scale       =       0.3333333333333333 [-]
	 SCS Opposite-Spin Scale   =       1.2000000000000000 [-]
	 SCS Same-Spin Energy      =      -0.1618533621555879 [Eh]
	 SCS Opposite-Spin Energy  =      -1.8021057205578193 [Eh]
	 SCS Correlation Energy    =      -1.9639590827134072 [Eh]
	 SCS Total Energy          =    -799.2827632894862973 [Eh]
	-----------------------------------------------------------

  Dipole Moment: [D]
     X:     0.4301      Y:    -2.5316      Z:     0.1491     Total:     2.5722

*** Psi4 exiting successfully. Buy a developer a beer!
