                               Psi4 1.3.2 release

  ==> Input File <==

--------------------------------------------------------------------------
#psi4
#
memory 32 gb

molecule  {
0 1
  S       -1.0050790    -1.7376190    -0.0151270
  O        2.1293390     1.6156530    -0.0602560
  N        1.4328010    -0.5712990    -0.0002240
  C       -2.0712570     0.6114660     0.0102110
  C        0.0482060    -0.3546190     0.0027700
  C       -0.6600310     0.8254930     0.0130800
  C       -2.4003070    -0.7218620    -0.0026000
  C       -3.0748160     1.7280810     0.0214760
  C        2.3954760     0.4154750    -0.0251370
  C        3.8156290    -0.1071950     0.0454080
  H       -0.1788490     1.7941090     0.0202490
  H       -3.3865919    -1.1695026     0.0956370
  H        1.7501540    -1.5327770     0.0300190
  H       -2.9559420     2.3719740    -0.8556620
  H       -4.0955650     1.3361040     0.0184570
  H       -2.9548850     2.3555760     0.9102830
  H        3.9313990    -1.0827470    -0.4343570
  H        4.1211000    -0.1952360     1.0924070
  H        4.4689380     0.6162650    -0.4426230
units angstrom
no_reorient  #important for SAPT in psi4, default
symmetry c1  #important for SAPT in psi4, default
}

set PROPERTIES_ORIGIN ["COM"]
properties('MP2/aug-cc-pvtz', properties = ['dipole'])
--------------------------------------------------------------------------

    Molecular point group: c1
  Charge       = 0
  Multiplicity = 1
  Basis Set: AUG-CC-PVTZ
    Blend: AUG-CC-PVTZ
  Basis Set: (AUG-CC-PVTZ AUX)
    Blend: AUG-CC-PVTZ-JKFIT

    Orbital Energies [Eh]
    ---------------------

    Doubly Occupied:

       1A    -91.984351     2A    -20.533042     3A    -15.619307
       4A    -11.369381     5A    -11.311839     6A    -11.249561
       7A    -11.249515     8A    -11.245116     9A    -11.226022
      10A    -11.222058    11A     -8.984840    12A     -6.666003
      13A     -6.665446    14A     -6.664557    15A     -1.388860
      16A     -1.265036    17A     -1.159630    18A     -1.038205
      19A     -1.012140    20A     -0.971745    21A     -0.912749
      22A     -0.825736    23A     -0.785129    24A     -0.727049
      25A     -0.688259    26A     -0.673709    27A     -0.632938
      28A     -0.610179    29A     -0.592905    30A     -0.581242
      31A     -0.576953    32A     -0.560264    33A     -0.558254
      34A     -0.523563    35A     -0.516375    36A     -0.502756
      37A     -0.472980    38A     -0.442403    39A     -0.433703
      40A     -0.340333    41A     -0.295653

  @DF-RHF Final Energy:  -797.31901587453115

   => Energetics <=

    Nuclear Repulsion Energy =            584.8125175987232751
    One-Electron Energy =               -2254.1034948952924424
    Two-Electron Energy =                 871.9719614220379071
    Total Energy =                       -797.3190158745311464
  Basis Set: (AUG-CC-PVTZ AUX)
    Blend: AUG-CC-PVTZ-RI
    Molecular point group: c1

    Geometry (in Angstrom), charge = 0, multiplicity = 1:

       Center              X                  Y                   Z               Mass
    ------------   -----------------  -----------------  -----------------  -----------------
         S           -1.000743295967    -1.709097472438    -0.013641823324    31.972071174400
         O            2.133674704033     1.644174527562    -0.058770823324    15.994914619570
         N            1.437136704033    -0.542777472438     0.001261176676    14.003074004430
         C           -2.066921295967     0.639987527562     0.011696176676    12.000000000000
         C            0.052541704033    -0.326097472438     0.004255176676    12.000000000000
         C           -0.655695295967     0.854014527562     0.014565176676    12.000000000000
         C           -2.395971295967    -0.693340472438    -0.001114823324    12.000000000000
         C           -3.070480295967     1.756602527562     0.022961176676    12.000000000000
         C            2.399811704033     0.443996527562    -0.023651823324    12.000000000000
         C            3.819964704033    -0.078673472438     0.046893176676    12.000000000000
         H           -0.174513295967     1.822630527562     0.021734176676     1.007825032230
         H           -3.382256195967    -1.140981072438     0.097122176676     1.007825032230
         H            1.754489704033    -1.504255472438     0.031504176676     1.007825032230
         H           -2.951606295967     2.400495527562    -0.854176823324     1.007825032230
         H           -4.091229295967     1.364625527562     0.019942176676     1.007825032230
         H           -2.950549295967     2.384097527562     0.911768176676     1.007825032230
         H            3.935734704033    -1.054225472438    -0.432871823324     1.007825032230
         H            4.125435704033    -0.166714472438     1.093892176676     1.007825032230
         H            4.473273704033     0.644786527562    -0.441137823324     1.007825032230

  Basis Set: AUG-CC-PVTZ
    Blend: AUG-CC-PVTZ
  Basis Set: (AUG-CC-PVTZ AUX)
    Blend: AUG-CC-PVTZ-JKFIT
	 Reference Energy          =    -797.3190158745311464 [Eh]
	 Singles Energy            =      -0.0000000000000000 [Eh]
	 Same-Spin Energy          =      -0.4855651471900075 [Eh]
	 Opposite-Spin Energy      =      -1.5017607364868419 [Eh]
	 Correlation Energy        =      -1.9873258836768495 [Eh]
	 Total Energy              =    -799.3063417582079637 [Eh]

	 ================> DF-SCS-MP2 Energies <==================
	-----------------------------------------------------------
	 SCS Same-Spin Scale       =       0.3333333333333333 [-]
	 SCS Opposite-Spin Scale   =       1.2000000000000000 [-]
	 SCS Same-Spin Energy      =      -0.1618550490633358 [Eh]
	 SCS Opposite-Spin Energy  =      -1.8021128837842102 [Eh]
	 SCS Correlation Energy    =      -1.9639679328475461 [Eh]
	 SCS Total Energy          =    -799.2829838073787414 [Eh]
	-----------------------------------------------------------

  Dipole Moment: [D]
     X:     0.4398      Y:    -2.5223      Z:     0.2576     Total:     2.5733

*** Psi4 exiting successfully. Buy a developer a beer!
