                               Psi4 1.3.2 release

  ==> Input File <==

--------------------------------------------------------------------------
#psi4
#
memory 32 gb

molecule  {
0 1
  S       -1.0050790    -1.7376190    -0.0151270
  O        2.1293390     1.6156530    -0.0602560
  N        1.4328010    -0.5712990    -0.0002240
  C       -2.0712570     0.6114660     0.0102110
  C        0.0482060    -0.3546190     0.0027700
  C       -0.6600310     0.8254930     0.0130800
  C       -2.4003070    -0.7218620    -0.0026000
  C       -3.0748160     1.7280810     0.0214760
  C        2.3954760     0.4154750    -0.0251370
  C        3.8156290    -0.1071950     0.0454080
  H       -0.1788490     1.7941090     0.0202490
  H       -3.3864829    -1.1699924     0.1456344
  H        1.7501540    -1.5327770     0.0300190
  H       -2.9559420     2.3719740    -0.8556620
  H       -4.0955650     1.3361040     0.0184570
  H       -2.9548850     2.3555760     0.9102830
  H        3.9313990    -1.0827470    -0.4343570
  H        4.1211000    -0.1952360     1.0924070
  H        4.4689380     0.6162650    -0.4426230
units angstrom
no_reorient  #important for SAPT in psi4, default
symmetry c1  #important for SAPT in psi4, default
}

set PROPERTIES_ORIGIN ["COM"]
properties('MP2/aug-cc-pvtz', properties = ['dipole'])
--------------------------------------------------------------------------

    Molecular point group: c1
  Charge       = 0
  Multiplicity = 1
  Basis Set: AUG-CC-PVTZ
    Blend: AUG-CC-PVTZ
  Basis Set: (AUG-CC-PVTZ AUX)
    Blend: AUG-CC-PVTZ-JKFIT

    Orbital Energies [Eh]
    ---------------------

    Doubly Occupied:

       1A    -91.984301     2A    -20.533120     3A    -15.619398
       4A    -11.369456     5A    -11.312001     6A    -11.249910
       7A    -11.249569     8A    -11.245322     9A    -11.226065
      10A    -11.222121    11A     -8.984796    12A     -6.665959
      13A     -6.665397    14A     -6.664510    15A     -1.388938
      16A     -1.265125    17A     -1.159663    18A     -1.038261
      19A     -1.012170    20A     -0.971635    21A     -0.912739
      22A     -0.825735    23A     -0.784872    24A     -0.726588
      25A     -0.688253    26A     -0.673568    27A     -0.632995
      28A     -0.610164    29A     -0.592942    30A     -0.581578
      31A     -0.576501    32A     -0.559840    33A     -0.558328
      34A     -0.523608    35A     -0.516489    36A     -0.502409
      37A     -0.472970    38A     -0.442310    39A     -0.433771
      40A     -0.340367    41A     -0.295727

  @DF-RHF Final Energy:  -797.31839108505153

   => Energetics <=

    Nuclear Repulsion Energy =            584.7891434578704093
    One-Electron Energy =               -2254.0561310289890571
    Two-Electron Energy =                 871.9485964860670038
    Total Energy =                       -797.3183910850515304
  Basis Set: (AUG-CC-PVTZ AUX)
    Blend: AUG-CC-PVTZ-RI
    Molecular point group: c1

    Geometry (in Angstrom), charge = 0, multiplicity = 1:

       Center              X                  Y                   Z               Mass
    ------------   -----------------  -----------------  -----------------  -----------------
         S           -1.000744004511    -1.709094288542    -0.013966826379    31.972071174400
         O            2.133673995489     1.644177711458    -0.059095826379    15.994914619570
         N            1.437135995489    -0.542774288542     0.000936173621    14.003074004430
         C           -2.066922004511     0.639990711458     0.011371173621    12.000000000000
         C            0.052540995489    -0.326094288542     0.003930173621    12.000000000000
         C           -0.655696004511     0.854017711458     0.014240173621    12.000000000000
         C           -2.395972004511    -0.693337288542    -0.001439826379    12.000000000000
         C           -3.070481004511     1.756605711458     0.022636173621    12.000000000000
         C            2.399810995489     0.443999711458    -0.023976826379    12.000000000000
         C            3.819963995489    -0.078670288542     0.046568173621    12.000000000000
         H           -0.174514004511     1.822633711458     0.021409173621     1.007825032230
         H           -3.382147904511    -1.141467688542     0.146794573621     1.007825032230
         H            1.754488995489    -1.504252288542     0.031179173621     1.007825032230
         H           -2.951607004511     2.400498711458    -0.854501826379     1.007825032230
         H           -4.091230004511     1.364628711458     0.019617173621     1.007825032230
         H           -2.950550004511     2.384100711458     0.911443173621     1.007825032230
         H            3.935733995489    -1.054222288542    -0.433196826379     1.007825032230
         H            4.125434995489    -0.166711288542     1.093567173621     1.007825032230
         H            4.473272995489     0.644789711458    -0.441462826379     1.007825032230

  Basis Set: AUG-CC-PVTZ
    Blend: AUG-CC-PVTZ
  Basis Set: (AUG-CC-PVTZ AUX)
    Blend: AUG-CC-PVTZ-JKFIT
	 Reference Energy          =    -797.3183910850515304 [Eh]
	 Singles Energy            =      -0.0000000000000000 [Eh]
	 Same-Spin Energy          =      -0.4856115140656426 [Eh]
	 Opposite-Spin Energy      =      -1.5018453434424246 [Eh]
	 Correlation Energy        =      -1.9874568575080671 [Eh]
	 Total Energy              =    -799.3058479425595806 [Eh]

	 ================> DF-SCS-MP2 Energies <==================
	-----------------------------------------------------------
	 SCS Same-Spin Scale       =       0.3333333333333333 [-]
	 SCS Opposite-Spin Scale   =       1.2000000000000000 [-]
	 SCS Same-Spin Energy      =      -0.1618705046885475 [Eh]
	 SCS Opposite-Spin Energy  =      -1.8022144121309094 [Eh]
	 SCS Correlation Energy    =      -1.9640849168194570 [Eh]
	 SCS Total Energy          =    -799.2824760018710322 [Eh]
	-----------------------------------------------------------

  Dipole Moment: [D]
     X:     0.4513      Y:    -2.5159      Z:     0.2971     Total:     2.5732

*** Psi4 exiting successfully. Buy a developer a beer!
