                               Psi4 1.3.2 release

  ==> Input File <==

--------------------------------------------------------------------------
#psi4
#
memory 32 gb

molecule  {
0 1
  S       -1.0050790    -1.7376190    -0.0151270
  O        2.1293390     1.6156530    -0.0602560
  N        1.4328010    -0.5712990    -0.0002240
  C       -2.0712570     0.6114660     0.0102110
  C        0.0482060    -0.3546190     0.0027700
  C       -0.6600310     0.8254930     0.0130800
  C       -2.4003070    -0.7218620    -0.0026000
  C       -3.0748160     1.7280810     0.0214760
  C        2.3954760     0.4154750    -0.0251370
  C        3.8156290    -0.1071950     0.0454080
  H       -0.1788490     1.7941090     0.0202490
  H       -3.3863739    -1.1704822     0.1956319
  H        1.7501540    -1.5327770     0.0300190
  H       -2.9559420     2.3719740    -0.8556620
  H       -4.0955650     1.3361040     0.0184570
  H       -2.9548850     2.3555760     0.9102830
  H        3.9313990    -1.0827470    -0.4343570
  H        4.1211000    -0.1952360     1.0924070
  H        4.4689380     0.6162650    -0.4426230
units angstrom
no_reorient  #important for SAPT in psi4, default
symmetry c1  #important for SAPT in psi4, default
}

set PROPERTIES_ORIGIN ["COM"]
properties('MP2/aug-cc-pvtz', properties = ['dipole'])
--------------------------------------------------------------------------

    Molecular point group: c1
  Charge       = 0
  Multiplicity = 1
  Basis Set: AUG-CC-PVTZ
    Blend: AUG-CC-PVTZ
  Basis Set: (AUG-CC-PVTZ AUX)
    Blend: AUG-CC-PVTZ-JKFIT

    Orbital Energies [Eh]
    ---------------------

    Doubly Occupied:

       1A    -91.984238     2A    -20.533229     3A    -15.619522
       4A    -11.369560     5A    -11.312225     6A    -11.250395
       7A    -11.249643     8A    -11.245607     9A    -11.226125
      10A    -11.222207    11A     -8.984741    12A     -6.665903
      13A     -6.665336    14A     -6.664451    15A     -1.389045
      16A     -1.265248    17A     -1.159709    18A     -1.038338
      19A     -1.012211    20A     -0.971488    21A     -0.912727
      22A     -0.825739    23A     -0.784534    24A     -0.725963
      25A     -0.688246    26A     -0.673365    27A     -0.633077
      28A     -0.610147    29A     -0.592990    30A     -0.581941
      31A     -0.576008    32A     -0.559253    33A     -0.558395
      34A     -0.523667    35A     -0.516604    36A     -0.501958
      37A     -0.472959    38A     -0.442187    39A     -0.433865
      40A     -0.340414    41A     -0.295826

  @DF-RHF Final Energy:  -797.31746551614810

   => Energetics <=

    Nuclear Repulsion Energy =            584.7568801588492988
    One-Electron Energy =               -2253.9905217807731788
    Two-Electron Energy =                 871.9161761057757758
    Total Energy =                       -797.3174655161481041
  Basis Set: (AUG-CC-PVTZ AUX)
    Blend: AUG-CC-PVTZ-RI
    Molecular point group: c1

    Geometry (in Angstrom), charge = 0, multiplicity = 1:

       Center              X                  Y                   Z               Mass
    ------------   -----------------  -----------------  -----------------  -----------------
         S           -1.000744713054    -1.709091104647    -0.014291830084    31.972071174400
         O            2.133673286946     1.644180895353    -0.059420830084    15.994914619570
         N            1.437135286946    -0.542771104647     0.000611169916    14.003074004430
         C           -2.066922713054     0.639993895353     0.011046169916    12.000000000000
         C            0.052540286946    -0.326091104647     0.003605169916    12.000000000000
         C           -0.655696713054     0.854020895353     0.013915169916    12.000000000000
         C           -2.395972713054    -0.693334104647    -0.001764830084    12.000000000000
         C           -3.070481713054     1.756608895353     0.022311169916    12.000000000000
         C            2.399810286946     0.444002895353    -0.024301830084    12.000000000000
         C            3.819963286946    -0.078667104647     0.046243169916    12.000000000000
         H           -0.174514713054     1.822636895353     0.021084169916     1.007825032230
         H           -3.382039613054    -1.141954304647     0.196467069916     1.007825032230
         H            1.754488286946    -1.504249104647     0.030854169916     1.007825032230
         H           -2.951607713054     2.400501895353    -0.854826830084     1.007825032230
         H           -4.091230713054     1.364631895353     0.019292169916     1.007825032230
         H           -2.950550713054     2.384103895353     0.911118169916     1.007825032230
         H            3.935733286946    -1.054219104647    -0.433521830084     1.007825032230
         H            4.125434286946    -0.166708104647     1.093242169916     1.007825032230
         H            4.473272286946     0.644792895353    -0.441787830084     1.007825032230

  Basis Set: AUG-CC-PVTZ
    Blend: AUG-CC-PVTZ
  Basis Set: (AUG-CC-PVTZ AUX)
    Blend: AUG-CC-PVTZ-JKFIT
	 Reference Energy          =    -797.3174655161481041 [Eh]
	 Singles Energy            =      -0.0000000000000000 [Eh]
	 Same-Spin Energy          =      -0.4856754284488678 [Eh]
	 Opposite-Spin Energy      =      -1.5019670483724736 [Eh]
	 Correlation Energy        =      -1.9876424768213414 [Eh]
	 Total Energy              =    -799.3051079929693969 [Eh]

	 ================> DF-SCS-MP2 Energies <==================
	-----------------------------------------------------------
	 SCS Same-Spin Scale       =       0.3333333333333333 [-]
	 SCS Opposite-Spin Scale   =       1.2000000000000000 [-]
	 SCS Same-Spin Energy      =      -0.1618918094829559 [Eh]
	 SCS Opposite-Spin Energy  =      -1.8023604580469683 [Eh]
	 SCS Correlation Energy    =      -1.9642522675299243 [Eh]
	 SCS Total Energy          =    -799.2817177836780047 [Eh]
	-----------------------------------------------------------

  Dipole Moment: [D]
     X:     0.4672      Y:    -2.5070      Z:     0.3361     Total:     2.5722

*** Psi4 exiting successfully. Buy a developer a beer!
