                               Psi4 1.3.2 release

  ==> Input File <==

--------------------------------------------------------------------------
#psi4
#
memory 32 gb

molecule  {
0 1
  S       -1.0050790    -1.7376190    -0.0151270
  O        2.1293390     1.6156530    -0.0602560
  N        1.4328010    -0.5712990    -0.0002240
  C       -2.0712570     0.6114660     0.0102110
  C        0.0482060    -0.3546190     0.0027700
  C       -0.6601670     0.8238607     0.1630711
  C       -2.4003070    -0.7218620    -0.0026000
  C       -3.0748160     1.7280810     0.0214760
  C        2.3954760     0.4154750    -0.0251370
  C        3.8156290    -0.1071950     0.0454080
  H       -0.1788490     1.7941090     0.0202490
  H       -3.3868100    -1.1685230    -0.0043580
  H        1.7501540    -1.5327770     0.0300190
  H       -2.9559420     2.3719740    -0.8556620
  H       -4.0955650     1.3361040     0.0184570
  H       -2.9548850     2.3555760     0.9102830
  H        3.9313990    -1.0827470    -0.4343570
  H        4.1211000    -0.1952360     1.0924070
  H        4.4689380     0.6162650    -0.4426230
units angstrom
no_reorient  #important for SAPT in psi4, default
symmetry c1  #important for SAPT in psi4, default
}

set PROPERTIES_ORIGIN ["COM"]
properties('MP2/aug-cc-pvtz', properties = ['dipole'])
--------------------------------------------------------------------------

    Molecular point group: c1
  Charge       = 0
  Multiplicity = 1
  Basis Set: AUG-CC-PVTZ
    Blend: AUG-CC-PVTZ
  Basis Set: (AUG-CC-PVTZ AUX)
    Blend: AUG-CC-PVTZ-JKFIT

    Orbital Energies [Eh]
    ---------------------

    Doubly Occupied:

       1A    -91.984853     2A    -20.533432     3A    -15.619936
       4A    -11.369783     5A    -11.314411     6A    -11.249794
       7A    -11.249032     8A    -11.245691     9A    -11.225712
      10A    -11.223590    11A     -8.985359    12A     -6.666521
      13A     -6.665959    14A     -6.665075    15A     -1.389187
      16A     -1.265547    17A     -1.158723    18A     -1.038196
      19A     -1.012132    20A     -0.970572    21A     -0.912676
      22A     -0.826125    23A     -0.784668    24A     -0.726039
      25A     -0.687234    26A     -0.672767    27A     -0.633146
      28A     -0.609954    29A     -0.592859    30A     -0.581278
      31A     -0.576154    32A     -0.559828    33A     -0.558795
      34A     -0.522224    35A     -0.514078    36A     -0.502472
      37A     -0.472530    38A     -0.442379    39A     -0.433600
      40A     -0.340219    41A     -0.295741

  @DF-RHF Final Energy:  -797.31319028594953

   => Energetics <=

    Nuclear Repulsion Energy =            584.5323367421440253
    One-Electron Energy =               -2253.5345185854771444
    Two-Electron Energy =                 871.6889915573835879
    Total Energy =                       -797.3131902859495312
  Basis Set: (AUG-CC-PVTZ AUX)
    Blend: AUG-CC-PVTZ-RI
    Molecular point group: c1

    Geometry (in Angstrom), charge = 0, multiplicity = 1:

       Center              X                  Y                   Z               Mass
    ------------   -----------------  -----------------  -----------------  -----------------
         S           -1.000731351947    -1.708977501615    -0.024600997858    31.972071174400
         O            2.133686648053     1.644294498385    -0.069729997858    15.994914619570
         N            1.437148648053    -0.542657501615    -0.009697997858    14.003074004430
         C           -2.066909351947     0.640107498385     0.000737002142    12.000000000000
         C            0.052553648053    -0.325977501615    -0.006703997858    12.000000000000
         C           -0.655819351947     0.852502198385     0.153597102142    12.000000000000
         C           -2.395959351947    -0.693220501615    -0.012073997858    12.000000000000
         C           -3.070468351947     1.756722498385     0.012002002142    12.000000000000
         C            2.399823648053     0.444116498385    -0.034610997858    12.000000000000
         C            3.819976648053    -0.078553501615     0.035934002142    12.000000000000
         H           -0.174501351947     1.822750498385     0.010775002142     1.007825032230
         H           -3.382462351947    -1.139881501615    -0.013831997858     1.007825032230
         H            1.754501648053    -1.504135501615     0.020545002142     1.007825032230
         H           -2.951594351947     2.400615498385    -0.865135997858     1.007825032230
         H           -4.091217351947     1.364745498385     0.008983002142     1.007825032230
         H           -2.950537351947     2.384217498385     0.900809002142     1.007825032230
         H            3.935746648053    -1.054105501615    -0.443830997858     1.007825032230
         H            4.125447648053    -0.166594501615     1.082933002142     1.007825032230
         H            4.473285648053     0.644906498385    -0.452096997858     1.007825032230

  Basis Set: AUG-CC-PVTZ
    Blend: AUG-CC-PVTZ
  Basis Set: (AUG-CC-PVTZ AUX)
    Blend: AUG-CC-PVTZ-JKFIT
	 Reference Energy          =    -797.3131902859495312 [Eh]
	 Singles Energy            =      -0.0000000000000000 [Eh]
	 Same-Spin Energy          =      -0.4858484945451193 [Eh]
	 Opposite-Spin Energy      =      -1.5024098153055259 [Eh]
	 Correlation Energy        =      -1.9882583098506452 [Eh]
	 Total Energy              =    -799.3014485958001387 [Eh]

	 ================> DF-SCS-MP2 Energies <==================
	-----------------------------------------------------------
	 SCS Same-Spin Scale       =       0.3333333333333333 [-]
	 SCS Opposite-Spin Scale   =       1.2000000000000000 [-]
	 SCS Same-Spin Energy      =      -0.1619494981817064 [Eh]
	 SCS Opposite-Spin Energy  =      -1.8028917783666309 [Eh]
	 SCS Correlation Energy    =      -1.9648412765483374 [Eh]
	 SCS Total Energy          =    -799.2780315624978584 [Eh]
	-----------------------------------------------------------

  Dipole Moment: [D]
     X:     0.4415      Y:    -2.5619      Z:     0.0898     Total:     2.6012

*** Psi4 exiting successfully. Buy a developer a beer!
