                               Psi4 1.3.2 release

  ==> Input File <==

--------------------------------------------------------------------------
#psi4
#
memory 32 gb

molecule  {
0 1
  S       -1.0050790    -1.7376190    -0.0151270
  O        2.1293390     1.6156530    -0.0602560
  N        1.4328010    -0.5712990    -0.0002240
  C       -2.0712570     0.6114660     0.0102110
  C        0.0482060    -0.3546190     0.0027700
  C       -0.6602123     0.8233165     0.2130681
  C       -2.4003070    -0.7218620    -0.0026000
  C       -3.0748160     1.7280810     0.0214760
  C        2.3954760     0.4154750    -0.0251370
  C        3.8156290    -0.1071950     0.0454080
  H       -0.1788490     1.7941090     0.0202490
  H       -3.3868100    -1.1685230    -0.0043580
  H        1.7501540    -1.5327770     0.0300190
  H       -2.9559420     2.3719740    -0.8556620
  H       -4.0955650     1.3361040     0.0184570
  H       -2.9548850     2.3555760     0.9102830
  H        3.9313990    -1.0827470    -0.4343570
  H        4.1211000    -0.1952360     1.0924070
  H        4.4689380     0.6162650    -0.4426230
units angstrom
no_reorient  #important for SAPT in psi4, default
symmetry c1  #important for SAPT in psi4, default
}

set PROPERTIES_ORIGIN ["COM"]
properties('MP2/aug-cc-pvtz', properties = ['dipole'])
--------------------------------------------------------------------------

    Molecular point group: c1
  Charge       = 0
  Multiplicity = 1
  Basis Set: AUG-CC-PVTZ
    Blend: AUG-CC-PVTZ
  Basis Set: (AUG-CC-PVTZ AUX)
    Blend: AUG-CC-PVTZ-JKFIT

    Orbital Energies [Eh]
    ---------------------

    Doubly Occupied:

       1A    -91.985203     2A    -20.533790     3A    -15.620524
       4A    -11.370143     5A    -11.316491     6A    -11.250052
       7A    -11.248848     8A    -11.246222     9A    -11.225497
      10A    -11.224783    11A     -8.985728    12A     -6.666888
      13A     -6.666320    14A     -6.665441    15A     -1.389501
      16A     -1.266020    17A     -1.158040    18A     -1.038235
      19A     -1.012146    20A     -0.969562    21A     -0.912608
      22A     -0.826441    23A     -0.784217    24A     -0.725083
      25A     -0.686519    26A     -0.671850    27A     -0.633358
      28A     -0.609804    29A     -0.592869    30A     -0.581314
      31A     -0.575510    32A     -0.559823    33A     -0.558547
      34A     -0.521343    35A     -0.512474    36A     -0.501953
      37A     -0.472137    38A     -0.442352    39A     -0.433503
      40A     -0.340152    41A     -0.295812

  @DF-RHF Final Energy:  -797.30822732800323

   => Energetics <=

    Nuclear Repulsion Energy =            584.3077288577260333
    One-Electron Energy =               -2253.0777143400146088
    Two-Electron Energy =                 871.4617581542853486
    Total Energy =                       -797.3082273280032268
  Basis Set: (AUG-CC-PVTZ AUX)
    Blend: AUG-CC-PVTZ-RI
    Molecular point group: c1

    Geometry (in Angstrom), charge = 0, multiplicity = 1:

       Center              X                  Y                   Z               Mass
    ------------   -----------------  -----------------  -----------------  -----------------
         S           -1.000727845766    -1.708935381004    -0.028470722592    31.972071174400
         O            2.133690154234     1.644336618996    -0.073599722592    15.994914619570
         N            1.437152154234    -0.542615381004    -0.013567722592    14.003074004430
         C           -2.066905845766     0.640149618996    -0.003132722592    12.000000000000
         C            0.052557154234    -0.325935381004    -0.010573722592    12.000000000000
         C           -0.655861145766     0.852000118996     0.199724377408    12.000000000000
         C           -2.395955845766    -0.693178381004    -0.015943722592    12.000000000000
         C           -3.070464845766     1.756764618996     0.008132277408    12.000000000000
         C            2.399827154234     0.444158618996    -0.038480722592    12.000000000000
         C            3.819980154234    -0.078511381004     0.032064277408    12.000000000000
         H           -0.174497845766     1.822792618996     0.006905277408     1.007825032230
         H           -3.382458845766    -1.139839381004    -0.017701722592     1.007825032230
         H            1.754505154234    -1.504093381004     0.016675277408     1.007825032230
         H           -2.951590845766     2.400657618996    -0.869005722592     1.007825032230
         H           -4.091213845766     1.364787618996     0.005113277408     1.007825032230
         H           -2.950533845766     2.384259618996     0.896939277408     1.007825032230
         H            3.935750154234    -1.054063381004    -0.447700722592     1.007825032230
         H            4.125451154234    -0.166552381004     1.079063277408     1.007825032230
         H            4.473289154234     0.644948618996    -0.455966722592     1.007825032230

  Basis Set: AUG-CC-PVTZ
    Blend: AUG-CC-PVTZ
  Basis Set: (AUG-CC-PVTZ AUX)
    Blend: AUG-CC-PVTZ-JKFIT
	 Reference Energy          =    -797.3082273280032268 [Eh]
	 Singles Energy            =      -0.0000000000000000 [Eh]
	 Same-Spin Energy          =      -0.4860955276196373 [Eh]
	 Opposite-Spin Energy      =      -1.5030652324856106 [Eh]
	 Correlation Energy        =      -1.9891607601052479 [Eh]
	 Total Energy              =    -799.2973880881085051 [Eh]

	 ================> DF-SCS-MP2 Energies <==================
	-----------------------------------------------------------
	 SCS Same-Spin Scale       =       0.3333333333333333 [-]
	 SCS Opposite-Spin Scale   =       1.2000000000000000 [-]
	 SCS Same-Spin Energy      =      -0.1620318425398791 [Eh]
	 SCS Opposite-Spin Energy  =      -1.8036782789827326 [Eh]
	 SCS Correlation Energy    =      -1.9657101215226116 [Eh]
	 SCS Total Energy          =    -799.2739374495258744 [Eh]
	-----------------------------------------------------------

  Dipole Moment: [D]
     X:     0.4524      Y:    -2.5877      Z:     0.0585     Total:     2.6277

*** Psi4 exiting successfully. Buy a developer a beer!
