                               Psi4 1.3.2 release

  ==> Input File <==

--------------------------------------------------------------------------
#psi4
#
memory 32 gb

molecule  {
0 1
  S       -1.0050790    -1.7376190    -0.0151270
  O        2.1293390     1.6156530    -0.0602560
  N        1.4328010    -0.5712990    -0.0002240
  C       -2.0712570     0.6114660     0.0102110
  C        0.0482060    -0.3546190     0.0027700
  C       -0.6600310     0.8254930     0.0130800
  C       -2.4003070    -0.7218620    -0.0026000
  C       -3.0748160     1.7280810     0.0214760
  C        2.3954760     0.4154750    -0.0251370
  C        3.8156290    -0.1071950     0.0454080
  H       -0.1788490     1.7941090     0.0202490
  H       -3.3868100    -1.1685230    -0.0043580
  H        1.7495706    -1.5382437    -0.1699054
  H       -2.9559420     2.3719740    -0.8556620
  H       -4.0955650     1.3361040     0.0184570
  H       -2.9548850     2.3555760     0.9102830
  H        3.9313990    -1.0827470    -0.4343570
  H        4.1211000    -0.1952360     1.0924070
  H        4.4689380     0.6162650    -0.4426230
units angstrom
no_reorient  #important for SAPT in psi4, default
symmetry c1  #important for SAPT in psi4, default
}

set PROPERTIES_ORIGIN ["COM"]
properties('MP2/aug-cc-pvtz', properties = ['dipole'])
--------------------------------------------------------------------------

    Molecular point group: c1
  Charge       = 0
  Multiplicity = 1
  Basis Set: AUG-CC-PVTZ
    Blend: AUG-CC-PVTZ
  Basis Set: (AUG-CC-PVTZ AUX)
    Blend: AUG-CC-PVTZ-JKFIT

    Orbital Energies [Eh]
    ---------------------

    Doubly Occupied:

       1A    -91.984312     2A    -20.533530     3A    -15.620379
       4A    -11.369320     5A    -11.311395     6A    -11.249485
       7A    -11.249269     8A    -11.244886     9A    -11.225963
      10A    -11.222008    11A     -8.984792    12A     -6.665953
      13A     -6.665401    14A     -6.664511    15A     -1.388956
      16A     -1.263155    17A     -1.159233    18A     -1.038030
      19A     -1.012021    20A     -0.971421    21A     -0.912670
      22A     -0.824746    23A     -0.781663    24A     -0.726970
      25A     -0.687120    26A     -0.673873    27A     -0.632919
      28A     -0.609669    29A     -0.592533    30A     -0.580945
      31A     -0.577348    32A     -0.561512    33A     -0.556572
      34A     -0.523523    35A     -0.515892    36A     -0.503126
      37A     -0.472925    38A     -0.442830    39A     -0.433626
      40A     -0.340258    41A     -0.295697

  @DF-RHF Final Energy:  -797.31794154789611

   => Energetics <=

    Nuclear Repulsion Energy =            584.7328122556764356
    One-Electron Energy =               -2253.9606405926970183
    Two-Electron Energy =                 871.9098867891244709
    Total Energy =                       -797.3179415478961118
  Basis Set: (AUG-CC-PVTZ AUX)
    Blend: AUG-CC-PVTZ-RI
    Molecular point group: c1

    Geometry (in Angstrom), charge = 0, multiplicity = 1:

       Center              X                  Y                   Z               Mass
    ------------   -----------------  -----------------  -----------------  -----------------
         S           -1.000738085897    -1.709068304497    -0.011692227521    31.972071174400
         O            2.133679914103     1.644203695503    -0.056821227521    15.994914619570
         N            1.437141914103    -0.542748304497     0.003210772479    14.003074004430
         C           -2.066916085897     0.640016695503     0.013645772479    12.000000000000
         C            0.052546914103    -0.326068304497     0.006204772479    12.000000000000
         C           -0.655690085897     0.854043695503     0.016514772479    12.000000000000
         C           -2.395966085897    -0.693311304497     0.000834772479    12.000000000000
         C           -3.070475085897     1.756631695503     0.024910772479    12.000000000000
         C            2.399816914103     0.444025695503    -0.021702227521    12.000000000000
         C            3.819969914103    -0.078644304497     0.048842772479    12.000000000000
         H           -0.174508085897     1.822659695503     0.023683772479     1.007825032230
         H           -3.382469085897    -1.139972304497    -0.000923227521     1.007825032230
         H            1.753911514103    -1.509693004497    -0.166470627521     1.007825032230
         H           -2.951601085897     2.400524695503    -0.852227227521     1.007825032230
         H           -4.091224085897     1.364654695503     0.021891772479     1.007825032230
         H           -2.950544085897     2.384126695503     0.913717772479     1.007825032230
         H            3.935739914103    -1.054196304497    -0.430922227521     1.007825032230
         H            4.125440914103    -0.166685304497     1.095841772479     1.007825032230
         H            4.473278914103     0.644815695503    -0.439188227521     1.007825032230

  Basis Set: AUG-CC-PVTZ
    Blend: AUG-CC-PVTZ
  Basis Set: (AUG-CC-PVTZ AUX)
    Blend: AUG-CC-PVTZ-JKFIT
	 Reference Energy          =    -797.3179415478961118 [Eh]
	 Singles Energy            =      -0.0000000000000000 [Eh]
	 Same-Spin Energy          =      -0.4856647042819071 [Eh]
	 Opposite-Spin Energy      =      -1.5020943968046467 [Eh]
	 Correlation Energy        =      -1.9877591010865538 [Eh]
	 Total Energy              =    -799.3057006489826790 [Eh]

	 ================> DF-SCS-MP2 Energies <==================
	-----------------------------------------------------------
	 SCS Same-Spin Scale       =       0.3333333333333333 [-]
	 SCS Opposite-Spin Scale   =       1.2000000000000000 [-]
	 SCS Same-Spin Energy      =      -0.1618882347606357 [Eh]
	 SCS Opposite-Spin Energy  =      -1.8025132761655760 [Eh]
	 SCS Correlation Energy    =      -1.9644015109262116 [Eh]
	 SCS Total Energy          =    -799.2823430588223346 [Eh]
	-----------------------------------------------------------

  Dipole Moment: [D]
     X:     0.4297      Y:    -2.5097      Z:    -0.0651     Total:     2.5471

*** Psi4 exiting successfully. Buy a developer a beer!
