                               Psi4 1.3.2 release

  ==> Input File <==

--------------------------------------------------------------------------
#psi4
#
memory 32 gb

molecule  {
0 1
  S       -1.0050790    -1.7376190    -0.0151270
  O        2.1293390     1.6156530    -0.0602560
  N        1.4328010    -0.5712990    -0.0002240
  C       -2.0712570     0.6114660     0.0102110
  C        0.0482060    -0.3546190     0.0027700
  C       -0.6600310     0.8254930     0.0130800
  C       -2.4003070    -0.7218620    -0.0026000
  C       -3.0748160     1.7280810     0.0214760
  C        2.3954760     0.4154750    -0.0251370
  C        3.8156290    -0.1071950     0.0454080
  H       -0.1788490     1.7941090     0.0202490
  H       -3.3862649    -1.1709720     0.2456294
  H        1.7501540    -1.5327770     0.0300190
  H       -2.9559420     2.3719740    -0.8556620
  H       -4.0955650     1.3361040     0.0184570
  H       -2.9548850     2.3555760     0.9102830
  H        3.9313990    -1.0827470    -0.4343570
  H        4.1211000    -0.1952360     1.0924070
  H        4.4689380     0.6162650    -0.4426230
units angstrom
no_reorient  #important for SAPT in psi4, default
symmetry c1  #important for SAPT in psi4, default
}

set PROPERTIES_ORIGIN ["COM"]
properties('MP2/aug-cc-pvtz', properties = ['dipole'])
--------------------------------------------------------------------------

    Molecular point group: c1
  Charge       = 0
  Multiplicity = 1
  Basis Set: AUG-CC-PVTZ
    Blend: AUG-CC-PVTZ
  Basis Set: (AUG-CC-PVTZ AUX)
    Blend: AUG-CC-PVTZ-JKFIT

    Orbital Energies [Eh]
    ---------------------

    Doubly Occupied:

       1A    -91.984165     2A    -20.533366     3A    -15.619679
       4A    -11.369692     5A    -11.312509     6A    -11.251013
       7A    -11.249737     8A    -11.245965     9A    -11.226199
      10A    -11.222317    11A     -8.984677    12A     -6.665839
      13A     -6.665265    14A     -6.664382    15A     -1.389181
      16A     -1.265404    17A     -1.159770    18A     -1.038436
      19A     -1.012266    20A     -0.971312    21A     -0.912716
      22A     -0.825751    23A     -0.784132    24A     -0.725193
      25A     -0.688241    26A     -0.673099    27A     -0.633184
      28A     -0.610131    29A     -0.593049    30A     -0.582304
      31A     -0.575516    32A     -0.558728    33A     -0.558218
      34A     -0.523742    35A     -0.516709    36A     -0.501403
      37A     -0.472948    38A     -0.442033    39A     -0.433985
      40A     -0.340476    41A     -0.295949

  @DF-RHF Final Energy:  -797.31619352897155

   => Energetics <=

    Nuclear Repulsion Energy =            584.7161401034127266
    One-Electron Energy =               -2253.9073050891902312
    Two-Electron Energy =                 871.8749714568059517
    Total Energy =                       -797.3161935289715530
  Basis Set: (AUG-CC-PVTZ AUX)
    Blend: AUG-CC-PVTZ-RI
    Molecular point group: c1

    Geometry (in Angstrom), charge = 0, multiplicity = 1:

       Center              X                  Y                   Z               Mass
    ------------   -----------------  -----------------  -----------------  -----------------
         S           -1.000745421598    -1.709087920751    -0.014616833788    31.972071174400
         O            2.133672578402     1.644184079249    -0.059745833788    15.994914619570
         N            1.437134578402    -0.542767920751     0.000286166212    14.003074004430
         C           -2.066923421598     0.639997079249     0.010721166212    12.000000000000
         C            0.052539578402    -0.326087920751     0.003280166212    12.000000000000
         C           -0.655697421598     0.854024079249     0.013590166212    12.000000000000
         C           -2.395973421598    -0.693330920751    -0.002089833788    12.000000000000
         C           -3.070482421598     1.756612079249     0.021986166212    12.000000000000
         C            2.399809578402     0.444006079249    -0.024626833788    12.000000000000
         C            3.819962578402    -0.078663920751     0.045918166212    12.000000000000
         H           -0.174515421598     1.822640079249     0.020759166212     1.007825032230
         H           -3.381931321598    -1.142440920751     0.246139566212     1.007825032230
         H            1.754487578402    -1.504245920751     0.030529166212     1.007825032230
         H           -2.951608421598     2.400505079249    -0.855151833788     1.007825032230
         H           -4.091231421598     1.364635079249     0.018967166212     1.007825032230
         H           -2.950551421598     2.384107079249     0.910793166212     1.007825032230
         H            3.935732578402    -1.054215920751    -0.433846833788     1.007825032230
         H            4.125433578402    -0.166704920751     1.092917166212     1.007825032230
         H            4.473271578402     0.644796079249    -0.442112833788     1.007825032230

  Basis Set: AUG-CC-PVTZ
    Blend: AUG-CC-PVTZ
  Basis Set: (AUG-CC-PVTZ AUX)
    Blend: AUG-CC-PVTZ-JKFIT
	 Reference Energy          =    -797.3161935289715530 [Eh]
	 Singles Energy            =      -0.0000000000000000 [Eh]
	 Same-Spin Energy          =      -0.4857561971534817 [Eh]
	 Opposite-Spin Energy      =      -1.5021276568923594 [Eh]
	 Correlation Energy        =      -1.9878838540458412 [Eh]
	 Total Energy              =    -799.3040773830174430 [Eh]

	 ================> DF-SCS-MP2 Energies <==================
	-----------------------------------------------------------
	 SCS Same-Spin Scale       =       0.3333333333333333 [-]
	 SCS Opposite-Spin Scale   =       1.2000000000000000 [-]
	 SCS Same-Spin Energy      =      -0.1619187323844939 [Eh]
	 SCS Opposite-Spin Energy  =      -1.8025531882708312 [Eh]
	 SCS Correlation Energy    =      -1.9644719206553252 [Eh]
	 SCS Total Energy          =    -799.2806654496268948 [Eh]
	-----------------------------------------------------------

  Dipole Moment: [D]
     X:     0.4871      Y:    -2.4959      Z:     0.3744     Total:     2.5704

*** Psi4 exiting successfully. Buy a developer a beer!
