                               Psi4 1.3.2 release

  ==> Input File <==

--------------------------------------------------------------------------
#psi4
#
memory 32 gb

molecule  {
0 1
 Cl        1.0239510     2.3134080    -0.0075990
  O       -2.5545530    -1.5411200    -0.0264400
  N       -1.1683820     0.3068610    -0.0163620
  C        0.1096870    -0.2710340    -0.0061280
  C        1.2343910     0.5769770    -0.0015960
  C        0.3297614    -1.6593852    -0.2015222
  C        2.5300300     0.0689490     0.0091910
  C        1.6277130    -2.1636760     0.0089260
  C        2.7309420    -1.3104680     0.0141480
  C       -2.3977350    -0.3210840    -0.0173950
  C       -3.5624210     0.6474400     0.0363070
  H       -0.5282050    -2.3191560    -0.0064230
  H       -1.1804810     1.3202100    -0.0131680
  H        3.3690000     0.7589460     0.0128930
  H        1.7714720    -3.2410880     0.0123870
  H        3.7417620    -1.7087950     0.0220870
  H       -3.7187230     0.9816890     1.0666350
  H       -4.4568090     0.1237200    -0.3002800
  H       -3.3965620     1.5279900    -0.5904610
units angstrom
no_reorient  #important for SAPT in psi4, default
symmetry c1  #important for SAPT in psi4, default
}

set PROPERTIES_ORIGIN ["COM"]
properties('MP2/aug-cc-pvtz', properties = ['dipole'])
--------------------------------------------------------------------------

    Molecular point group: c1
  Charge       = 0
  Multiplicity = 1
  Basis Set: AUG-CC-PVTZ
    Blend: AUG-CC-PVTZ
  Basis Set: (AUG-CC-PVTZ AUX)
    Blend: AUG-CC-PVTZ-JKFIT

    Orbital Energies [Eh]
    ---------------------

    Doubly Occupied:

       1A   -104.856326     2A    -20.535765     3A    -15.614059
       4A    -11.371882     5A    -11.311384     6A    -11.307922
       7A    -11.258770     8A    -11.251218     9A    -11.248511
      10A    -11.243657    11A    -11.242823    12A    -10.580167
      13A     -8.047030    14A     -8.045281    15A     -8.045177
      16A     -1.390701    17A     -1.271456    18A     -1.181715
      19A     -1.123791    20A     -1.044382    21A     -1.007409
      22A     -0.987309    23A     -0.871166    24A     -0.828775
      25A     -0.788883    26A     -0.736048    27A     -0.688453
      28A     -0.674162    29A     -0.636863    30A     -0.631070
      31A     -0.619902    32A     -0.596464    33A     -0.589640
      34A     -0.574264    35A     -0.569748    36A     -0.536974
      37A     -0.528172    38A     -0.511697    39A     -0.478891
      40A     -0.470523    41A     -0.450850    42A     -0.433629
      43A     -0.344323    44A     -0.318576

  @DF-RHF Final Energy:  -896.59465868350333

   => Energetics <=

    Nuclear Repulsion Energy =            655.7649306490710615
    One-Electron Energy =               -2531.0275669472393929
    Two-Electron Energy =                 978.6679776146648919
    Total Energy =                       -896.5946586835033258
  Basis Set: (AUG-CC-PVTZ AUX)
    Blend: AUG-CC-PVTZ-RI
    Molecular point group: c1

    Geometry (in Angstrom), charge = 0, multiplicity = 1:

       Center              X                  Y                   Z               Mass
    ------------   -----------------  -----------------  -----------------  -----------------
         CL           0.992116007699     2.285127275618     0.007838067072    34.968852682000
         O           -2.586387992301    -1.569400724382    -0.011002932928    15.994914619570
         N           -1.200216992301     0.278580275618    -0.000924932928    14.003074004430
         C            0.077852007699    -0.299314724382     0.009309067072    12.000000000000
         C            1.202556007699     0.548696275618     0.013841067072    12.000000000000
         C            0.297926407699    -1.687665924382    -0.186085132928    12.000000000000
         C            2.498195007699     0.040668275618     0.024628067072    12.000000000000
         C            1.595878007699    -2.191956724382     0.024363067072    12.000000000000
         C            2.699107007699    -1.338748724382     0.029585067072    12.000000000000
         C           -2.429569992301    -0.349364724382    -0.001957932928    12.000000000000
         C           -3.594255992301     0.619159275618     0.051744067072    12.000000000000
         H           -0.560039992301    -2.347436724382     0.009014067072     1.007825032230
         H           -1.212315992301     1.291929275618     0.002269067072     1.007825032230
         H            3.337165007699     0.730665275618     0.028330067072     1.007825032230
         H            1.739637007699    -3.269368724382     0.027824067072     1.007825032230
         H            3.709927007699    -1.737075724382     0.037524067072     1.007825032230
         H           -3.750557992301     0.953408275618     1.082072067072     1.007825032230
         H           -4.488643992301     0.095439275618    -0.284842932928     1.007825032230
         H           -3.428396992301     1.499709275618    -0.575023932928     1.007825032230

  Basis Set: AUG-CC-PVTZ
    Blend: AUG-CC-PVTZ
  Basis Set: (AUG-CC-PVTZ AUX)
    Blend: AUG-CC-PVTZ-JKFIT
	 Reference Energy          =    -896.5946586835033258 [Eh]
	 Singles Energy            =      -0.0000000000000000 [Eh]
	 Same-Spin Energy          =      -0.5345699289237702 [Eh]
	 Opposite-Spin Energy      =      -1.6220974853044510 [Eh]
	 Correlation Energy        =      -2.1566674142282212 [Eh]
	 Total Energy              =    -898.7513260977315213 [Eh]

	 ================> DF-SCS-MP2 Energies <==================
	-----------------------------------------------------------
	 SCS Same-Spin Scale       =       0.3333333333333333 [-]
	 SCS Opposite-Spin Scale   =       1.2000000000000000 [-]
	 SCS Same-Spin Energy      =      -0.1781899763079234 [Eh]
	 SCS Opposite-Spin Energy  =      -1.9465169823653410 [Eh]
	 SCS Correlation Energy    =      -2.1247069586732645 [Eh]
	 SCS Total Energy          =    -898.7193656421766264 [Eh]
	-----------------------------------------------------------

  Dipole Moment: [D]
     X:     0.6116      Y:     1.9115      Z:     0.1904     Total:     2.0160

*** Psi4 exiting successfully. Buy a developer a beer!
