                               Psi4 1.3.2 release

  ==> Input File <==

--------------------------------------------------------------------------
#psi4
#
memory 32 gb

molecule  {
0 1
 Cl        1.0239510     2.3134080    -0.0075990
  O       -2.5545530    -1.5411200    -0.0264400
  N       -1.1683820     0.3068610    -0.0163620
  C        0.1096870    -0.2710340    -0.0061280
  C        1.2343910     0.5769770    -0.0015960
  C        0.3291172    -1.6591211    -0.1015246
  C        2.5300300     0.0689490     0.0091910
  C        1.6277130    -2.1636760     0.0089260
  C        2.7309420    -1.3104680     0.0141480
  C       -2.3977350    -0.3210840    -0.0173950
  C       -3.5624210     0.6474400     0.0363070
  H       -0.5282050    -2.3191560    -0.0064230
  H       -1.1804810     1.3202100    -0.0131680
  H        3.3690000     0.7589460     0.0128930
  H        1.7714720    -3.2410880     0.0123870
  H        3.7417620    -1.7087950     0.0220870
  H       -3.7187230     0.9816890     1.0666350
  H       -4.4568090     0.1237200    -0.3002800
  H       -3.3965620     1.5279900    -0.5904610
units angstrom
no_reorient  #important for SAPT in psi4, default
symmetry c1  #important for SAPT in psi4, default
}

set PROPERTIES_ORIGIN ["COM"]
properties('MP2/aug-cc-pvtz', properties = ['dipole'])
--------------------------------------------------------------------------

    Molecular point group: c1
  Charge       = 0
  Multiplicity = 1
  Basis Set: AUG-CC-PVTZ
    Blend: AUG-CC-PVTZ
  Basis Set: (AUG-CC-PVTZ AUX)
    Blend: AUG-CC-PVTZ-JKFIT

    Orbital Energies [Eh]
    ---------------------

    Doubly Occupied:

       1A   -104.856424     2A    -20.535591     3A    -15.613679
       4A    -11.371740     5A    -11.309447     6A    -11.308026
       7A    -11.257429     8A    -11.249000     9A    -11.248392
      10A    -11.243943    11A    -11.240654    12A    -10.580251
      13A     -8.047113    14A     -8.045364    15A     -8.045263
      16A     -1.390620    17A     -1.271350    18A     -1.181818
      19A     -1.124797    20A     -1.044747    21A     -1.008517
      22A     -0.987495    23A     -0.871415    24A     -0.830125
      25A     -0.789617    26A     -0.735983    27A     -0.688447
      28A     -0.675726    29A     -0.636622    30A     -0.632842
      31A     -0.621278    32A     -0.596979    33A     -0.590651
      34A     -0.574727    35A     -0.570228    36A     -0.538032
      37A     -0.528719    38A     -0.513381    39A     -0.479503
      40A     -0.470820    41A     -0.451362    42A     -0.434271
      43A     -0.344511    44A     -0.318758

  @DF-RHF Final Energy:  -896.60390029620930

   => Energetics <=

    Nuclear Repulsion Energy =            656.1343254475792719
    One-Electron Energy =               -2531.7651464412533642
    Two-Electron Energy =                 979.0269206974649023
    Total Energy =                       -896.6039002962093036
  Basis Set: (AUG-CC-PVTZ AUX)
    Blend: AUG-CC-PVTZ-RI
    Molecular point group: c1

    Geometry (in Angstrom), charge = 0, multiplicity = 1:

       Center              X                  Y                   Z               Mass
    ------------   -----------------  -----------------  -----------------  -----------------
         CL           0.992161741744     2.285108526222     0.000738882523    34.968852682000
         O           -2.586342258256    -1.569419473778    -0.018102117477    15.994914619570
         N           -1.200171258256     0.278561526222    -0.008024117477    14.003074004430
         C            0.077897741744    -0.299333473778     0.002209882523    12.000000000000
         C            1.202601741744     0.548677526222     0.006741882523    12.000000000000
         C            0.297327941744    -1.687420573778    -0.093186717477    12.000000000000
         C            2.498240741744     0.040649526222     0.017528882523    12.000000000000
         C            1.595923741744    -2.191975473778     0.017263882523    12.000000000000
         C            2.699152741744    -1.338767473778     0.022485882523    12.000000000000
         C           -2.429524258256    -0.349383473778    -0.009057117477    12.000000000000
         C           -3.594210258256     0.619140526222     0.044644882523    12.000000000000
         H           -0.559994258256    -2.347455473778     0.001914882523     1.007825032230
         H           -1.212270258256     1.291910526222    -0.004830117477     1.007825032230
         H            3.337210741744     0.730646526222     0.021230882523     1.007825032230
         H            1.739682741744    -3.269387473778     0.020724882523     1.007825032230
         H            3.709972741744    -1.737094473778     0.030424882523     1.007825032230
         H           -3.750512258256     0.953389526222     1.074972882523     1.007825032230
         H           -4.488598258256     0.095420526222    -0.291942117477     1.007825032230
         H           -3.428351258256     1.499690526222    -0.582123117477     1.007825032230

  Basis Set: AUG-CC-PVTZ
    Blend: AUG-CC-PVTZ
  Basis Set: (AUG-CC-PVTZ AUX)
    Blend: AUG-CC-PVTZ-JKFIT
	 Reference Energy          =    -896.6039002962093036 [Eh]
	 Singles Energy            =      -0.0000000000000000 [Eh]
	 Same-Spin Energy          =      -0.5341173358925102 [Eh]
	 Opposite-Spin Energy      =      -1.6208339102243803 [Eh]
	 Correlation Energy        =      -2.1549512461168905 [Eh]
	 Total Energy              =    -898.7588515423261697 [Eh]

	 ================> DF-SCS-MP2 Energies <==================
	-----------------------------------------------------------
	 SCS Same-Spin Scale       =       0.3333333333333333 [-]
	 SCS Opposite-Spin Scale   =       1.2000000000000000 [-]
	 SCS Same-Spin Energy      =      -0.1780391119641700 [Eh]
	 SCS Opposite-Spin Energy  =      -1.9450006922692562 [Eh]
	 SCS Correlation Energy    =      -2.1230398042334264 [Eh]
	 SCS Total Energy          =    -898.7269401004426754 [Eh]
	-----------------------------------------------------------

  Dipole Moment: [D]
     X:     0.5961      Y:     1.8768      Z:     0.1380     Total:     1.9740

*** Psi4 exiting successfully. Buy a developer a beer!
