                               Psi4 1.3.2 release

  ==> Input File <==

--------------------------------------------------------------------------
#psi4
#
memory 32 gb

molecule  {
0 1
 Cl        1.0239510     2.3134080    -0.0075990
  O       -2.5545530    -1.5411200    -0.0264400
  N       -1.1683820     0.3068610    -0.0163620
  C        0.1096870    -0.2710340    -0.0061280
  C        1.2343910     0.5769770    -0.0015960
  C        0.3287951    -1.6589891    -0.0515258
  C        2.5300300     0.0689490     0.0091910
  C        1.6277130    -2.1636760     0.0089260
  C        2.7309420    -1.3104680     0.0141480
  C       -2.3977350    -0.3210840    -0.0173950
  C       -3.5624210     0.6474400     0.0363070
  H       -0.5282050    -2.3191560    -0.0064230
  H       -1.1804810     1.3202100    -0.0131680
  H        3.3690000     0.7589460     0.0128930
  H        1.7714720    -3.2410880     0.0123870
  H        3.7417620    -1.7087950     0.0220870
  H       -3.7187230     0.9816890     1.0666350
  H       -4.4568090     0.1237200    -0.3002800
  H       -3.3965620     1.5279900    -0.5904610
units angstrom
no_reorient  #important for SAPT in psi4, default
symmetry c1  #important for SAPT in psi4, default
}

set PROPERTIES_ORIGIN ["COM"]
properties('MP2/aug-cc-pvtz', properties = ['dipole'])
--------------------------------------------------------------------------

    Molecular point group: c1
  Charge       = 0
  Multiplicity = 1
  Basis Set: AUG-CC-PVTZ
    Blend: AUG-CC-PVTZ
  Basis Set: (AUG-CC-PVTZ AUX)
    Blend: AUG-CC-PVTZ-JKFIT

    Orbital Energies [Eh]
    ---------------------

    Doubly Occupied:

       1A   -104.856462     2A    -20.535548     3A    -15.613588
       4A    -11.371707     5A    -11.309094     6A    -11.307937
       7A    -11.257110     8A    -11.248449     9A    -11.248362
      10A    -11.244028    11A    -11.240105    12A    -10.580282
      13A     -8.047144    14A     -8.045395    15A     -8.045295
      16A     -1.390601    17A     -1.271330    18A     -1.181857
      19A     -1.125066    20A     -1.044848    21A     -1.008799
      22A     -0.987552    23A     -0.871482    24A     -0.830493
      25A     -0.789817    26A     -0.735979    27A     -0.688453
      28A     -0.676169    29A     -0.636457    30A     -0.633418
      31A     -0.621655    32A     -0.597134    33A     -0.590901
      34A     -0.574832    35A     -0.570360    36A     -0.538299
      37A     -0.528840    38A     -0.513792    39A     -0.479670
      40A     -0.470897    41A     -0.451493    42A     -0.434427
      43A     -0.344581    44A     -0.318819

  @DF-RHF Final Energy:  -896.60618709658524

   => Energetics <=

    Nuclear Repulsion Energy =            656.2284556832885301
    One-Electron Energy =               -2531.9522319744519336
    Two-Electron Energy =                 979.1175891945781586
    Total Energy =                       -896.6061870965852449
  Basis Set: (AUG-CC-PVTZ AUX)
    Blend: AUG-CC-PVTZ-RI
    Molecular point group: c1

    Geometry (in Angstrom), charge = 0, multiplicity = 1:

       Center              X                  Y                   Z               Mass
    ------------   -----------------  -----------------  -----------------  -----------------
         CL           0.992184608766     2.285099155074    -0.002810709752    34.968852682000
         O           -2.586319391234    -1.569428844926    -0.021651709752    15.994914619570
         N           -1.200148391234     0.278552155074    -0.011573709752    14.003074004430
         C            0.077920608766    -0.299342844926    -0.001339709752    12.000000000000
         C            1.202624608766     0.548668155074     0.003192290248    12.000000000000
         C            0.297028708766    -1.687297944926    -0.046737509752    12.000000000000
         C            2.498263608766     0.040640155074     0.013979290248    12.000000000000
         C            1.595946608766    -2.191984844926     0.013714290248    12.000000000000
         C            2.699175608766    -1.338776844926     0.018936290248    12.000000000000
         C           -2.429501391234    -0.349392844926    -0.012606709752    12.000000000000
         C           -3.594187391234     0.619131155074     0.041095290248    12.000000000000
         H           -0.559971391234    -2.347464844926    -0.001634709752     1.007825032230
         H           -1.212247391234     1.291901155074    -0.008379709752     1.007825032230
         H            3.337233608766     0.730637155074     0.017681290248     1.007825032230
         H            1.739705608766    -3.269396844926     0.017175290248     1.007825032230
         H            3.709995608766    -1.737103844926     0.026875290248     1.007825032230
         H           -3.750489391234     0.953380155074     1.071423290248     1.007825032230
         H           -4.488575391234     0.095411155074    -0.295491709752     1.007825032230
         H           -3.428328391234     1.499681155074    -0.585672709752     1.007825032230

  Basis Set: AUG-CC-PVTZ
    Blend: AUG-CC-PVTZ
  Basis Set: (AUG-CC-PVTZ AUX)
    Blend: AUG-CC-PVTZ-JKFIT
	 Reference Energy          =    -896.6061870965852449 [Eh]
	 Singles Energy            =      -0.0000000000000000 [Eh]
	 Same-Spin Energy          =      -0.5339999182694468 [Eh]
	 Opposite-Spin Energy      =      -1.6205491236990024 [Eh]
	 Correlation Energy        =      -2.1545490419684494 [Eh]
	 Total Energy              =    -898.7607361385537388 [Eh]

	 ================> DF-SCS-MP2 Energies <==================
	-----------------------------------------------------------
	 SCS Same-Spin Scale       =       0.3333333333333333 [-]
	 SCS Opposite-Spin Scale   =       1.2000000000000000 [-]
	 SCS Same-Spin Energy      =      -0.1779999727564823 [Eh]
	 SCS Opposite-Spin Energy  =      -1.9446589484388028 [Eh]
	 SCS Correlation Energy    =      -2.1226589211952849 [Eh]
	 SCS Total Energy          =    -898.7288460177804836 [Eh]
	-----------------------------------------------------------

  Dipole Moment: [D]
     X:     0.5924      Y:     1.8681      Z:     0.1132     Total:     1.9631

*** Psi4 exiting successfully. Buy a developer a beer!
