                               Psi4 1.3.2 release

  ==> Input File <==

--------------------------------------------------------------------------
#psi4
#
memory 32 gb

molecule  {
0 1
 Cl        1.0239510     2.3134080    -0.0075990
  O       -2.5545530    -1.5411200    -0.0264400
  N       -1.1683820     0.3068610    -0.0163620
  C        0.1096870    -0.2710340    -0.0061280
  C        1.2343910     0.5769770    -0.0015960
  C        0.3294393    -1.6592532    -0.1515234
  C        2.5300300     0.0689490     0.0091910
  C        1.6277130    -2.1636760     0.0089260
  C        2.7309420    -1.3104680     0.0141480
  C       -2.3977350    -0.3210840    -0.0173950
  C       -3.5624210     0.6474400     0.0363070
  H       -0.5282050    -2.3191560    -0.0064230
  H       -1.1804810     1.3202100    -0.0131680
  H        3.3690000     0.7589460     0.0128930
  H        1.7714720    -3.2410880     0.0123870
  H        3.7417620    -1.7087950     0.0220870
  H       -3.7187230     0.9816890     1.0666350
  H       -4.4568090     0.1237200    -0.3002800
  H       -3.3965620     1.5279900    -0.5904610
units angstrom
no_reorient  #important for SAPT in psi4, default
symmetry c1  #important for SAPT in psi4, default
}

set PROPERTIES_ORIGIN ["COM"]
properties('MP2/aug-cc-pvtz', properties = ['dipole'])
--------------------------------------------------------------------------

    Molecular point group: c1
  Charge       = 0
  Multiplicity = 1
  Basis Set: AUG-CC-PVTZ
    Blend: AUG-CC-PVTZ
  Basis Set: (AUG-CC-PVTZ AUX)
    Blend: AUG-CC-PVTZ-JKFIT

    Orbital Energies [Eh]
    ---------------------

    Doubly Occupied:

       1A   -104.856378     2A    -20.535663     3A    -15.613836
       4A    -11.371799     5A    -11.310215     6A    -11.308021
       7A    -11.257982     8A    -11.249929     9A    -11.248442
      10A    -11.243819    11A    -11.241569    12A    -10.580212
      13A     -8.047074    14A     -8.045325    15A     -8.045223
      16A     -1.390653    17A     -1.271392    18A     -1.181769
      19A     -1.124370    20A     -1.044591    21A     -1.008056
      22A     -0.987413    23A     -0.871311    24A     -0.829545
      25A     -0.789301    26A     -0.736005    27A     -0.688446
      28A     -0.675038    29A     -0.636763    30A     -0.632046
      31A     -0.620685    32A     -0.596758    33A     -0.590233
      34A     -0.574525    35A     -0.570030    36A     -0.537590
      37A     -0.528507    38A     -0.512692    39A     -0.479239
      40A     -0.470699    41A     -0.451147    42A     -0.434009
      43A     -0.344421    44A     -0.318676

  @DF-RHF Final Energy:  -896.60006557636461

   => Energetics <=

    Nuclear Repulsion Energy =            655.9793456733119683
    One-Electron Energy =               -2531.4560350659457981
    Two-Electron Energy =                 978.8766238162693298
    Total Energy =                       -896.6000655763646137
  Basis Set: (AUG-CC-PVTZ AUX)
    Blend: AUG-CC-PVTZ-RI
    Molecular point group: c1

    Geometry (in Angstrom), charge = 0, multiplicity = 1:

       Center              X                  Y                   Z               Mass
    ------------   -----------------  -----------------  -----------------  -----------------
         CL           0.992138874722     2.285117904470     0.004288474797    34.968852682000
         O           -2.586365125278    -1.569410095530    -0.014552525203    15.994914619570
         N           -1.200194125278     0.278570904470    -0.004474525203    14.003074004430
         C            0.077874874722    -0.299324095530     0.005759474797    12.000000000000
         C            1.202578874722     0.548686904470     0.010291474797    12.000000000000
         C            0.297627174722    -1.687543295530    -0.139635925203    12.000000000000
         C            2.498217874722     0.040658904470     0.021078474797    12.000000000000
         C            1.595900874722    -2.191966095530     0.020813474797    12.000000000000
         C            2.699129874722    -1.338758095530     0.026035474797    12.000000000000
         C           -2.429547125278    -0.349374095530    -0.005507525203    12.000000000000
         C           -3.594233125278     0.619149904470     0.048194474797    12.000000000000
         H           -0.560017125278    -2.347446095530     0.005464474797     1.007825032230
         H           -1.212293125278     1.291919904470    -0.001280525203     1.007825032230
         H            3.337187874722     0.730655904470     0.024780474797     1.007825032230
         H            1.739659874722    -3.269378095530     0.024274474797     1.007825032230
         H            3.709949874722    -1.737085095530     0.033974474797     1.007825032230
         H           -3.750535125278     0.953398904470     1.078522474797     1.007825032230
         H           -4.488621125278     0.095429904470    -0.288392525203     1.007825032230
         H           -3.428374125278     1.499699904470    -0.578573525203     1.007825032230

  Basis Set: AUG-CC-PVTZ
    Blend: AUG-CC-PVTZ
  Basis Set: (AUG-CC-PVTZ AUX)
    Blend: AUG-CC-PVTZ-JKFIT
	 Reference Energy          =    -896.6000655763646137 [Eh]
	 Singles Energy            =      -0.0000000000000000 [Eh]
	 Same-Spin Energy          =      -0.5343076571553109 [Eh]
	 Opposite-Spin Energy      =      -1.6213483073500401 [Eh]
	 Correlation Energy        =      -2.1556559645053510 [Eh]
	 Total Energy              =    -898.7557215408700131 [Eh]

	 ================> DF-SCS-MP2 Energies <==================
	-----------------------------------------------------------
	 SCS Same-Spin Scale       =       0.3333333333333333 [-]
	 SCS Opposite-Spin Scale   =       1.2000000000000000 [-]
	 SCS Same-Spin Energy      =      -0.1781025523851036 [Eh]
	 SCS Opposite-Spin Energy  =      -1.9456179688200481 [Eh]
	 SCS Correlation Energy    =      -2.1237205212051515 [Eh]
	 SCS Total Energy          =    -898.7237860975698140 [Eh]
	-----------------------------------------------------------

  Dipole Moment: [D]
     X:     0.6026      Y:     1.8913      Z:     0.1636     Total:     1.9917

*** Psi4 exiting successfully. Buy a developer a beer!
