                               Psi4 1.3.2 release

  ==> Input File <==

--------------------------------------------------------------------------
#psi4
#
memory 32 gb

molecule  {
0 1
 Cl        1.0239510     2.3134080    -0.0075990
  O       -2.5545530    -1.5411200    -0.0264400
  N       -1.1683820     0.3068610    -0.0163620
  C        0.1096870    -0.2710340    -0.0061280
  C        1.2343910     0.5769770    -0.0015960
  C        0.3300835    -1.6595173    -0.2515209
  C        2.5300300     0.0689490     0.0091910
  C        1.6277130    -2.1636760     0.0089260
  C        2.7309420    -1.3104680     0.0141480
  C       -2.3977350    -0.3210840    -0.0173950
  C       -3.5624210     0.6474400     0.0363070
  H       -0.5282050    -2.3191560    -0.0064230
  H       -1.1804810     1.3202100    -0.0131680
  H        3.3690000     0.7589460     0.0128930
  H        1.7714720    -3.2410880     0.0123870
  H        3.7417620    -1.7087950     0.0220870
  H       -3.7187230     0.9816890     1.0666350
  H       -4.4568090     0.1237200    -0.3002800
  H       -3.3965620     1.5279900    -0.5904610
units angstrom
no_reorient  #important for SAPT in psi4, default
symmetry c1  #important for SAPT in psi4, default
}

set PROPERTIES_ORIGIN ["COM"]
properties('MP2/aug-cc-pvtz', properties = ['dipole'])
--------------------------------------------------------------------------

    Molecular point group: c1
  Charge       = 0
  Multiplicity = 1
  Basis Set: AUG-CC-PVTZ
    Blend: AUG-CC-PVTZ
  Basis Set: (AUG-CC-PVTZ AUX)
    Blend: AUG-CC-PVTZ-JKFIT

    Orbital Energies [Eh]
    ---------------------

    Doubly Occupied:

       1A   -104.856272     2A    -20.535895     3A    -15.614352
       4A    -11.371990     5A    -11.312897     6A    -11.307765
       7A    -11.259796     8A    -11.252841     9A    -11.248600
      10A    -11.244394    11A    -11.243457    12A    -10.580121
      13A     -8.046984    14A     -8.045236    15A     -8.045131
      16A     -1.390762    17A     -1.271543    18A     -1.181662
      19A     -1.123073    20A     -1.044124    21A     -1.006565
      22A     -0.987187    23A     -0.870974    24A     -0.827848
      25A     -0.788381    26A     -0.736118    27A     -0.688474
      28A     -0.673167    29A     -0.636925    30A     -0.629957
      31A     -0.618963    32A     -0.596090    33A     -0.588870
      34A     -0.573985    35A     -0.569366    36A     -0.536199
      37A     -0.527661    38A     -0.510365    39A     -0.478480
      40A     -0.470275    41A     -0.450472    42A     -0.433109
      43A     -0.344236    44A     -0.318466

  @DF-RHF Final Energy:  -896.58765100065659

   => Energetics <=

    Nuclear Repulsion Energy =            655.4929872686973340
    One-Electron Energy =               -2530.4832161245280986
    Two-Electron Energy =                 978.4025778551741723
    Total Energy =                       -896.5876510006565923
  Basis Set: (AUG-CC-PVTZ AUX)
    Blend: AUG-CC-PVTZ-RI
    Molecular point group: c1

    Geometry (in Angstrom), charge = 0, multiplicity = 1:

       Center              X                  Y                   Z               Mass
    ------------   -----------------  -----------------  -----------------  -----------------
         CL           0.992093140677     2.285136653866     0.011387652248    34.968852682000
         O           -2.586410859323    -1.569391346134    -0.007453347752    15.994914619570
         N           -1.200239859323     0.278589653866     0.002624652248    14.003074004430
         C            0.077829140677    -0.299305346134     0.012858652248    12.000000000000
         C            1.202533140677     0.548705653866     0.017390652248    12.000000000000
         C            0.298225640677    -1.687788646134    -0.232534247752    12.000000000000
         C            2.498172140677     0.040677653866     0.028177652248    12.000000000000
         C            1.595855140677    -2.191947346134     0.027912652248    12.000000000000
         C            2.699084140677    -1.338739346134     0.033134652248    12.000000000000
         C           -2.429592859323    -0.349355346134     0.001591652248    12.000000000000
         C           -3.594278859323     0.619168653866     0.055293652248    12.000000000000
         H           -0.560062859323    -2.347427346134     0.012563652248     1.007825032230
         H           -1.212338859323     1.291938653866     0.005818652248     1.007825032230
         H            3.337142140677     0.730674653866     0.031879652248     1.007825032230
         H            1.739614140677    -3.269359346134     0.031373652248     1.007825032230
         H            3.709904140677    -1.737066346134     0.041073652248     1.007825032230
         H           -3.750580859323     0.953417653866     1.085621652248     1.007825032230
         H           -4.488666859323     0.095448653866    -0.281293347752     1.007825032230
         H           -3.428419859323     1.499718653866    -0.571474347752     1.007825032230

  Basis Set: AUG-CC-PVTZ
    Blend: AUG-CC-PVTZ
  Basis Set: (AUG-CC-PVTZ AUX)
    Blend: AUG-CC-PVTZ-JKFIT
	 Reference Energy          =    -896.5876510006565923 [Eh]
	 Singles Energy            =      -0.0000000000000000 [Eh]
	 Same-Spin Energy          =      -0.5349004108465530 [Eh]
	 Opposite-Spin Energy      =      -1.6230740694005132 [Eh]
	 Correlation Energy        =      -2.1579744802470664 [Eh]
	 Total Energy              =    -898.7456254809036409 [Eh]

	 ================> DF-SCS-MP2 Energies <==================
	-----------------------------------------------------------
	 SCS Same-Spin Scale       =       0.3333333333333333 [-]
	 SCS Opposite-Spin Scale   =       1.2000000000000000 [-]
	 SCS Same-Spin Energy      =      -0.1783001369488510 [Eh]
	 SCS Opposite-Spin Energy  =      -1.9476888832806158 [Eh]
	 SCS Correlation Energy    =      -2.1259890202294667 [Eh]
	 SCS Total Energy          =    -898.7136400208860323 [Eh]
	-----------------------------------------------------------

  Dipole Moment: [D]
     X:     0.6230      Y:     1.9374      Z:     0.2184     Total:     2.0468

*** Psi4 exiting successfully. Buy a developer a beer!
