                               Psi4 1.4a3.dev225

  ==> Input File <==

--------------------------------------------------------------------------
#psi4
#
memory 32 gb

molecule  {
0 1
  C       -0.5824800     1.6044310    -0.2213210
  C        0.7517090     0.8972820    -0.1584330
  C       -1.7393840     0.6486410    -0.0371650
  C        1.7237550     1.2518080     0.7820810
  C        1.0412590    -0.1412430    -1.0548500
  C        3.3207605    -0.3386378    -0.1573259
  C        2.9517370     0.5872480     0.8282550
  C        2.2676820    -0.7996710    -1.0091590
  C       -1.8261890    -0.1288690     1.1267200
  C       -2.7336970     0.5134260    -1.0120210
  C        4.5537390    -1.1898250     0.0022800
  C       -2.8866350    -1.0143110     1.3128170
  C       -3.7965280    -0.3760470    -0.8307700
  C       -3.8763200    -1.1410390     0.3331560
  H       -0.6887990     2.1194610    -1.1851540
  H       -0.6152960     2.3835930     0.5515720
  H        1.5214970     2.0586850     1.4854080
  H        0.2921320    -0.4400260    -1.7869590
  H        3.6942270     0.8828880     1.5683180
  H        2.4736480    -1.5998700    -1.7190670
  H       -1.0482340    -0.0434160     1.8839740
  H       -2.6776530     1.1110490    -1.9207770
  H        4.8944640    -1.4825890    -0.9952280
  H        5.3329890    -0.5734720     0.4595320
  H        4.4581780    -2.1030590     0.5999660
  H       -2.9412840    -1.6093450     2.2217140
  H       -4.5604750    -0.4701320    -1.5992930
  H       -4.7020430    -1.8337400     0.4769600
units angstrom
no_reorient  #important for SAPT in psi4, default
symmetry c1  #important for SAPT in psi4, default
}

set PROPERTIES_ORIGIN ["COM"]
properties('MP2/aug-cc-pvtz', properties = ['dipole'])
--------------------------------------------------------------------------

    Molecular point group: c1
  Charge       = 0
  Multiplicity = 1
  Basis Set: AUG-CC-PVTZ
    Blend: AUG-CC-PVTZ
  Basis Set: (AUG-CC-PVTZ AUX)
    Blend: AUG-CC-PVTZ-JKFIT

    Orbital Energies [Eh]
    ---------------------

    Doubly Occupied:

       1A    -11.241680     2A    -11.240344     3A    -11.239266
       4A    -11.236239     5A    -11.235444     6A    -11.234954
       7A    -11.233741     8A    -11.232025     9A    -11.231760
      10A    -11.231731    11A    -11.230460    12A    -11.229919
      13A    -11.228985    14A    -11.222518    15A     -1.160361
      16A     -1.144464    17A     -1.073360    18A     -1.024101
      19A     -1.010618    20A     -1.007639    21A     -0.957279
      22A     -0.895474    23A     -0.826823    24A     -0.822482
      25A     -0.803391    26A     -0.774409    27A     -0.693814
      28A     -0.667711    29A     -0.647530    30A     -0.635695
      31A     -0.629172    32A     -0.617755    33A     -0.583224
      34A     -0.578179    35A     -0.575253    36A     -0.570664
      37A     -0.558634    38A     -0.545945    39A     -0.526961
      40A     -0.506370    41A     -0.490639    42A     -0.488564
      43A     -0.478378    44A     -0.471848    45A     -0.467813
      46A     -0.337600    47A     -0.334026    48A     -0.327779
      49A     -0.308188

  @DF-RHF Final Energy:  -538.48319949914764

   => Energetics <=

    Nuclear Repulsion Energy =            785.2415507001085189
    One-Electron Energy =               -2285.8270853491749222
    Two-Electron Energy =                 962.1023351499187584
    Total Energy =                       -538.4831994991476449
  Basis Set: (AUG-CC-PVTZ AUX)
    Blend: AUG-CC-PVTZ-RI
    Molecular point group: c1

    Geometry (in Angstrom), charge = 0, multiplicity = 1:

       Center              X                  Y                   Z               Mass
    ------------   -----------------  -----------------  -----------------  -----------------
         C           -0.557817752237     1.588694178111    -0.215239252848    12.000000000000
         C            0.776371247763     0.881545178111    -0.152351252848    12.000000000000
         C           -1.714721752237     0.632904178111    -0.031083252848    12.000000000000
         C            1.748417247763     1.236071178111     0.788162747152    12.000000000000
         C            1.065921247763    -0.156979821889    -1.048768252848    12.000000000000
         C            3.345422747763    -0.354374621889    -0.151244152848    12.000000000000
         C            2.976399247763     0.571511178111     0.834336747152    12.000000000000
         C            2.292344247763    -0.815407821889    -1.003077252848    12.000000000000
         C           -1.801526752237    -0.144605821889     1.132801747152    12.000000000000
         C           -2.709034752237     0.497689178111    -1.005939252848    12.000000000000
         C            4.578401247763    -1.205561821889     0.008361747152    12.000000000000
         C           -2.861972752237    -1.030047821889     1.318898747152    12.000000000000
         C           -3.771865752237    -0.391783821889    -0.824688252848    12.000000000000
         C           -3.851657752237    -1.156775821889     0.339237747152    12.000000000000
         H           -0.664136752237     2.103724178111    -1.179072252848     1.007825032230
         H           -0.590633752237     2.367856178111     0.557653747152     1.007825032230
         H            1.546159247763     2.042948178111     1.491489747152     1.007825032230
         H            0.316794247763    -0.455762821889    -1.780877252848     1.007825032230
         H            3.718889247763     0.867151178111     1.574399747152     1.007825032230
         H            2.498310247763    -1.615606821889    -1.712985252848     1.007825032230
         H           -1.023571752237    -0.059152821889     1.890055747152     1.007825032230
         H           -2.652990752237     1.095312178111    -1.914695252848     1.007825032230
         H            4.919126247763    -1.498325821889    -0.989146252848     1.007825032230
         H            5.357651247763    -0.589208821889     0.465613747152     1.007825032230
         H            4.482840247763    -2.118795821889     0.606047747152     1.007825032230
         H           -2.916621752237    -1.625081821889     2.227795747152     1.007825032230
         H           -4.535812752237    -0.485868821889    -1.593211252848     1.007825032230
         H           -4.677380752237    -1.849476821889     0.483041747152     1.007825032230

  Basis Set: AUG-CC-PVTZ
    Blend: AUG-CC-PVTZ
  Basis Set: (AUG-CC-PVTZ AUX)
    Blend: AUG-CC-PVTZ-JKFIT
	 Reference Energy          =    -538.4831994991476449 [Eh]
	 Singles Energy            =      -0.0000000000000000 [Eh]
	 Same-Spin Energy          =      -0.6086584171995667 [Eh]
	 Opposite-Spin Energy      =      -1.9362119124635440 [Eh]
	 Correlation Energy        =      -2.5448703296631106 [Eh]
	 Total Energy              =    -541.0280698288107715 [Eh]

	 ================> DF-SCS-MP2 Energies <==================
	-----------------------------------------------------------
	 SCS Same-Spin Scale       =       0.3333333333333333 [-]
	 SCS Opposite-Spin Scale   =       1.2000000000000000 [-]
	 SCS Same-Spin Energy      =      -0.2028861390665222 [Eh]
	 SCS Opposite-Spin Energy  =      -2.3234542949562527 [Eh]
	 SCS Correlation Energy    =      -2.5263404340227749 [Eh]
	 SCS Total Energy          =    -541.0095399331704584 [Eh]
	-----------------------------------------------------------

  Dipole Moment: [D]
     X:     0.2222      Y:    -0.1369      Z:     0.0526     Total:     0.2662

*** Psi4 exiting successfully. Buy a developer a beer!
