                               Psi4 1.4a3.dev225

  ==> Input File <==

--------------------------------------------------------------------------
#psi4
#
memory 32 gb

molecule  {
0 1
  C       -0.5824800     1.6044310    -0.2213210
  C        0.7517090     0.8972820    -0.1584330
  C       -1.7393840     0.6486410    -0.0371650
  C        1.7237550     1.2518080     0.7820810
  C        1.0412590    -0.1412430    -1.0548500
  C        3.2457950    -0.4451680    -0.0684180
  C        2.9517370     0.5872480     0.8282550
  C        2.2676820    -0.7996710    -1.0091590
  C       -1.8261890    -0.1288690     1.1267200
  C       -2.7336970     0.5134260    -1.0120210
  C        4.5537390    -1.1898250     0.0022800
  C       -2.8238064    -0.9150028     1.2255655
  C       -3.7965280    -0.3760470    -0.8307700
  C       -3.8763200    -1.1410390     0.3331560
  H       -0.6887990     2.1194610    -1.1851540
  H       -0.6152960     2.3835930     0.5515720
  H        1.5214970     2.0586850     1.4854080
  H        0.2921320    -0.4400260    -1.7869590
  H        3.6942270     0.8828880     1.5683180
  H        2.4736480    -1.5998700    -1.7190670
  H       -1.0482340    -0.0434160     1.8839740
  H       -2.6776530     1.1110490    -1.9207770
  H        4.8944640    -1.4825890    -0.9952280
  H        5.3329890    -0.5734720     0.4595320
  H        4.4581780    -2.1030590     0.5999660
  H       -2.9412840    -1.6093450     2.2217140
  H       -4.5604750    -0.4701320    -1.5992930
  H       -4.7020430    -1.8337400     0.4769600
units angstrom
no_reorient  #important for SAPT in psi4, default
symmetry c1  #important for SAPT in psi4, default
}

set PROPERTIES_ORIGIN ["COM"]
properties('MP2/aug-cc-pvtz', properties = ['dipole'])
--------------------------------------------------------------------------

    Molecular point group: c1
  Charge       = 0
  Multiplicity = 1
  Basis Set: AUG-CC-PVTZ
    Blend: AUG-CC-PVTZ
  Basis Set: (AUG-CC-PVTZ AUX)
    Blend: AUG-CC-PVTZ-JKFIT

    Orbital Energies [Eh]
    ---------------------

    Doubly Occupied:

       1A    -11.242604     2A    -11.239108     3A    -11.237698
       4A    -11.235532     5A    -11.235231     6A    -11.232006
       7A    -11.231759     8A    -11.230598     9A    -11.230535
      10A    -11.229864    11A    -11.229370    12A    -11.228520
      13A    -11.223446    14A    -11.214895    15A     -1.169744
      16A     -1.151398    17A     -1.074983    18A     -1.026487
      19A     -1.021563    20A     -1.008864    21A     -0.958462
      22A     -0.898684    23A     -0.828229    24A     -0.815895
      25A     -0.805311    26A     -0.775930    27A     -0.697575
      28A     -0.669345    29A     -0.651274    30A     -0.638062
      31A     -0.625958    32A     -0.612324    33A     -0.583507
      34A     -0.579326    35A     -0.574516    36A     -0.564496
      37A     -0.560829    38A     -0.551192    39A     -0.531788
      40A     -0.511663    41A     -0.499260    42A     -0.480967
      43A     -0.478773    44A     -0.474628    45A     -0.451323
      46A     -0.349762    47A     -0.335307    48A     -0.327788
      49A     -0.307789

  @DF-RHF Final Energy:  -538.46597276146497

   => Energetics <=

    Nuclear Repulsion Energy =            788.8637573988725080
    One-Electron Energy =               -2292.9911208646371961
    Two-Electron Energy =                 965.6613907042996061
    Total Energy =                       -538.4659727614649682
  Basis Set: (AUG-CC-PVTZ AUX)
    Blend: AUG-CC-PVTZ-RI
    Molecular point group: c1

    Geometry (in Angstrom), charge = 0, multiplicity = 1:

       Center              X                  Y                   Z               Mass
    ------------   -----------------  -----------------  -----------------  -----------------
         C           -0.557017998464     1.589170067485    -0.215348400337    12.000000000000
         C            0.777171001536     0.882021067485    -0.152460400337    12.000000000000
         C           -1.713921998464     0.633380067485    -0.031192400337    12.000000000000
         C            1.749217001536     1.236547067485     0.788053599663    12.000000000000
         C            1.066721001536    -0.156503932515    -1.048877400337    12.000000000000
         C            3.271257001536    -0.460428932515    -0.062445400337    12.000000000000
         C            2.977199001536     0.571987067485     0.834227599663    12.000000000000
         C            2.293144001536    -0.814931932515    -1.003186400337    12.000000000000
         C           -1.800726998464    -0.144129932515     1.132692599663    12.000000000000
         C           -2.708234998464     0.498165067485    -1.006048400337    12.000000000000
         C            4.579201001536    -1.205085932515     0.008252599663    12.000000000000
         C           -2.798344398464    -0.930263732515     1.231538099663    12.000000000000
         C           -3.771065998464    -0.391307932515    -0.824797400337    12.000000000000
         C           -3.850857998464    -1.156299932515     0.339128599663    12.000000000000
         H           -0.663336998464     2.104200067485    -1.179181400337     1.007825032230
         H           -0.589833998464     2.368332067485     0.557544599663     1.007825032230
         H            1.546959001536     2.043424067485     1.491380599663     1.007825032230
         H            0.317594001536    -0.455286932515    -1.780986400337     1.007825032230
         H            3.719689001536     0.867627067485     1.574290599663     1.007825032230
         H            2.499110001536    -1.615130932515    -1.713094400337     1.007825032230
         H           -1.022771998464    -0.058676932515     1.889946599663     1.007825032230
         H           -2.652190998464     1.095788067485    -1.914804400337     1.007825032230
         H            4.919926001536    -1.497849932515    -0.989255400337     1.007825032230
         H            5.358451001536    -0.588732932515     0.465504599663     1.007825032230
         H            4.483640001536    -2.118319932515     0.605938599663     1.007825032230
         H           -2.915821998464    -1.624605932515     2.227686599663     1.007825032230
         H           -4.535012998464    -0.485392932515    -1.593320400337     1.007825032230
         H           -4.676580998464    -1.849000932515     0.482932599663     1.007825032230

  Basis Set: AUG-CC-PVTZ
    Blend: AUG-CC-PVTZ
  Basis Set: (AUG-CC-PVTZ AUX)
    Blend: AUG-CC-PVTZ-JKFIT
	 Reference Energy          =    -538.4659727614649682 [Eh]
	 Singles Energy            =      -0.0000000000000000 [Eh]
	 Same-Spin Energy          =      -0.6084602083288624 [Eh]
	 Opposite-Spin Energy      =      -1.9353555089876839 [Eh]
	 Correlation Energy        =      -2.5438157173165461 [Eh]
	 Total Energy              =    -541.0097884787815019 [Eh]

	 ================> DF-SCS-MP2 Energies <==================
	-----------------------------------------------------------
	 SCS Same-Spin Scale       =       0.3333333333333333 [-]
	 SCS Opposite-Spin Scale   =       1.2000000000000000 [-]
	 SCS Same-Spin Energy      =      -0.2028200694429541 [Eh]
	 SCS Opposite-Spin Energy  =      -2.3224266107852207 [Eh]
	 SCS Correlation Energy    =      -2.5252466802281748 [Eh]
	 SCS Total Energy          =    -540.9912194416931470 [Eh]
	-----------------------------------------------------------

  Dipole Moment: [D]
     X:     0.3778      Y:    -0.0673      Z:    -0.1031     Total:     0.3974

*** Psi4 exiting successfully. Buy a developer a beer!
