                               Psi4 1.4a3.dev225

  ==> Input File <==

--------------------------------------------------------------------------
#psi4
#
memory 32 gb

molecule  {
0 1
  C       -0.5824800     1.6044310    -0.2213210
  C        0.7517090     0.8972820    -0.1584330
  C       -1.7240801     0.6612845    -0.0396011
  C        1.7237550     1.2518080     0.7820810
  C        1.0412590    -0.1412430    -1.0548500
  C        3.2457950    -0.4451680    -0.0684180
  C        2.9517370     0.5872480     0.8282550
  C        2.2676820    -0.7996710    -1.0091590
  C       -1.8261890    -0.1288690     1.1267200
  C       -2.7336970     0.5134260    -1.0120210
  C        4.5537390    -1.1898250     0.0022800
  C       -2.8866350    -1.0143110     1.3128170
  C       -3.7965280    -0.3760470    -0.8307700
  C       -3.8763200    -1.1410390     0.3331560
  H       -0.6887990     2.1194610    -1.1851540
  H       -0.6152960     2.3835930     0.5515720
  H        1.5214970     2.0586850     1.4854080
  H        0.2921320    -0.4400260    -1.7869590
  H        3.6942270     0.8828880     1.5683180
  H        2.4736480    -1.5998700    -1.7190670
  H       -1.0482340    -0.0434160     1.8839740
  H       -2.6776530     1.1110490    -1.9207770
  H        4.8944640    -1.4825890    -0.9952280
  H        5.3329890    -0.5734720     0.4595320
  H        4.4581780    -2.1030590     0.5999660
  H       -2.9412840    -1.6093450     2.2217140
  H       -4.5604750    -0.4701320    -1.5992930
  H       -4.7020430    -1.8337400     0.4769600
units angstrom
no_reorient  #important for SAPT in psi4, default
symmetry c1  #important for SAPT in psi4, default
}

set PROPERTIES_ORIGIN ["COM"]
properties('MP2/aug-cc-pvtz', properties = ['dipole'])
--------------------------------------------------------------------------

    Molecular point group: c1
  Charge       = 0
  Multiplicity = 1
  Basis Set: AUG-CC-PVTZ
    Blend: AUG-CC-PVTZ
  Basis Set: (AUG-CC-PVTZ AUX)
    Blend: AUG-CC-PVTZ-JKFIT

    Orbital Energies [Eh]
    ---------------------

    Doubly Occupied:

       1A    -11.242415     2A    -11.238589     3A    -11.237285
       4A    -11.234984     5A    -11.234868     6A    -11.234467
       7A    -11.232491     8A    -11.231447     9A    -11.231426
      10A    -11.230386    11A    -11.230123    12A    -11.229351
      13A    -11.228893    14A    -11.223112    15A     -1.160657
      16A     -1.144194    17A     -1.075497    18A     -1.024533
      19A     -1.009159    20A     -1.008261    21A     -0.957040
      22A     -0.897533    23A     -0.828082    24A     -0.821858
      25A     -0.802937    26A     -0.774546    27A     -0.692907
      28A     -0.668505    29A     -0.649055    30A     -0.636056
      31A     -0.628883    32A     -0.617277    33A     -0.581186
      34A     -0.578995    35A     -0.575728    36A     -0.570591
      37A     -0.560701    38A     -0.548623    39A     -0.528332
      40A     -0.503390    41A     -0.491500    42A     -0.488821
      43A     -0.477559    44A     -0.473312    45A     -0.472259
      46A     -0.336900    47A     -0.333359    48A     -0.328741
      49A     -0.306802

  @DF-RHF Final Energy:  -538.49274482848091

   => Energetics <=

    Nuclear Repulsion Energy =            785.9307651582146264
    One-Electron Energy =               -2287.2197829715028092
    Two-Electron Energy =                 962.7962729848072740
    Total Energy =                       -538.4927448284809088
  Basis Set: (AUG-CC-PVTZ AUX)
    Blend: AUG-CC-PVTZ-RI
    Molecular point group: c1

    Geometry (in Angstrom), charge = 0, multiplicity = 1:

       Center              X                  Y                   Z               Mass
    ------------   -----------------  -----------------  -----------------  -----------------
         C           -0.553886386758     1.594880786102    -0.220937260435    12.000000000000
         C            0.780302613242     0.887731786102    -0.158049260435    12.000000000000
         C           -1.695486486758     0.651734286102    -0.039217360435    12.000000000000
         C            1.752348613242     1.242257786102     0.782464739565    12.000000000000
         C            1.069852613242    -0.150793213898    -1.054466260435    12.000000000000
         C            3.274388613242    -0.454718213898    -0.068034260435    12.000000000000
         C            2.980330613242     0.577697786102     0.828638739565    12.000000000000
         C            2.296275613242    -0.809221213898    -1.008775260435    12.000000000000
         C           -1.797595386758    -0.138419213898     1.127103739565    12.000000000000
         C           -2.705103386758     0.503875786102    -1.011637260435    12.000000000000
         C            4.582332613242    -1.199375213898     0.002663739565    12.000000000000
         C           -2.858041386758    -1.023861213898     1.313200739565    12.000000000000
         C           -3.767934386758    -0.385597213898    -0.830386260435    12.000000000000
         C           -3.847726386758    -1.150589213898     0.333539739565    12.000000000000
         H           -0.660205386758     2.109910786102    -1.184770260435     1.007825032230
         H           -0.586702386758     2.374042786102     0.551955739565     1.007825032230
         H            1.550090613242     2.049134786102     1.485791739565     1.007825032230
         H            0.320725613242    -0.449576213898    -1.786575260435     1.007825032230
         H            3.722820613242     0.873337786102     1.568701739565     1.007825032230
         H            2.502241613242    -1.609420213898    -1.718683260435     1.007825032230
         H           -1.019640386758    -0.052966213898     1.884357739565     1.007825032230
         H           -2.649059386758     1.101498786102    -1.920393260435     1.007825032230
         H            4.923057613242    -1.492139213898    -0.994844260435     1.007825032230
         H            5.361582613242    -0.583022213898     0.459915739565     1.007825032230
         H            4.486771613242    -2.112609213898     0.600349739565     1.007825032230
         H           -2.912690386758    -1.618895213898     2.222097739565     1.007825032230
         H           -4.531881386758    -0.479682213898    -1.598909260435     1.007825032230
         H           -4.673449386758    -1.843290213898     0.477343739565     1.007825032230

  Basis Set: AUG-CC-PVTZ
    Blend: AUG-CC-PVTZ
  Basis Set: (AUG-CC-PVTZ AUX)
    Blend: AUG-CC-PVTZ-JKFIT
	 Reference Energy          =    -538.4927448284809088 [Eh]
	 Singles Energy            =      -0.0000000000000000 [Eh]
	 Same-Spin Energy          =      -0.6084207880485920 [Eh]
	 Opposite-Spin Energy      =      -1.9351094200740864 [Eh]
	 Correlation Energy        =      -2.5435302081226783 [Eh]
	 Total Energy              =    -541.0362750366035698 [Eh]

	 ================> DF-SCS-MP2 Energies <==================
	-----------------------------------------------------------
	 SCS Same-Spin Scale       =       0.3333333333333333 [-]
	 SCS Opposite-Spin Scale   =       1.2000000000000000 [-]
	 SCS Same-Spin Energy      =      -0.2028069293495307 [Eh]
	 SCS Opposite-Spin Energy  =      -2.3221313040889036 [Eh]
	 SCS Correlation Energy    =      -2.5249382334384340 [Eh]
	 SCS Total Energy          =    -541.0176830619193424 [Eh]
	-----------------------------------------------------------

  Dipole Moment: [D]
     X:     0.3942      Y:    -0.1196      Z:     0.0100     Total:     0.4121

*** Psi4 exiting successfully. Buy a developer a beer!
