                               Psi4 1.4a3.dev225

  ==> Input File <==

--------------------------------------------------------------------------
#psi4
#
memory 32 gb

molecule  {
0 1
  C       -0.5824800     1.6044310    -0.2213210
  C        0.7517090     0.8972820    -0.1584330
  C       -1.7393840     0.6486410    -0.0371650
  C        1.7237550     1.2518080     0.7820810
  C        1.0412590    -0.1412430    -1.0548500
  C        3.2457950    -0.4451680    -0.0684180
  C        2.9517370     0.5872480     0.8282550
  C        2.2676820    -0.7996710    -1.0091590
  C       -1.8261890    -0.1288690     1.1267200
  C       -2.7336970     0.5134260    -1.0120210
  C        4.5537390    -1.1898250     0.0022800
  C       -2.8866350    -1.0143110     1.3128170
  C       -3.6444474    -0.2487722    -0.8567052
  C       -3.8763200    -1.1410390     0.3331560
  H       -0.6887990     2.1194610    -1.1851540
  H       -0.6152960     2.3835930     0.5515720
  H        1.5214970     2.0586850     1.4854080
  H        0.2921320    -0.4400260    -1.7869590
  H        3.6942270     0.8828880     1.5683180
  H        2.4736480    -1.5998700    -1.7190670
  H       -1.0482340    -0.0434160     1.8839740
  H       -2.6776530     1.1110490    -1.9207770
  H        4.8944640    -1.4825890    -0.9952280
  H        5.3329890    -0.5734720     0.4595320
  H        4.4581780    -2.1030590     0.5999660
  H       -2.9412840    -1.6093450     2.2217140
  H       -4.5604750    -0.4701320    -1.5992930
  H       -4.7020430    -1.8337400     0.4769600
units angstrom
no_reorient  #important for SAPT in psi4, default
symmetry c1  #important for SAPT in psi4, default
}

set PROPERTIES_ORIGIN ["COM"]
properties('MP2/aug-cc-pvtz', properties = ['dipole'])
--------------------------------------------------------------------------

    Molecular point group: c1
  Charge       = 0
  Multiplicity = 1
  Basis Set: AUG-CC-PVTZ
    Blend: AUG-CC-PVTZ
  Basis Set: (AUG-CC-PVTZ AUX)
    Blend: AUG-CC-PVTZ-JKFIT

    Orbital Energies [Eh]
    ---------------------

    Doubly Occupied:

       1A    -11.242380     2A    -11.239479     3A    -11.238424
       4A    -11.237419     5A    -11.235578     6A    -11.233427
       7A    -11.231224     8A    -11.230287     9A    -11.229431
      10A    -11.229301    11A    -11.229044    12A    -11.226465
      13A    -11.223070    14A    -11.206294    15A     -1.171406
      16A     -1.151397    17A     -1.073167    18A     -1.039258
      19A     -1.016587    20A     -1.008344    21A     -0.952282
      22A     -0.898066    23A     -0.828120    24A     -0.813446
      25A     -0.804549    26A     -0.775061    27A     -0.696323
      28A     -0.668332    29A     -0.650624    30A     -0.638262
      31A     -0.625404    32A     -0.614723    33A     -0.592450
      34A     -0.579013    35A     -0.574301    36A     -0.562655
      37A     -0.557465    38A     -0.548197    39A     -0.527764
      40A     -0.512565    41A     -0.502007    42A     -0.480739
      43A     -0.478592    44A     -0.474539    45A     -0.443152
      46A     -0.364674    47A     -0.334414    48A     -0.323642
      49A     -0.299725

  @DF-RHF Final Energy:  -538.43098726883534

   => Energetics <=

    Nuclear Repulsion Energy =            788.8290567279067318
    One-Electron Energy =               -2292.8939526044250670
    Two-Electron Energy =                 965.6339086076828835
    Total Energy =                       -538.4309872688353380
  Basis Set: (AUG-CC-PVTZ AUX)
    Blend: AUG-CC-PVTZ-RI
    Molecular point group: c1

    Geometry (in Angstrom), charge = 0, multiplicity = 1:

       Center              X                  Y                   Z               Mass
    ------------   -----------------  -----------------  -----------------  -----------------
         C           -0.562899205668     1.587327225091    -0.219388801283    12.000000000000
         C            0.771289794332     0.880178225091    -0.156500801283    12.000000000000
         C           -1.719803205668     0.631537225091    -0.035232801283    12.000000000000
         C            1.743335794332     1.234704225091     0.784013198717    12.000000000000
         C            1.060839794332    -0.158346774909    -1.052917801283    12.000000000000
         C            3.265375794332    -0.462271774909    -0.066485801283    12.000000000000
         C            2.971317794332     0.570144225091     0.830187198717    12.000000000000
         C            2.287262794332    -0.816774774909    -1.007226801283    12.000000000000
         C           -1.806608205668    -0.145972774909     1.128652198717    12.000000000000
         C           -2.714116205668     0.496322225091    -1.010088801283    12.000000000000
         C            4.573319794332    -1.206928774909     0.004212198717    12.000000000000
         C           -2.867054205668    -1.031414774909     1.314749198717    12.000000000000
         C           -3.624866605668    -0.265875974909    -0.854773001283    12.000000000000
         C           -3.856739205668    -1.158142774909     0.335088198717    12.000000000000
         H           -0.669218205668     2.102357225091    -1.183221801283     1.007825032230
         H           -0.595715205668     2.366489225091     0.553504198717     1.007825032230
         H            1.541077794332     2.041581225091     1.487340198717     1.007825032230
         H            0.311712794332    -0.457129774909    -1.785026801283     1.007825032230
         H            3.713807794332     0.865784225091     1.570250198717     1.007825032230
         H            2.493228794332    -1.616973774909    -1.717134801283     1.007825032230
         H           -1.028653205668    -0.060519774909     1.885906198717     1.007825032230
         H           -2.658072205668     1.093945225091    -1.918844801283     1.007825032230
         H            4.914044794332    -1.499692774909    -0.993295801283     1.007825032230
         H            5.352569794332    -0.590575774909     0.461464198717     1.007825032230
         H            4.477758794332    -2.120162774909     0.601898198717     1.007825032230
         H           -2.921703205668    -1.626448774909     2.223646198717     1.007825032230
         H           -4.540894205668    -0.487235774909    -1.597360801283     1.007825032230
         H           -4.682462205668    -1.850843774909     0.478892198717     1.007825032230

  Basis Set: AUG-CC-PVTZ
    Blend: AUG-CC-PVTZ
  Basis Set: (AUG-CC-PVTZ AUX)
    Blend: AUG-CC-PVTZ-JKFIT
	 Reference Energy          =    -538.4309872688353380 [Eh]
	 Singles Energy            =      -0.0000000000000000 [Eh]
	 Same-Spin Energy          =      -0.6081288438478123 [Eh]
	 Opposite-Spin Energy      =      -1.9366098748839811 [Eh]
	 Correlation Energy        =      -2.5447387187317934 [Eh]
	 Total Energy              =    -540.9757259875671025 [Eh]

	 ================> DF-SCS-MP2 Energies <==================
	-----------------------------------------------------------
	 SCS Same-Spin Scale       =       0.3333333333333333 [-]
	 SCS Opposite-Spin Scale   =       1.2000000000000000 [-]
	 SCS Same-Spin Energy      =      -0.2027096146159374 [Eh]
	 SCS Opposite-Spin Energy  =      -2.3239318498607773 [Eh]
	 SCS Correlation Energy    =      -2.5266414644767146 [Eh]
	 SCS Total Energy          =    -540.9576287333120490 [Eh]
	-----------------------------------------------------------

  Dipole Moment: [D]
     X:     0.3950      Y:    -0.1312      Z:     0.0828     Total:     0.4243

*** Psi4 exiting successfully. Buy a developer a beer!
