                               Psi4 1.4a3.dev225

  ==> Input File <==

--------------------------------------------------------------------------
#psi4
#
memory 32 gb

molecule  {
0 1
  C       -0.5824800     1.6044310    -0.2213210
  C        0.7517090     0.8972820    -0.1584330
  C       -1.7393840     0.6486410    -0.0371650
  C        1.7237550     1.2518080     0.7820810
  C        1.0412590    -0.1412430    -1.0548500
  C        3.2457950    -0.4451680    -0.0684180
  C        2.9517370     0.5872480     0.8282550
  C        2.2676820    -0.7996710    -1.0091590
  C       -1.8261890    -0.1288690     1.1267200
  C       -2.7336970     0.5134260    -1.0120210
  C        4.5537390    -1.1898250     0.0022800
  C       -2.8866350    -1.0143110     1.3128170
  C       -3.7965280    -0.3760470    -0.8307700
  C       -3.8763200    -1.1410390     0.3331560
  H       -0.6887990     2.1194610    -1.1851540
  H       -0.6152960     2.3835930     0.5515720
  H        1.5214970     2.0586850     1.4854080
  H        0.2921320    -0.4400260    -1.7869590
  H        3.6942270     0.8828880     1.5683180
  H        2.4736480    -1.5998700    -1.7190670
  H       -1.0482340    -0.0434160     1.8839740
  H       -2.6776530     1.1110490    -1.9207770
  H        4.8944640    -1.4825890    -0.9952280
  H        5.3329890    -0.5734720     0.4595320
  H        4.4494558    -2.1864131     0.6545189
  H       -2.9412840    -1.6093450     2.2217140
  H       -4.5604750    -0.4701320    -1.5992930
  H       -4.7020430    -1.8337400     0.4769600
units angstrom
no_reorient  #important for SAPT in psi4, default
symmetry c1  #important for SAPT in psi4, default
}

set PROPERTIES_ORIGIN ["COM"]
properties('MP2/aug-cc-pvtz', properties = ['dipole'])
--------------------------------------------------------------------------

    Molecular point group: c1
  Charge       = 0
  Multiplicity = 1
  Basis Set: AUG-CC-PVTZ
    Blend: AUG-CC-PVTZ
  Basis Set: (AUG-CC-PVTZ AUX)
    Blend: AUG-CC-PVTZ-JKFIT

    Orbital Energies [Eh]
    ---------------------

    Doubly Occupied:

       1A    -11.241269     2A    -11.239155     3A    -11.237488
       4A    -11.235596     5A    -11.235171     6A    -11.234680
       7A    -11.234644     8A    -11.231682     9A    -11.231587
      10A    -11.231416    11A    -11.230361    12A    -11.229774
      13A    -11.229600    14A    -11.229114    15A     -1.160949
      16A     -1.145483    17A     -1.073613    18A     -1.023099
      19A     -1.010319    20A     -1.008563    21A     -0.954644
      22A     -0.893191    23A     -0.828465    24A     -0.823069
      25A     -0.802593    26A     -0.774436    27A     -0.693517
      28A     -0.667393    29A     -0.648880    30A     -0.635264
      31A     -0.628793    32A     -0.617968    33A     -0.582891
      34A     -0.579130    35A     -0.572082    36A     -0.561290
      37A     -0.555739    38A     -0.548709    39A     -0.528643
      40A     -0.501812    41A     -0.491607    42A     -0.490436
      43A     -0.478037    44A     -0.473634    45A     -0.469652
      46A     -0.337305    47A     -0.333909    48A     -0.329352
      49A     -0.307185

  @DF-RHF Final Energy:  -538.48745216116129

   => Energetics <=

    Nuclear Repulsion Energy =            785.5591576517383601
    One-Electron Energy =               -2286.4868465806648601
    Two-Electron Energy =                 962.4402367677652137
    Total Energy =                       -538.4874521611612863
  Basis Set: (AUG-CC-PVTZ AUX)
    Blend: AUG-CC-PVTZ-RI
    Molecular point group: c1

    Geometry (in Angstrom), charge = 0, multiplicity = 1:

       Center              X                  Y                   Z               Mass
    ------------   -----------------  -----------------  -----------------  -----------------
         C           -0.552829675284     1.596175217657    -0.221399690757    12.000000000000
         C            0.781359324716     0.889026217657    -0.158511690757    12.000000000000
         C           -1.709733675284     0.640385217657    -0.037243690757    12.000000000000
         C            1.753405324716     1.243552217657     0.782002309243    12.000000000000
         C            1.070909324716    -0.149498782343    -1.054928690757    12.000000000000
         C            3.275445324716    -0.453423782343    -0.068496690757    12.000000000000
         C            2.981387324716     0.578992217657     0.828176309243    12.000000000000
         C            2.297332324716    -0.807926782343    -1.009237690757    12.000000000000
         C           -1.796538675284    -0.137124782343     1.126641309243    12.000000000000
         C           -2.704046675284     0.505170217657    -1.012099690757    12.000000000000
         C            4.583389324716    -1.198080782343     0.002201309243    12.000000000000
         C           -2.856984675284    -1.022566782343     1.312738309243    12.000000000000
         C           -3.766877675284    -0.384302782343    -0.830848690757    12.000000000000
         C           -3.846669675284    -1.149294782343     0.333077309243    12.000000000000
         H           -0.659148675284     2.111205217657    -1.185232690757     1.007825032230
         H           -0.585645675284     2.375337217657     0.551493309243     1.007825032230
         H            1.551147324716     2.050429217657     1.485329309243     1.007825032230
         H            0.321782324716    -0.448281782343    -1.787037690757     1.007825032230
         H            3.723877324716     0.874632217657     1.568239309243     1.007825032230
         H            2.503298324716    -1.608125782343    -1.719145690757     1.007825032230
         H           -1.018583675284    -0.051671782343     1.883895309243     1.007825032230
         H           -2.648002675284     1.102793217657    -1.920855690757     1.007825032230
         H            4.924114324716    -1.490844782343    -0.995306690757     1.007825032230
         H            5.362639324716    -0.581727782343     0.459453309243     1.007825032230
         H            4.479106124716    -2.194668882343     0.654440209243     1.007825032230
         H           -2.911633675284    -1.617600782343     2.221635309243     1.007825032230
         H           -4.530824675284    -0.478387782343    -1.599371690757     1.007825032230
         H           -4.672392675284    -1.841995782343     0.476881309243     1.007825032230

  Basis Set: AUG-CC-PVTZ
    Blend: AUG-CC-PVTZ
  Basis Set: (AUG-CC-PVTZ AUX)
    Blend: AUG-CC-PVTZ-JKFIT
	 Reference Energy          =    -538.4874521611612863 [Eh]
	 Singles Energy            =      -0.0000000000000000 [Eh]
	 Same-Spin Energy          =      -0.6081778197840317 [Eh]
	 Opposite-Spin Energy      =      -1.9354125769422630 [Eh]
	 Correlation Energy        =      -2.5435903967262945 [Eh]
	 Total Energy              =    -541.0310425578875311 [Eh]

	 ================> DF-SCS-MP2 Energies <==================
	-----------------------------------------------------------
	 SCS Same-Spin Scale       =       0.3333333333333333 [-]
	 SCS Opposite-Spin Scale   =       1.2000000000000000 [-]
	 SCS Same-Spin Energy      =      -0.2027259399280106 [Eh]
	 SCS Opposite-Spin Energy  =      -2.3224950923307155 [Eh]
	 SCS Correlation Energy    =      -2.5252210322587261 [Eh]
	 SCS Total Energy          =    -541.0126731934200279 [Eh]
	-----------------------------------------------------------

  Dipole Moment: [D]
     X:     0.3262      Y:    -0.0739      Z:    -0.0154     Total:     0.3348

*** Psi4 exiting successfully. Buy a developer a beer!
