                               Psi4 1.4a3.dev225

  ==> Input File <==

--------------------------------------------------------------------------
#psi4
#
memory 32 gb

molecule  {
0 1
  C       -0.5824800     1.6044310    -0.2213210
  C        0.7517090     0.8972820    -0.1584330
  C       -1.7393840     0.6486410    -0.0371650
  C        1.7237550     1.2518080     0.7820810
  C        1.0412590    -0.1412430    -1.0548500
  C        3.2457950    -0.4451680    -0.0684180
  C        2.9517370     0.5872480     0.8282550
  C        2.2676820    -0.7996710    -1.0091590
  C       -1.8261890    -0.1288690     1.1267200
  C       -2.7336970     0.5134260    -1.0120210
  C        4.5537390    -1.1898250     0.0022800
  C       -2.8866350    -1.0143110     1.3128170
  C       -3.7965280    -0.3760470    -0.8307700
  C       -3.8763200    -1.1410390     0.3331560
  H       -0.6887990     2.1194610    -1.1851540
  H       -0.6152960     2.3835930     0.5515720
  H        1.5214970     2.0586850     1.4854080
  H        0.2921320    -0.4400260    -1.7869590
  H        3.6942270     0.8828880     1.5683180
  H        2.4736480    -1.5998700    -1.7190670
  H       -1.0482340    -0.0434160     1.8839740
  H       -2.6776530     1.1110490    -1.9207770
  H        4.8944640    -1.4825890    -0.9952280
  H        5.3329890    -0.5734720     0.4595320
  H        4.4581780    -2.1030590     0.5999660
  H       -2.9412840    -1.6093450     2.2217140
  H       -4.5604750    -0.4701320    -1.5992930
  H       -4.7400125    -1.8655927     0.4835726
units angstrom
no_reorient  #important for SAPT in psi4, default
symmetry c1  #important for SAPT in psi4, default
}

set PROPERTIES_ORIGIN ["COM"]
properties('MP2/aug-cc-pvtz', properties = ['dipole'])
--------------------------------------------------------------------------

    Molecular point group: c1
  Charge       = 0
  Multiplicity = 1
  Basis Set: AUG-CC-PVTZ
    Blend: AUG-CC-PVTZ
  Basis Set: (AUG-CC-PVTZ AUX)
    Blend: AUG-CC-PVTZ-JKFIT

    Orbital Energies [Eh]
    ---------------------

    Doubly Occupied:

       1A    -11.241296     2A    -11.238464     3A    -11.237640
       4A    -11.237046     5A    -11.235437     6A    -11.235305
       7A    -11.234786     8A    -11.231837     9A    -11.231286
      10A    -11.229989    11A    -11.229816    12A    -11.229242
      13A    -11.228762    14A    -11.223042    15A     -1.160792
      16A     -1.145344    17A     -1.073686    18A     -1.023464
      19A     -1.010554    20A     -1.008222    21A     -0.956661
      22A     -0.895713    23A     -0.828218    24A     -0.823080
      25A     -0.801351    26A     -0.774397    27A     -0.689993
      28A     -0.667211    29A     -0.648220    30A     -0.634460
      31A     -0.628303    32A     -0.617892    33A     -0.583130
      34A     -0.578804    35A     -0.574851    36A     -0.566554
      37A     -0.559716    38A     -0.548478    39A     -0.527760
      40A     -0.501783    41A     -0.491088    42A     -0.490148
      43A     -0.477772    44A     -0.473646    45A     -0.470835
      46A     -0.337307    47A     -0.333982    48A     -0.329454
      49A     -0.307461

  @DF-RHF Final Energy:  -538.49137963152998

   => Energetics <=

    Nuclear Repulsion Energy =            785.7102654186053314
    One-Electron Energy =               -2286.7947321396372899
    Two-Electron Energy =                 962.5930870895019780
    Total Energy =                       -538.4913796315299805
  Basis Set: (AUG-CC-PVTZ AUX)
    Blend: AUG-CC-PVTZ-RI
    Molecular point group: c1

    Geometry (in Angstrom), charge = 0, multiplicity = 1:

       Center              X                  Y                   Z               Mass
    ------------   -----------------  -----------------  -----------------  -----------------
         C           -0.552667815782     1.595890200204    -0.221134381034    12.000000000000
         C            0.781521184218     0.888741200204    -0.158246381034    12.000000000000
         C           -1.709571815782     0.640100200204    -0.036978381034    12.000000000000
         C            1.753567184218     1.243267200204     0.782267618966    12.000000000000
         C            1.071071184218    -0.149783799796    -1.054663381034    12.000000000000
         C            3.275607184218    -0.453708799796    -0.068231381034    12.000000000000
         C            2.981549184218     0.578707200204     0.828441618966    12.000000000000
         C            2.297494184218    -0.808211799796    -1.008972381034    12.000000000000
         C           -1.796376815782    -0.137409799796     1.126906618966    12.000000000000
         C           -2.703884815782     0.504885200204    -1.011834381034    12.000000000000
         C            4.583551184218    -1.198365799796     0.002466618966    12.000000000000
         C           -2.856822815782    -1.022851799796     1.313003618966    12.000000000000
         C           -3.766715815782    -0.384587799796    -0.830583381034    12.000000000000
         C           -3.846507815782    -1.149579799796     0.333342618966    12.000000000000
         H           -0.658986815782     2.110920200204    -1.184967381034     1.007825032230
         H           -0.585483815782     2.375052200204     0.551758618966     1.007825032230
         H            1.551309184218     2.050144200204     1.485594618966     1.007825032230
         H            0.321944184218    -0.448566799796    -1.786772381034     1.007825032230
         H            3.724039184218     0.874347200204     1.568504618966     1.007825032230
         H            2.503460184218    -1.608410799796    -1.718880381034     1.007825032230
         H           -1.018421815782    -0.051956799796     1.884160618966     1.007825032230
         H           -2.647840815782     1.102508200204    -1.920590381034     1.007825032230
         H            4.924276184218    -1.491129799796    -0.995041381034     1.007825032230
         H            5.362801184218    -0.582012799796     0.459718618966     1.007825032230
         H            4.487990184218    -2.111599799796     0.600152618966     1.007825032230
         H           -2.911471815782    -1.617885799796     2.221900618966     1.007825032230
         H           -4.530662815782    -0.478672799796    -1.599106381034     1.007825032230
         H           -4.710200315782    -1.874133499796     0.483759218966     1.007825032230

  Basis Set: AUG-CC-PVTZ
    Blend: AUG-CC-PVTZ
  Basis Set: (AUG-CC-PVTZ AUX)
    Blend: AUG-CC-PVTZ-JKFIT
	 Reference Energy          =    -538.4913796315299805 [Eh]
	 Singles Energy            =      -0.0000000000000000 [Eh]
	 Same-Spin Energy          =      -0.6082856496961270 [Eh]
	 Opposite-Spin Energy      =      -1.9351487434819876 [Eh]
	 Correlation Energy        =      -2.5434343931781145 [Eh]
	 Total Energy              =    -541.0348140247081119 [Eh]

	 ================> DF-SCS-MP2 Energies <==================
	-----------------------------------------------------------
	 SCS Same-Spin Scale       =       0.3333333333333333 [-]
	 SCS Opposite-Spin Scale   =       1.2000000000000000 [-]
	 SCS Same-Spin Energy      =      -0.2027618832320423 [Eh]
	 SCS Opposite-Spin Energy  =      -2.3221784921783852 [Eh]
	 SCS Correlation Energy    =      -2.5249403754104276 [Eh]
	 SCS Total Energy          =    -541.0163200069404184 [Eh]
	-----------------------------------------------------------

  Dipole Moment: [D]
     X:     0.3839      Y:    -0.1154      Z:     0.0068     Total:     0.4009

*** Psi4 exiting successfully. Buy a developer a beer!
