                               Psi4 1.4a3.dev225

  ==> Input File <==

--------------------------------------------------------------------------
#psi4
#
memory 32 gb

molecule  {
0 1
  C       -0.5824800     1.6044310    -0.2213210
  C        0.7517090     0.8972820    -0.1584330
  C       -1.7776437     0.6170323    -0.0310748
  C        1.7237550     1.2518080     0.7820810
  C        1.0412590    -0.1412430    -1.0548500
  C        3.2457950    -0.4451680    -0.0684180
  C        2.9517370     0.5872480     0.8282550
  C        2.2676820    -0.7996710    -1.0091590
  C       -1.8261890    -0.1288690     1.1267200
  C       -2.7336970     0.5134260    -1.0120210
  C        4.5537390    -1.1898250     0.0022800
  C       -2.8866350    -1.0143110     1.3128170
  C       -3.7965280    -0.3760470    -0.8307700
  C       -3.8763200    -1.1410390     0.3331560
  H       -0.6887990     2.1194610    -1.1851540
  H       -0.6152960     2.3835930     0.5515720
  H        1.5214970     2.0586850     1.4854080
  H        0.2921320    -0.4400260    -1.7869590
  H        3.6942270     0.8828880     1.5683180
  H        2.4736480    -1.5998700    -1.7190670
  H       -1.0482340    -0.0434160     1.8839740
  H       -2.6776530     1.1110490    -1.9207770
  H        4.8944640    -1.4825890    -0.9952280
  H        5.3329890    -0.5734720     0.4595320
  H        4.4581780    -2.1030590     0.5999660
  H       -2.9412840    -1.6093450     2.2217140
  H       -4.5604750    -0.4701320    -1.5992930
  H       -4.7020430    -1.8337400     0.4769600
units angstrom
no_reorient  #important for SAPT in psi4, default
symmetry c1  #important for SAPT in psi4, default
}

set PROPERTIES_ORIGIN ["COM"]
properties('MP2/aug-cc-pvtz', properties = ['dipole'])
--------------------------------------------------------------------------

    Molecular point group: c1
  Charge       = 0
  Multiplicity = 1
  Basis Set: AUG-CC-PVTZ
    Blend: AUG-CC-PVTZ
  Basis Set: (AUG-CC-PVTZ AUX)
    Blend: AUG-CC-PVTZ-JKFIT

    Orbital Energies [Eh]
    ---------------------

    Doubly Occupied:

       1A    -11.238037     2A    -11.237862     3A    -11.236389
       4A    -11.235740     5A    -11.235274     6A    -11.234824
       7A    -11.230998     8A    -11.230566     9A    -11.229361
      10A    -11.228977    11A    -11.228677    12A    -11.228121
      13A    -11.227154    14A    -11.222662    15A     -1.161657
      16A     -1.147562    17A     -1.070084    18A     -1.022930
      19A     -1.013197    20A     -1.007628    21A     -0.957614
      22A     -0.893091    23A     -0.829118    24A     -0.824389
      25A     -0.802947    26A     -0.774594    27A     -0.694746
      28A     -0.666388    29A     -0.646844    30A     -0.633536
      31A     -0.627769    32A     -0.618917    33A     -0.587133
      34A     -0.578223    35A     -0.574390    36A     -0.566140
      37A     -0.557983    38A     -0.547830    39A     -0.527216
      40A     -0.503131    41A     -0.495604    42A     -0.489902
      43A     -0.477857    44A     -0.474924    45A     -0.463792
      46A     -0.337847    47A     -0.335012    48A     -0.330259
      49A     -0.308050

  @DF-RHF Final Energy:  -538.49221071054410

   => Energetics <=

    Nuclear Repulsion Energy =            786.0771443787676844
    One-Electron Energy =               -2287.5528142158295850
    Two-Electron Energy =                 962.9834591265179142
    Total Energy =                       -538.4922107105441000
  Basis Set: (AUG-CC-PVTZ AUX)
    Blend: AUG-CC-PVTZ-RI
    Molecular point group: c1

    Geometry (in Angstrom), charge = 0, multiplicity = 1:

       Center              X                  Y                   Z               Mass
    ------------   -----------------  -----------------  -----------------  -----------------
         C           -0.550356845345     1.597796758376    -0.221499095878    12.000000000000
         C            0.783832154655     0.890647758376    -0.158611095878    12.000000000000
         C           -1.745520545345     0.610398058376    -0.031252895878    12.000000000000
         C            1.755878154655     1.245173758376     0.781902904122    12.000000000000
         C            1.073382154655    -0.147877241624    -1.055028095878    12.000000000000
         C            3.277918154655    -0.451802241624    -0.068596095878    12.000000000000
         C            2.983860154655     0.580613758376     0.828076904122    12.000000000000
         C            2.299805154655    -0.806305241624    -1.009337095878    12.000000000000
         C           -1.794065845345    -0.135503241624     1.126541904122    12.000000000000
         C           -2.701573845345     0.506791758376    -1.012199095878    12.000000000000
         C            4.585862154655    -1.196459241624     0.002101904122    12.000000000000
         C           -2.854511845345    -1.020945241624     1.312638904122    12.000000000000
         C           -3.764404845345    -0.382681241624    -0.830948095878    12.000000000000
         C           -3.844196845345    -1.147673241624     0.332977904122    12.000000000000
         H           -0.656675845345     2.112826758376    -1.185332095878     1.007825032230
         H           -0.583172845345     2.376958758376     0.551393904122     1.007825032230
         H            1.553620154655     2.052050758376     1.485229904122     1.007825032230
         H            0.324255154655    -0.446660241624    -1.787137095878     1.007825032230
         H            3.726350154655     0.876253758376     1.568139904122     1.007825032230
         H            2.505771154655    -1.606504241624    -1.719245095878     1.007825032230
         H           -1.016110845345    -0.050050241624     1.883795904122     1.007825032230
         H           -2.645529845345     1.104414758376    -1.920955095878     1.007825032230
         H            4.926587154655    -1.489223241624    -0.995406095878     1.007825032230
         H            5.365112154655    -0.580106241624     0.459353904122     1.007825032230
         H            4.490301154655    -2.109693241624     0.599787904122     1.007825032230
         H           -2.909160845345    -1.615979241624     2.221535904122     1.007825032230
         H           -4.528351845345    -0.476766241624    -1.599471095878     1.007825032230
         H           -4.669919845345    -1.840374241624     0.476781904122     1.007825032230

  Basis Set: AUG-CC-PVTZ
    Blend: AUG-CC-PVTZ
  Basis Set: (AUG-CC-PVTZ AUX)
    Blend: AUG-CC-PVTZ-JKFIT
	 Reference Energy          =    -538.4922107105441000 [Eh]
	 Singles Energy            =      -0.0000000000000000 [Eh]
	 Same-Spin Energy          =      -0.6078352601670933 [Eh]
	 Opposite-Spin Energy      =      -1.9341557211713338 [Eh]
	 Correlation Energy        =      -2.5419909813384272 [Eh]
	 Total Energy              =    -541.0342016918825720 [Eh]

	 ================> DF-SCS-MP2 Energies <==================
	-----------------------------------------------------------
	 SCS Same-Spin Scale       =       0.3333333333333333 [-]
	 SCS Opposite-Spin Scale   =       1.2000000000000000 [-]
	 SCS Same-Spin Energy      =      -0.2026117533890311 [Eh]
	 SCS Opposite-Spin Energy  =      -2.3209868654056005 [Eh]
	 SCS Correlation Energy    =      -2.5235986187946318 [Eh]
	 SCS Total Energy          =    -541.0158093293387083 [Eh]
	-----------------------------------------------------------

  Dipole Moment: [D]
     X:     0.2864      Y:    -0.1550      Z:     0.0109     Total:     0.3258

*** Psi4 exiting successfully. Buy a developer a beer!
