                               Psi4 1.4a3.dev225

  ==> Input File <==

--------------------------------------------------------------------------
#psi4
#
memory 32 gb

molecule  {
0 1
  C       -0.5824800     1.6044310    -0.2213210
  C        0.7517090     0.8972820    -0.1584330
  C       -1.7393840     0.6486410    -0.0371650
  C        1.7237550     1.2518080     0.7820810
  C        1.0412590    -0.1412430    -1.0548500
  C        3.2457950    -0.4451680    -0.0684180
  C        3.0830634     0.5623822     0.8880006
  C        2.2676820    -0.7996710    -1.0091590
  C       -1.8261890    -0.1288690     1.1267200
  C       -2.7336970     0.5134260    -1.0120210
  C        4.5537390    -1.1898250     0.0022800
  C       -2.8866350    -1.0143110     1.3128170
  C       -3.7965280    -0.3760470    -0.8307700
  C       -3.8763200    -1.1410390     0.3331560
  H       -0.6887990     2.1194610    -1.1851540
  H       -0.6152960     2.3835930     0.5515720
  H        1.5214970     2.0586850     1.4854080
  H        0.2921320    -0.4400260    -1.7869590
  H        3.6942270     0.8828880     1.5683180
  H        2.4736480    -1.5998700    -1.7190670
  H       -1.0482340    -0.0434160     1.8839740
  H       -2.6776530     1.1110490    -1.9207770
  H        4.8944640    -1.4825890    -0.9952280
  H        5.3329890    -0.5734720     0.4595320
  H        4.4581780    -2.1030590     0.5999660
  H       -2.9412840    -1.6093450     2.2217140
  H       -4.5604750    -0.4701320    -1.5992930
  H       -4.7020430    -1.8337400     0.4769600
units angstrom
no_reorient  #important for SAPT in psi4, default
symmetry c1  #important for SAPT in psi4, default
}

set PROPERTIES_ORIGIN ["COM"]
properties('MP2/aug-cc-pvtz', properties = ['dipole'])
--------------------------------------------------------------------------

    Molecular point group: c1
  Charge       = 0
  Multiplicity = 1
  Basis Set: AUG-CC-PVTZ
    Blend: AUG-CC-PVTZ
  Basis Set: (AUG-CC-PVTZ AUX)
    Blend: AUG-CC-PVTZ-JKFIT

    Orbital Energies [Eh]
    ---------------------

    Doubly Occupied:

       1A    -11.243488     2A    -11.241850     3A    -11.241224
       4A    -11.237395     5A    -11.235915     6A    -11.235290
       7A    -11.234734     8A    -11.234071     9A    -11.231892
      10A    -11.231883    11A    -11.231586    12A    -11.230829
      13A    -11.229569    14A    -11.219148    15A     -1.157920
      16A     -1.140731    17A     -1.075463    18A     -1.024562
      19A     -1.010438    20A     -0.999651    21A     -0.952592
      22A     -0.895835    23A     -0.839637    24A     -0.824004
      25A     -0.799999    26A     -0.776078    27A     -0.694270
      28A     -0.670733    29A     -0.647641    30A     -0.643015
      31A     -0.634477    32A     -0.616725    33A     -0.583946
      34A     -0.582559    35A     -0.573528    36A     -0.568830
      37A     -0.561361    38A     -0.546524    39A     -0.525347
      40A     -0.502603    41A     -0.496417    42A     -0.488944
      43A     -0.482103    44A     -0.466251    45A     -0.458086
      46A     -0.336404    47A     -0.332850    48A     -0.321340
      49A     -0.311484

  @DF-RHF Final Energy:  -538.46482158345543

   => Energetics <=

    Nuclear Repulsion Energy =            783.7030147335779020
    One-Electron Energy =               -2282.6932284944355160
    Two-Electron Energy =                 960.5253921774021819
    Total Energy =                       -538.4648215834554321
  Basis Set: (AUG-CC-PVTZ AUX)
    Blend: AUG-CC-PVTZ-RI
    Molecular point group: c1

    Geometry (in Angstrom), charge = 0, multiplicity = 1:

       Center              X                  Y                   Z               Mass
    ------------   -----------------  -----------------  -----------------  -----------------
         C           -0.561531620061     1.597352439010    -0.225034686397    12.000000000000
         C            0.772657379939     0.890203439010    -0.162146686397    12.000000000000
         C           -1.718435620061     0.641562439010    -0.040878686397    12.000000000000
         C            1.744703379939     1.244729439010     0.778367313603    12.000000000000
         C            1.062207379939    -0.148321560990    -1.058563686397    12.000000000000
         C            3.266743379939    -0.452246560990    -0.072131686397    12.000000000000
         C            3.104011779939     0.555303639010     0.884286913603    12.000000000000
         C            2.288630379939    -0.806749560990    -1.012872686397    12.000000000000
         C           -1.805240620061    -0.135947560990     1.123006313603    12.000000000000
         C           -2.712748620061     0.506347439010    -1.015734686397    12.000000000000
         C            4.574687379939    -1.196903560990    -0.001433686397    12.000000000000
         C           -2.865686620061    -1.021389560990     1.309103313603    12.000000000000
         C           -3.775579620061    -0.383125560990    -0.834483686397    12.000000000000
         C           -3.855371620061    -1.148117560990     0.329442313603    12.000000000000
         H           -0.667850620061     2.112382439010    -1.188867686397     1.007825032230
         H           -0.594347620061     2.376514439010     0.547858313603     1.007825032230
         H            1.542445379939     2.051606439010     1.481694313603     1.007825032230
         H            0.313080379939    -0.447104560990    -1.790672686397     1.007825032230
         H            3.715175379939     0.875809439010     1.564604313603     1.007825032230
         H            2.494596379939    -1.606948560990    -1.722780686397     1.007825032230
         H           -1.027285620061    -0.050494560990     1.880260313603     1.007825032230
         H           -2.656704620061     1.103970439010    -1.924490686397     1.007825032230
         H            4.915412379939    -1.489667560990    -0.998941686397     1.007825032230
         H            5.353937379939    -0.580550560990     0.455818313603     1.007825032230
         H            4.479126379939    -2.110137560990     0.596252313603     1.007825032230
         H           -2.920335620061    -1.616423560990     2.218000313603     1.007825032230
         H           -4.539526620061    -0.477210560990    -1.603006686397     1.007825032230
         H           -4.681094620061    -1.840818560990     0.473246313603     1.007825032230

  Basis Set: AUG-CC-PVTZ
    Blend: AUG-CC-PVTZ
  Basis Set: (AUG-CC-PVTZ AUX)
    Blend: AUG-CC-PVTZ-JKFIT
	 Reference Energy          =    -538.4648215834554321 [Eh]
	 Singles Energy            =      -0.0000000000000000 [Eh]
	 Same-Spin Energy          =      -0.6081632031819841 [Eh]
	 Opposite-Spin Energy      =      -1.9368159616162499 [Eh]
	 Correlation Energy        =      -2.5449791647982343 [Eh]
	 Total Energy              =    -541.0098007482536104 [Eh]

	 ================> DF-SCS-MP2 Energies <==================
	-----------------------------------------------------------
	 SCS Same-Spin Scale       =       0.3333333333333333 [-]
	 SCS Opposite-Spin Scale   =       1.2000000000000000 [-]
	 SCS Same-Spin Energy      =      -0.2027210677273280 [Eh]
	 SCS Opposite-Spin Energy  =      -2.3241791539394998 [Eh]
	 SCS Correlation Energy    =      -2.5269002216668279 [Eh]
	 SCS Total Energy          =    -540.9917218051222108 [Eh]
	-----------------------------------------------------------

  Dipole Moment: [D]
     X:     0.2972      Y:    -0.1060      Z:     0.0157     Total:     0.3159

*** Psi4 exiting successfully. Buy a developer a beer!
