                               Psi4 1.4a3.dev225

  ==> Input File <==

--------------------------------------------------------------------------
#psi4
#
memory 32 gb

molecule  {
0 1
  C       -0.5824800     1.6044310    -0.2213210
  C        0.7225994     0.9319227    -0.1401389
  C       -1.7393840     0.6486410    -0.0371650
  C        1.7237550     1.2518080     0.7820810
  C        1.0412590    -0.1412430    -1.0548500
  C        3.2457950    -0.4451680    -0.0684180
  C        2.9517370     0.5872480     0.8282550
  C        2.2676820    -0.7996710    -1.0091590
  C       -1.8261890    -0.1288690     1.1267200
  C       -2.7336970     0.5134260    -1.0120210
  C        4.5537390    -1.1898250     0.0022800
  C       -2.8866350    -1.0143110     1.3128170
  C       -3.7965280    -0.3760470    -0.8307700
  C       -3.8763200    -1.1410390     0.3331560
  H       -0.6887990     2.1194610    -1.1851540
  H       -0.6152960     2.3835930     0.5515720
  H        1.5214970     2.0586850     1.4854080
  H        0.2921320    -0.4400260    -1.7869590
  H        3.6942270     0.8828880     1.5683180
  H        2.4736480    -1.5998700    -1.7190670
  H       -1.0482340    -0.0434160     1.8839740
  H       -2.6776530     1.1110490    -1.9207770
  H        4.8944640    -1.4825890    -0.9952280
  H        5.3329890    -0.5734720     0.4595320
  H        4.4581780    -2.1030590     0.5999660
  H       -2.9412840    -1.6093450     2.2217140
  H       -4.5604750    -0.4701320    -1.5992930
  H       -4.7020430    -1.8337400     0.4769600
units angstrom
no_reorient  #important for SAPT in psi4, default
symmetry c1  #important for SAPT in psi4, default
}

set PROPERTIES_ORIGIN ["COM"]
properties('MP2/aug-cc-pvtz', properties = ['dipole'])
--------------------------------------------------------------------------

    Molecular point group: c1
  Charge       = 0
  Multiplicity = 1
  Basis Set: AUG-CC-PVTZ
    Blend: AUG-CC-PVTZ
  Basis Set: (AUG-CC-PVTZ AUX)
    Blend: AUG-CC-PVTZ-JKFIT

    Orbital Energies [Eh]
    ---------------------

    Doubly Occupied:

       1A    -11.241964     2A    -11.239380     3A    -11.238913
       4A    -11.235495     5A    -11.234964     6A    -11.234349
       7A    -11.233727     8A    -11.232162     9A    -11.231792
      10A    -11.231227    11A    -11.230011    12A    -11.229056
      13A    -11.228776    14A    -11.223088    15A     -1.160436
      16A     -1.143761    17A     -1.077606    18A     -1.023220
      19A     -1.010624    20A     -1.005575    21A     -0.960980
      22A     -0.895806    23A     -0.827000    24A     -0.822003
      25A     -0.804537    26A     -0.773419    27A     -0.694568
      28A     -0.667781    29A     -0.648993    30A     -0.636322
      31A     -0.629613    32A     -0.617568    33A     -0.583347
      34A     -0.575665    35A     -0.575127    36A     -0.570563
      37A     -0.562186    38A     -0.551838    39A     -0.527069
      40A     -0.503067    41A     -0.491669    42A     -0.491166
      43A     -0.480090    44A     -0.470041    45A     -0.469370
      46A     -0.336304    47A     -0.333924    48A     -0.330499
      49A     -0.304270

  @DF-RHF Final Energy:  -538.48985096990305

   => Energetics <=

    Nuclear Repulsion Energy =            785.7597128620535614
    One-Electron Energy =               -2286.8573062242121523
    Two-Electron Energy =                 962.6077423922554317
    Total Energy =                       -538.4898509699030456
  Basis Set: (AUG-CC-PVTZ AUX)
    Blend: AUG-CC-PVTZ-RI
    Molecular point group: c1

    Geometry (in Angstrom), charge = 0, multiplicity = 1:

       Center              X                  Y                   Z               Mass
    ------------   -----------------  -----------------  -----------------  -----------------
         C           -0.550959785716     1.593431293753    -0.222303264576    12.000000000000
         C            0.754119614284     0.920922993753    -0.141121164576    12.000000000000
         C           -1.707863785716     0.637641293753    -0.038147264576    12.000000000000
         C            1.755275214284     1.240808293753     0.781098735424    12.000000000000
         C            1.072779214284    -0.152242706247    -1.055832264576    12.000000000000
         C            3.277315214284    -0.456167706247    -0.069400264576    12.000000000000
         C            2.983257214284     0.576248293753     0.827272735424    12.000000000000
         C            2.299202214284    -0.810670706247    -1.010141264576    12.000000000000
         C           -1.794668785716    -0.139868706247     1.125737735424    12.000000000000
         C           -2.702176785716     0.502426293753    -1.013003264576    12.000000000000
         C            4.585259214284    -1.200824706247     0.001297735424    12.000000000000
         C           -2.855114785716    -1.025310706247     1.311834735424    12.000000000000
         C           -3.765007785716    -0.387046706247    -0.831752264576    12.000000000000
         C           -3.844799785716    -1.152038706247     0.332173735424    12.000000000000
         H           -0.657278785716     2.108461293753    -1.186136264576     1.007825032230
         H           -0.583775785716     2.372593293753     0.550589735424     1.007825032230
         H            1.553017214284     2.047685293753     1.484425735424     1.007825032230
         H            0.323652214284    -0.451025706247    -1.787941264576     1.007825032230
         H            3.725747214284     0.871888293753     1.567335735424     1.007825032230
         H            2.505168214284    -1.610869706247    -1.720049264576     1.007825032230
         H           -1.016713785716    -0.054415706247     1.882991735424     1.007825032230
         H           -2.646132785716     1.100049293753    -1.921759264576     1.007825032230
         H            4.925984214284    -1.493588706247    -0.996210264576     1.007825032230
         H            5.364509214284    -0.584471706247     0.458549735424     1.007825032230
         H            4.489698214284    -2.114058706247     0.598983735424     1.007825032230
         H           -2.909763785716    -1.620344706247     2.220731735424     1.007825032230
         H           -4.528954785716    -0.481131706247    -1.600275264576     1.007825032230
         H           -4.670522785716    -1.844739706247     0.475977735424     1.007825032230

  Basis Set: AUG-CC-PVTZ
    Blend: AUG-CC-PVTZ
  Basis Set: (AUG-CC-PVTZ AUX)
    Blend: AUG-CC-PVTZ-JKFIT
	 Reference Energy          =    -538.4898509699030456 [Eh]
	 Singles Energy            =      -0.0000000000000000 [Eh]
	 Same-Spin Energy          =      -0.6086092134014625 [Eh]
	 Opposite-Spin Energy      =      -1.9355602554179552 [Eh]
	 Correlation Energy        =      -2.5441694688194176 [Eh]
	 Total Energy              =    -541.0340204387224503 [Eh]

	 ================> DF-SCS-MP2 Energies <==================
	-----------------------------------------------------------
	 SCS Same-Spin Scale       =       0.3333333333333333 [-]
	 SCS Opposite-Spin Scale   =       1.2000000000000000 [-]
	 SCS Same-Spin Energy      =      -0.2028697378004875 [Eh]
	 SCS Opposite-Spin Energy  =      -2.3226723065015462 [Eh]
	 SCS Correlation Energy    =      -2.5255420443020338 [Eh]
	 SCS Total Energy          =    -541.0153930142050740 [Eh]
	-----------------------------------------------------------

  Dipole Moment: [D]
     X:     0.3006      Y:    -0.1351      Z:     0.0016     Total:     0.3296

*** Psi4 exiting successfully. Buy a developer a beer!
