                               Psi4 1.4a3.dev225

  ==> Input File <==

--------------------------------------------------------------------------
#psi4
#
memory 32 gb

molecule  {
0 1
  C       -0.5824800     1.6044310    -0.2213210
  C        0.7517090     0.8972820    -0.1584330
  C       -1.7393840     0.6486410    -0.0371650
  C        1.7237550     1.2518080     0.7820810
  C        1.0412590    -0.1412430    -1.0548500
  C        3.2457950    -0.4451680    -0.0684180
  C        2.9517370     0.5872480     0.8282550
  C        2.2676820    -0.7996710    -1.0091590
  C       -1.8261890    -0.1288690     1.1267200
  C       -2.7336970     0.5134260    -1.0120210
  C        4.5537390    -1.1898250     0.0022800
  C       -2.8866350    -1.0143110     1.3128170
  C       -3.7965280    -0.3760470    -0.8307700
  C       -3.8763200    -1.1410390     0.3331560
  H       -0.6887990     2.1194610    -1.1851540
  H       -0.6152960     2.3835930     0.5515720
  H        1.5214970     2.0586850     1.4854080
  H        0.2921320    -0.4400260    -1.7869590
  H        3.6942270     0.8828880     1.5683180
  H        2.4736480    -1.5998700    -1.7190670
  H       -1.0482340    -0.0434160     1.8839740
  H       -2.6776530     1.1110490    -1.9207770
  H        4.8944640    -1.4825890    -0.9952280
  H        5.3329890    -0.5734720     0.4595320
  H        4.4581780    -2.1030590     0.5999660
  H       -2.9412840    -1.6093450     2.2217140
  H       -4.5604750    -0.4701320    -1.5992930
  H       -4.8539209    -1.9611507     0.5034103
units angstrom
no_reorient  #important for SAPT in psi4, default
symmetry c1  #important for SAPT in psi4, default
}

set PROPERTIES_ORIGIN ["COM"]
properties('MP2/aug-cc-pvtz', properties = ['dipole'])
--------------------------------------------------------------------------

    Molecular point group: c1
  Charge       = 0
  Multiplicity = 1
  Basis Set: AUG-CC-PVTZ
    Blend: AUG-CC-PVTZ
  Basis Set: (AUG-CC-PVTZ AUX)
    Blend: AUG-CC-PVTZ-JKFIT

    Orbital Energies [Eh]
    ---------------------

    Doubly Occupied:

       1A    -11.253453     2A    -11.242245     3A    -11.238811
       4A    -11.237480     5A    -11.237340     6A    -11.236914
       7A    -11.236054     8A    -11.233238     9A    -11.231678
      10A    -11.231214    11A    -11.230360    12A    -11.229589
      13A    -11.229131    14A    -11.223287    15A     -1.161458
      16A     -1.145978    17A     -1.073776    18A     -1.022732
      19A     -1.011978    20A     -1.008595    21A     -0.955635
      22A     -0.894853    23A     -0.828822    24A     -0.823992
      25A     -0.798573    26A     -0.774210    27A     -0.683857
      28A     -0.665293    29A     -0.648099    30A     -0.633391
      31A     -0.627312    32A     -0.618711    33A     -0.584421
      34A     -0.579123    35A     -0.574709    36A     -0.561813
      37A     -0.555383    38A     -0.548344    39A     -0.526940
      40A     -0.499439    41A     -0.492004    42A     -0.486124
      43A     -0.478389    44A     -0.474189    45A     -0.467295
      46A     -0.338174    47A     -0.335020    48A     -0.330162
      49A     -0.308089

  @DF-RHF Final Energy:  -538.47171791255823

   => Energetics <=

    Nuclear Repulsion Energy =            785.0223504931469733
    One-Electron Energy =               -2285.3727870572461143
    Two-Electron Energy =                 961.8787186515410212
    Total Energy =                       -538.4717179125582334
  Basis Set: (AUG-CC-PVTZ AUX)
    Blend: AUG-CC-PVTZ-RI
    Molecular point group: c1

    Geometry (in Angstrom), charge = 0, multiplicity = 1:

       Center              X                  Y                   Z               Mass
    ------------   -----------------  -----------------  -----------------  -----------------
         C           -0.552037427444     1.596419034327    -0.221244166219    12.000000000000
         C            0.782151572556     0.889270034327    -0.158356166219    12.000000000000
         C           -1.708941427444     0.640629034327    -0.037088166219    12.000000000000
         C            1.754197572556     1.243796034327     0.782157833781    12.000000000000
         C            1.071701572556    -0.149254965673    -1.054773166219    12.000000000000
         C            3.276237572556    -0.453179965673    -0.068341166219    12.000000000000
         C            2.982179572556     0.579236034327     0.828331833781    12.000000000000
         C            2.298124572556    -0.807682965673    -1.009082166219    12.000000000000
         C           -1.795746427444    -0.136880965673     1.126796833781    12.000000000000
         C           -2.703254427444     0.505414034327    -1.011944166219    12.000000000000
         C            4.584181572556    -1.197836965673     0.002356833781    12.000000000000
         C           -2.856192427444    -1.022322965673     1.312893833781    12.000000000000
         C           -3.766085427444    -0.384058965673    -0.830693166219    12.000000000000
         C           -3.845877427444    -1.149050965673     0.333232833781    12.000000000000
         H           -0.658356427444     2.111449034327    -1.185077166219     1.007825032230
         H           -0.584853427444     2.375581034327     0.551648833781     1.007825032230
         H            1.551939572556     2.050673034327     1.485484833781     1.007825032230
         H            0.322574572556    -0.448037965673    -1.786882166219     1.007825032230
         H            3.724669572556     0.874876034327     1.568394833781     1.007825032230
         H            2.504090572556    -1.607881965673    -1.718990166219     1.007825032230
         H           -1.017791427444    -0.051427965673     1.884050833781     1.007825032230
         H           -2.647210427444     1.103037034327    -1.920700166219     1.007825032230
         H            4.924906572556    -1.490600965673    -0.995151166219     1.007825032230
         H            5.363431572556    -0.581483965673     0.459608833781     1.007825032230
         H            4.488620572556    -2.111070965673     0.600042833781     1.007825032230
         H           -2.910841427444    -1.617356965673     2.221790833781     1.007825032230
         H           -4.530032427444    -0.478143965673    -1.599216166219     1.007825032230
         H           -4.823478327444    -1.969162665673     0.503487133781     1.007825032230

  Basis Set: AUG-CC-PVTZ
    Blend: AUG-CC-PVTZ
  Basis Set: (AUG-CC-PVTZ AUX)
    Blend: AUG-CC-PVTZ-JKFIT
	 Reference Energy          =    -538.4717179125582334 [Eh]
	 Singles Energy            =      -0.0000000000000000 [Eh]
	 Same-Spin Energy          =      -0.6086307944788806 [Eh]
	 Opposite-Spin Energy      =      -1.9368706537528524 [Eh]
	 Correlation Energy        =      -2.5455014482317329 [Eh]
	 Total Energy              =    -541.0172193607900226 [Eh]

	 ================> DF-SCS-MP2 Energies <==================
	-----------------------------------------------------------
	 SCS Same-Spin Scale       =       0.3333333333333333 [-]
	 SCS Opposite-Spin Scale   =       1.2000000000000000 [-]
	 SCS Same-Spin Energy      =      -0.2028769314929602 [Eh]
	 SCS Opposite-Spin Energy  =      -2.3242447845034229 [Eh]
	 SCS Correlation Energy    =      -2.5271217159963832 [Eh]
	 SCS Total Energy          =    -540.9988396285546060 [Eh]
	-----------------------------------------------------------

  Dipole Moment: [D]
     X:     0.4702      Y:    -0.0563      Z:    -0.0066     Total:     0.4736

*** Psi4 exiting successfully. Buy a developer a beer!
