                               Psi4 1.4a3.dev225

  ==> Input File <==

--------------------------------------------------------------------------
#psi4
#
memory 32 gb

molecule  {
0 1
  C       -0.5824800     1.6044310    -0.2213210
  C        0.7517090     0.8972820    -0.1584330
  C       -1.7393840     0.6486410    -0.0371650
  C        1.7237550     1.2518080     0.7820810
  C        1.0412590    -0.1412430    -1.0548500
  C        3.2457950    -0.4451680    -0.0684180
  C        2.8236324     0.6008025     0.7586853
  C        2.2676820    -0.7996710    -1.0091590
  C       -1.8261890    -0.1288690     1.1267200
  C       -2.7336970     0.5134260    -1.0120210
  C        4.5537390    -1.1898250     0.0022800
  C       -2.8866350    -1.0143110     1.3128170
  C       -3.7965280    -0.3760470    -0.8307700
  C       -3.8763200    -1.1410390     0.3331560
  H       -0.6887990     2.1194610    -1.1851540
  H       -0.6152960     2.3835930     0.5515720
  H        1.5214970     2.0586850     1.4854080
  H        0.2921320    -0.4400260    -1.7869590
  H        3.6942270     0.8828880     1.5683180
  H        2.4736480    -1.5998700    -1.7190670
  H       -1.0482340    -0.0434160     1.8839740
  H       -2.6776530     1.1110490    -1.9207770
  H        4.8944640    -1.4825890    -0.9952280
  H        5.3329890    -0.5734720     0.4595320
  H        4.4581780    -2.1030590     0.5999660
  H       -2.9412840    -1.6093450     2.2217140
  H       -4.5604750    -0.4701320    -1.5992930
  H       -4.7020430    -1.8337400     0.4769600
units angstrom
no_reorient  #important for SAPT in psi4, default
symmetry c1  #important for SAPT in psi4, default
}

set PROPERTIES_ORIGIN ["COM"]
properties('MP2/aug-cc-pvtz', properties = ['dipole'])
--------------------------------------------------------------------------

    Molecular point group: c1
  Charge       = 0
  Multiplicity = 1
  Basis Set: AUG-CC-PVTZ
    Blend: AUG-CC-PVTZ
  Basis Set: (AUG-CC-PVTZ AUX)
    Blend: AUG-CC-PVTZ-JKFIT

    Orbital Energies [Eh]
    ---------------------

    Doubly Occupied:

       1A    -11.241384     2A    -11.238165     3A    -11.237483
       4A    -11.235191     5A    -11.235142     6A    -11.234731
       7A    -11.231552     8A    -11.231324     9A    -11.229736
      10A    -11.228995    11A    -11.228485    12A    -11.227108
      13A    -11.225604    14A    -11.217212    15A     -1.170066
      16A     -1.149463    17A     -1.073238    18A     -1.033137
      19A     -1.013773    20A     -1.010284    21A     -0.960855
      22A     -0.897687    23A     -0.825319    24A     -0.816895
      25A     -0.808208    26A     -0.775662    27A     -0.693429
      28A     -0.672746    29A     -0.654907    30A     -0.635382
      31A     -0.626314    32A     -0.610202    33A     -0.583140
      34A     -0.577711    35A     -0.575861    36A     -0.569363
      37A     -0.554822    38A     -0.549162    39A     -0.530100
      40A     -0.508907    41A     -0.496852    42A     -0.486730
      43A     -0.482035    44A     -0.479313    45A     -0.447044
      46A     -0.348078    47A     -0.334885    48A     -0.330315
      49A     -0.304162

  @DF-RHF Final Energy:  -538.46550700670548

   => Energetics <=

    Nuclear Repulsion Energy =            788.5779848851050247
    One-Electron Energy =               -2292.4306648974816198
    Two-Electron Energy =                 965.3871730056711158
    Total Energy =                       -538.4655070067054794
  Basis Set: (AUG-CC-PVTZ AUX)
    Blend: AUG-CC-PVTZ-RI
    Molecular point group: c1

    Geometry (in Angstrom), charge = 0, multiplicity = 1:

       Center              X                  Y                   Z               Mass
    ------------   -----------------  -----------------  -----------------  -----------------
         C           -0.544436569350     1.594820756301    -0.216513531981    12.000000000000
         C            0.789752430650     0.887671756301    -0.153625531981    12.000000000000
         C           -1.701340569350     0.639030756301    -0.032357531981    12.000000000000
         C            1.761798430650     1.242197756301     0.786888468019    12.000000000000
         C            1.079302430650    -0.150853243699    -1.050042531981    12.000000000000
         C            3.283838430650    -0.454778243699    -0.063610531981    12.000000000000
         C            2.861675830650     0.591192256301     0.763492768019    12.000000000000
         C            2.305725430650    -0.809281243699    -1.004351531981    12.000000000000
         C           -1.788145569350    -0.138479243699     1.131527468019    12.000000000000
         C           -2.695653569350     0.503815756301    -1.007213531981    12.000000000000
         C            4.591782430650    -1.199435243699     0.007087468019    12.000000000000
         C           -2.848591569350    -1.023921243699     1.317624468019    12.000000000000
         C           -3.758484569350    -0.385657243699    -0.825962531981    12.000000000000
         C           -3.838276569350    -1.150649243699     0.337963468019    12.000000000000
         H           -0.650755569350     2.109850756301    -1.180346531981     1.007825032230
         H           -0.577252569350     2.373982756301     0.556379468019     1.007825032230
         H            1.559540430650     2.049074756301     1.490215468019     1.007825032230
         H            0.330175430650    -0.449636243699    -1.782151531981     1.007825032230
         H            3.732270430650     0.873277756301     1.573125468019     1.007825032230
         H            2.511691430650    -1.609480243699    -1.714259531981     1.007825032230
         H           -1.010190569350    -0.053026243699     1.888781468019     1.007825032230
         H           -2.639609569350     1.101438756301    -1.915969531981     1.007825032230
         H            4.932507430650    -1.492199243699    -0.990420531981     1.007825032230
         H            5.371032430650    -0.583082243699     0.464339468019     1.007825032230
         H            4.496221430650    -2.112669243699     0.604773468019     1.007825032230
         H           -2.903240569350    -1.618955243699     2.226521468019     1.007825032230
         H           -4.522431569350    -0.479742243699    -1.594485531981     1.007825032230
         H           -4.663999569350    -1.843350243699     0.481767468019     1.007825032230

  Basis Set: AUG-CC-PVTZ
    Blend: AUG-CC-PVTZ
  Basis Set: (AUG-CC-PVTZ AUX)
    Blend: AUG-CC-PVTZ-JKFIT
	 Reference Energy          =    -538.4655070067054794 [Eh]
	 Singles Energy            =      -0.0000000000000000 [Eh]
	 Same-Spin Energy          =      -0.6088979376984754 [Eh]
	 Opposite-Spin Energy      =      -1.9358014097922986 [Eh]
	 Correlation Energy        =      -2.5446993474907740 [Eh]
	 Total Energy              =    -541.0102063541962707 [Eh]

	 ================> DF-SCS-MP2 Energies <==================
	-----------------------------------------------------------
	 SCS Same-Spin Scale       =       0.3333333333333333 [-]
	 SCS Opposite-Spin Scale   =       1.2000000000000000 [-]
	 SCS Same-Spin Energy      =      -0.2029659792328251 [Eh]
	 SCS Opposite-Spin Energy  =      -2.3229616917507583 [Eh]
	 SCS Correlation Energy    =      -2.5259276709835836 [Eh]
	 SCS Total Energy          =    -540.9914346776890852 [Eh]
	-----------------------------------------------------------

  Dipole Moment: [D]
     X:     0.3369      Y:    -0.1861      Z:    -0.0732     Total:     0.3917

*** Psi4 exiting successfully. Buy a developer a beer!
