                               Psi4 1.4a3.dev225

  ==> Input File <==

--------------------------------------------------------------------------
#psi4
#
memory 32 gb

molecule  {
0 1
  C       -0.5824800     1.6044310    -0.2213210
  C        0.7517090     0.8972820    -0.1584330
  C       -1.7393840     0.6486410    -0.0371650
  C        1.7237550     1.2518080     0.7820810
  C        1.0412590    -0.1412430    -1.0548500
  C        3.2457950    -0.4451680    -0.0684180
  C        2.9517370     0.5872480     0.8282550
  C        2.2676820    -0.7996710    -1.0091590
  C       -1.8261890    -0.1288690     1.1267200
  C       -2.7336970     0.5134260    -1.0120210
  C        4.5537390    -1.1898250     0.0022800
  C       -2.8866350    -1.0143110     1.3128170
  C       -3.7965280    -0.3760470    -0.8307700
  C       -3.8763200    -1.1410390     0.3331560
  H       -0.6887990     2.1194610    -1.1851540
  H       -0.6152960     2.3835930     0.5515720
  H        1.5214970     2.0586850     1.4854080
  H        0.2921320    -0.4400260    -1.7869590
  H        3.6942270     0.8828880     1.5683180
  H        2.4736480    -1.5998700    -1.7190670
  H       -1.0482340    -0.0434160     1.8839740
  H       -2.6776530     1.1110490    -1.9207770
  H        4.8944640    -1.4825890    -0.9952280
  H        5.3329890    -0.5734720     0.4595320
  H        4.4581780    -2.1030590     0.5999660
  H       -2.9402792    -1.5984041     2.2050021
  H       -4.5604750    -0.4701320    -1.5992930
  H       -4.7020430    -1.8337400     0.4769600
units angstrom
no_reorient  #important for SAPT in psi4, default
symmetry c1  #important for SAPT in psi4, default
}

set PROPERTIES_ORIGIN ["COM"]
properties('MP2/aug-cc-pvtz', properties = ['dipole'])
--------------------------------------------------------------------------

    Molecular point group: c1
  Charge       = 0
  Multiplicity = 1
  Basis Set: AUG-CC-PVTZ
    Blend: AUG-CC-PVTZ
  Basis Set: (AUG-CC-PVTZ AUX)
    Blend: AUG-CC-PVTZ-JKFIT

    Orbital Energies [Eh]
    ---------------------

    Doubly Occupied:

       1A    -11.240945     2A    -11.238356     3A    -11.236907
       4A    -11.235215     5A    -11.234878     6A    -11.232422
       7A    -11.231402     8A    -11.231164     9A    -11.230954
      10A    -11.229874    11A    -11.229194    12A    -11.229135
      13A    -11.228647    14A    -11.222969    15A     -1.160624
      16A     -1.145252    17A     -1.073821    18A     -1.024072
      19A     -1.010605    20A     -1.008122    21A     -0.957253
      22A     -0.896193    23A     -0.828313    24A     -0.823585
      25A     -0.803312    26A     -0.774715    27A     -0.693922
      28A     -0.667836    29A     -0.648340    30A     -0.636274
      31A     -0.628921    32A     -0.618031    33A     -0.583660
      34A     -0.578738    35A     -0.575327    36A     -0.569444
      37A     -0.559836    38A     -0.548366    39A     -0.527955
      40A     -0.502899    41A     -0.491961    42A     -0.490275
      43A     -0.477594    44A     -0.473599    45A     -0.471295
      46A     -0.337029    47A     -0.333633    48A     -0.329226
      49A     -0.307257

  @DF-RHF Final Energy:  -538.49396300878016

   => Energetics <=

    Nuclear Repulsion Energy =            786.0704780354918739
    One-Electron Energy =               -2287.5101841213672742
    Two-Electron Energy =                 962.9457430770953579
    Total Energy =                       -538.4939630087801561
  Basis Set: (AUG-CC-PVTZ AUX)
    Blend: AUG-CC-PVTZ-RI
    Molecular point group: c1

    Geometry (in Angstrom), charge = 0, multiplicity = 1:

       Center              X                  Y                   Z               Mass
    ------------   -----------------  -----------------  -----------------  -----------------
         C           -0.552883506146     1.595653373189    -0.221005299309    12.000000000000
         C            0.781305493854     0.888504373189    -0.158117299309    12.000000000000
         C           -1.709787506146     0.639863373189    -0.036849299309    12.000000000000
         C            1.753351493854     1.243030373189     0.782396700691    12.000000000000
         C            1.070855493854    -0.150020626811    -1.054534299309    12.000000000000
         C            3.275391493854    -0.453945626811    -0.068102299309    12.000000000000
         C            2.981333493854     0.578470373189     0.828570700691    12.000000000000
         C            2.297278493854    -0.808448626811    -1.008843299309    12.000000000000
         C           -1.796592506146    -0.137646626811     1.127035700691    12.000000000000
         C           -2.704100506146     0.504648373189    -1.011705299309    12.000000000000
         C            4.583335493854    -1.198602626811     0.002595700691    12.000000000000
         C           -2.857038506146    -1.023088626811     1.313132700691    12.000000000000
         C           -3.766931506146    -0.384824626811    -0.830454299309    12.000000000000
         C           -3.846723506146    -1.149816626811     0.333471700691    12.000000000000
         H           -0.659202506146     2.110683373189    -1.184838299309     1.007825032230
         H           -0.585699506146     2.374815373189     0.551887700691     1.007825032230
         H            1.551093493854     2.049907373189     1.485723700691     1.007825032230
         H            0.321728493854    -0.448803626811    -1.786643299309     1.007825032230
         H            3.723823493854     0.874110373189     1.568633700691     1.007825032230
         H            2.503244493854    -1.608647626811    -1.718751299309     1.007825032230
         H           -1.018637506146    -0.052193626811     1.884289700691     1.007825032230
         H           -2.648056506146     1.102271373189    -1.920461299309     1.007825032230
         H            4.924060493854    -1.491366626811    -0.994912299309     1.007825032230
         H            5.362585493854    -0.582249626811     0.459847700691     1.007825032230
         H            4.487774493854    -2.111836626811     0.600281700691     1.007825032230
         H           -2.910682706146    -1.607181726811     2.205317800691     1.007825032230
         H           -4.530878506146    -0.478909626811    -1.598977299309     1.007825032230
         H           -4.672446506146    -1.842517626811     0.477275700691     1.007825032230

  Basis Set: AUG-CC-PVTZ
    Blend: AUG-CC-PVTZ
  Basis Set: (AUG-CC-PVTZ AUX)
    Blend: AUG-CC-PVTZ-JKFIT
	 Reference Energy          =    -538.4939630087801561 [Eh]
	 Singles Energy            =      -0.0000000000000000 [Eh]
	 Same-Spin Energy          =      -0.6081598918304827 [Eh]
	 Opposite-Spin Energy      =      -1.9345962733904885 [Eh]
	 Correlation Energy        =      -2.5427561652209709 [Eh]
	 Total Energy              =    -541.0367191740011776 [Eh]

	 ================> DF-SCS-MP2 Energies <==================
	-----------------------------------------------------------
	 SCS Same-Spin Scale       =       0.3333333333333333 [-]
	 SCS Opposite-Spin Scale   =       1.2000000000000000 [-]
	 SCS Same-Spin Energy      =      -0.2027199639434942 [Eh]
	 SCS Opposite-Spin Energy  =      -2.3215155280685860 [Eh]
	 SCS Correlation Energy    =      -2.5242354920120800 [Eh]
	 SCS Total Energy          =    -541.0181985007922094 [Eh]
	-----------------------------------------------------------

  Dipole Moment: [D]
     X:     0.3604      Y:    -0.1341      Z:     0.0168     Total:     0.3849

*** Psi4 exiting successfully. Buy a developer a beer!
