                               Psi4 1.4a3.dev225

  ==> Input File <==

--------------------------------------------------------------------------
#psi4
#
memory 32 gb

molecule  {
0 1
  C       -0.5824800     1.6044310    -0.2213210
  C        0.7517090     0.8972820    -0.1584330
  C       -1.7393840     0.6486410    -0.0371650
  C        1.7237550     1.2518080     0.7820810
  C        1.0412590    -0.1412430    -1.0548500
  C        3.2457950    -0.4451680    -0.0684180
  C        2.9517370     0.5872480     0.8282550
  C        2.2676820    -0.7996710    -1.0091590
  C       -1.8261890    -0.1288690     1.1267200
  C       -2.7336970     0.5134260    -1.0120210
  C        4.5537390    -1.1898250     0.0022800
  C       -2.9246716    -1.0460705     1.3194920
  C       -3.7965280    -0.3760470    -0.8307700
  C       -3.8763200    -1.1410390     0.3331560
  H       -0.6887990     2.1194610    -1.1851540
  H       -0.6152960     2.3835930     0.5515720
  H        1.5214970     2.0586850     1.4854080
  H        0.2921320    -0.4400260    -1.7869590
  H        3.6942270     0.8828880     1.5683180
  H        2.4736480    -1.5998700    -1.7190670
  H       -1.0482340    -0.0434160     1.8839740
  H       -2.6776530     1.1110490    -1.9207770
  H        4.8944640    -1.4825890    -0.9952280
  H        5.3329890    -0.5734720     0.4595320
  H        4.4581780    -2.1030590     0.5999660
  H       -2.9412840    -1.6093450     2.2217140
  H       -4.5604750    -0.4701320    -1.5992930
  H       -4.7020430    -1.8337400     0.4769600
units angstrom
no_reorient  #important for SAPT in psi4, default
symmetry c1  #important for SAPT in psi4, default
}

set PROPERTIES_ORIGIN ["COM"]
properties('MP2/aug-cc-pvtz', properties = ['dipole'])
--------------------------------------------------------------------------

    Molecular point group: c1
  Charge       = 0
  Multiplicity = 1
  Basis Set: AUG-CC-PVTZ
    Blend: AUG-CC-PVTZ
  Basis Set: (AUG-CC-PVTZ AUX)
    Blend: AUG-CC-PVTZ-JKFIT

    Orbital Energies [Eh]
    ---------------------

    Doubly Occupied:

       1A    -11.240685     2A    -11.238221     3A    -11.236827
       4A    -11.235394     5A    -11.235289     6A    -11.235199
       7A    -11.234156     8A    -11.232467     9A    -11.231025
      10A    -11.229778    11A    -11.229440    12A    -11.229020
      13A    -11.228551    14A    -11.222889    15A     -1.159743
      16A     -1.144021    17A     -1.074448    18A     -1.025897
      19A     -1.008070    20A     -1.005303    21A     -0.957387
      22A     -0.895824    23A     -0.830021    24A     -0.824865
      25A     -0.800978    26A     -0.774115    27A     -0.693040
      28A     -0.667595    29A     -0.648383    30A     -0.635333
      31A     -0.629917    32A     -0.619589    33A     -0.582312
      34A     -0.578567    35A     -0.575683    36A     -0.569785
      37A     -0.559677    38A     -0.547777    39A     -0.527417
      40A     -0.500211    41A     -0.495755    42A     -0.488485
      43A     -0.477423    44A     -0.474447    45A     -0.469226
      46A     -0.337561    47A     -0.331807    48A     -0.329068
      49A     -0.306996

  @DF-RHF Final Energy:  -538.49051334886303

   => Energetics <=

    Nuclear Repulsion Energy =            785.2987735085041550
    One-Electron Energy =               -2285.9672349564757496
    Two-Electron Energy =                 962.1779480991085620
    Total Energy =                       -538.4905133488630327
  Basis Set: (AUG-CC-PVTZ AUX)
    Blend: AUG-CC-PVTZ-RI
    Molecular point group: c1

    Geometry (in Angstrom), charge = 0, multiplicity = 1:

       Center              X                  Y                   Z               Mass
    ------------   -----------------  -----------------  -----------------  -----------------
         C           -0.550371546386     1.597806695252    -0.221537630924    12.000000000000
         C            0.783817453614     0.890657695252    -0.158649630924    12.000000000000
         C           -1.707275546386     0.642016695252    -0.037381630924    12.000000000000
         C            1.755863453614     1.245183695252     0.781864369076    12.000000000000
         C            1.073367453614    -0.147867304748    -1.055066630924    12.000000000000
         C            3.277903453614    -0.451792304748    -0.068634630924    12.000000000000
         C            2.983845453614     0.580623695252     0.828038369076    12.000000000000
         C            2.299790453614    -0.806295304748    -1.009375630924    12.000000000000
         C           -1.794080546386    -0.135493304748     1.126503369076    12.000000000000
         C           -2.701588546386     0.506801695252    -1.012237630924    12.000000000000
         C            4.585847453614    -1.196449304748     0.002063369076    12.000000000000
         C           -2.892563146386    -1.052694804748     1.319275369076    12.000000000000
         C           -3.764419546386    -0.382671304748    -0.830986630924    12.000000000000
         C           -3.844211546386    -1.147663304748     0.332939369076    12.000000000000
         H           -0.656690546386     2.112836695252    -1.185370630924     1.007825032230
         H           -0.583187546386     2.376968695252     0.551355369076     1.007825032230
         H            1.553605453614     2.052060695252     1.485191369076     1.007825032230
         H            0.324240453614    -0.446650304748    -1.787175630924     1.007825032230
         H            3.726335453614     0.876263695252     1.568101369076     1.007825032230
         H            2.505756453614    -1.606494304748    -1.719283630924     1.007825032230
         H           -1.016125546386    -0.050040304748     1.883757369076     1.007825032230
         H           -2.645544546386     1.104424695252    -1.920993630924     1.007825032230
         H            4.926572453614    -1.489213304748    -0.995444630924     1.007825032230
         H            5.365097453614    -0.580096304748     0.459315369076     1.007825032230
         H            4.490286453614    -2.109683304748     0.599749369076     1.007825032230
         H           -2.909175546386    -1.615969304748     2.221497369076     1.007825032230
         H           -4.528366546386    -0.476756304748    -1.599509630924     1.007825032230
         H           -4.669934546386    -1.840364304748     0.476743369076     1.007825032230

  Basis Set: AUG-CC-PVTZ
    Blend: AUG-CC-PVTZ
  Basis Set: (AUG-CC-PVTZ AUX)
    Blend: AUG-CC-PVTZ-JKFIT
	 Reference Energy          =    -538.4905133488630327 [Eh]
	 Singles Energy            =      -0.0000000000000000 [Eh]
	 Same-Spin Energy          =      -0.6082234546748534 [Eh]
	 Opposite-Spin Energy      =      -1.9350650305163635 [Eh]
	 Correlation Energy        =      -2.5432884851912170 [Eh]
	 Total Energy              =    -541.0338018340542021 [Eh]

	 ================> DF-SCS-MP2 Energies <==================
	-----------------------------------------------------------
	 SCS Same-Spin Scale       =       0.3333333333333333 [-]
	 SCS Opposite-Spin Scale   =       1.2000000000000000 [-]
	 SCS Same-Spin Energy      =      -0.2027411515582845 [Eh]
	 SCS Opposite-Spin Energy  =      -2.3220780366196361 [Eh]
	 SCS Correlation Energy    =      -2.5248191881779207 [Eh]
	 SCS Total Energy          =    -541.0153325370409902 [Eh]
	-----------------------------------------------------------

  Dipole Moment: [D]
     X:     0.3645      Y:    -0.1322      Z:     0.0212     Total:     0.3884

*** Psi4 exiting successfully. Buy a developer a beer!
