                               Psi4 1.4a3.dev225

  ==> Input File <==

--------------------------------------------------------------------------
#psi4
#
memory 32 gb

molecule  {
0 1
  C       -0.5824800     1.6044310    -0.2213210
  C        0.7517090     0.8972820    -0.1584330
  C       -1.7393840     0.6486410    -0.0371650
  C        1.6542367     1.2264532     0.7148178
  C        1.0412590    -0.1412430    -1.0548500
  C        3.2457950    -0.4451680    -0.0684180
  C        2.9517370     0.5872480     0.8282550
  C        2.2676820    -0.7996710    -1.0091590
  C       -1.8261890    -0.1288690     1.1267200
  C       -2.7336970     0.5134260    -1.0120210
  C        4.5537390    -1.1898250     0.0022800
  C       -2.8866350    -1.0143110     1.3128170
  C       -3.7965280    -0.3760470    -0.8307700
  C       -3.8763200    -1.1410390     0.3331560
  H       -0.6887990     2.1194610    -1.1851540
  H       -0.6152960     2.3835930     0.5515720
  H        1.5214970     2.0586850     1.4854080
  H        0.2921320    -0.4400260    -1.7869590
  H        3.6942270     0.8828880     1.5683180
  H        2.4736480    -1.5998700    -1.7190670
  H       -1.0482340    -0.0434160     1.8839740
  H       -2.6776530     1.1110490    -1.9207770
  H        4.8944640    -1.4825890    -0.9952280
  H        5.3329890    -0.5734720     0.4595320
  H        4.4581780    -2.1030590     0.5999660
  H       -2.9412840    -1.6093450     2.2217140
  H       -4.5604750    -0.4701320    -1.5992930
  H       -4.7020430    -1.8337400     0.4769600
units angstrom
no_reorient  #important for SAPT in psi4, default
symmetry c1  #important for SAPT in psi4, default
}

set PROPERTIES_ORIGIN ["COM"]
properties('MP2/aug-cc-pvtz', properties = ['dipole'])
--------------------------------------------------------------------------

    Molecular point group: c1
  Charge       = 0
  Multiplicity = 1
  Basis Set: AUG-CC-PVTZ
    Blend: AUG-CC-PVTZ
  Basis Set: (AUG-CC-PVTZ AUX)
    Blend: AUG-CC-PVTZ-JKFIT

    Orbital Energies [Eh]
    ---------------------

    Doubly Occupied:

       1A    -11.240880     2A    -11.238702     3A    -11.235122
       4A    -11.234672     5A    -11.234524     6A    -11.232978
       7A    -11.231600     8A    -11.231380     9A    -11.231321
      10A    -11.229529    11A    -11.229124    12A    -11.228687
      13A    -11.224216    14A    -11.222997    15A     -1.166161
      16A     -1.146961    17A     -1.077758    18A     -1.028214
      19A     -1.010258    20A     -1.001817    21A     -0.955909
      22A     -0.901381    23A     -0.832871    24A     -0.823584
      25A     -0.800105    26A     -0.772516    27A     -0.693871
      28A     -0.667532    29A     -0.650047    30A     -0.635037
      31A     -0.622930    32A     -0.621740    33A     -0.583096
      34A     -0.576200    35A     -0.571823    36A     -0.567612
      37A     -0.563004    38A     -0.549130    39A     -0.529568
      40A     -0.503680    41A     -0.492865    42A     -0.490165
      43A     -0.480555    44A     -0.474112    45A     -0.461969
      46A     -0.337871    47A     -0.333776    48A     -0.330674
      49A     -0.311451

  @DF-RHF Final Energy:  -538.48116229386528

   => Energetics <=

    Nuclear Repulsion Energy =            787.4938044500328260
    One-Electron Energy =               -2290.3259846512846707
    Two-Electron Energy =                 964.3510179073866766
    Total Energy =                       -538.4811622938652818
  Basis Set: (AUG-CC-PVTZ AUX)
    Blend: AUG-CC-PVTZ-RI
    Molecular point group: c1

    Geometry (in Angstrom), charge = 0, multiplicity = 1:

       Center              X                  Y                   Z               Mass
    ------------   -----------------  -----------------  -----------------  -----------------
         C           -0.548297078578     1.597384661373    -0.216665517420    12.000000000000
         C            0.785891921422     0.890235661373    -0.153777517420    12.000000000000
         C           -1.705201078578     0.641594661373    -0.032509517420    12.000000000000
         C            1.688419621422     1.219406861373     0.719473282580    12.000000000000
         C            1.075441921422    -0.148289338627    -1.050194517420    12.000000000000
         C            3.279977921422    -0.452214338627    -0.063762517420    12.000000000000
         C            2.985919921422     0.580201661373     0.832910482580    12.000000000000
         C            2.301864921422    -0.806717338627    -1.004503517420    12.000000000000
         C           -1.792006078578    -0.135915338627     1.131375482580    12.000000000000
         C           -2.699514078578     0.506379661373    -1.007365517420    12.000000000000
         C            4.587921921422    -1.196871338627     0.006935482580    12.000000000000
         C           -2.852452078578    -1.021357338627     1.317472482580    12.000000000000
         C           -3.762345078578    -0.383093338627    -0.826114517420    12.000000000000
         C           -3.842137078578    -1.148085338627     0.337811482580    12.000000000000
         H           -0.654616078578     2.112414661373    -1.180498517420     1.007825032230
         H           -0.581113078578     2.376546661373     0.556227482580     1.007825032230
         H            1.555679921422     2.051638661373     1.490063482580     1.007825032230
         H            0.326314921422    -0.447072338627    -1.782303517420     1.007825032230
         H            3.728409921422     0.875841661373     1.572973482580     1.007825032230
         H            2.507830921422    -1.606916338627    -1.714411517420     1.007825032230
         H           -1.014051078578    -0.050462338627     1.888629482580     1.007825032230
         H           -2.643470078578     1.104002661373    -1.916121517420     1.007825032230
         H            4.928646921422    -1.489635338627    -0.990572517420     1.007825032230
         H            5.367171921422    -0.580518338627     0.464187482580     1.007825032230
         H            4.492360921422    -2.110105338627     0.604621482580     1.007825032230
         H           -2.907101078578    -1.616391338627     2.226369482580     1.007825032230
         H           -4.526292078578    -0.477178338627    -1.594637517420     1.007825032230
         H           -4.667860078578    -1.840786338627     0.481615482580     1.007825032230

  Basis Set: AUG-CC-PVTZ
    Blend: AUG-CC-PVTZ
  Basis Set: (AUG-CC-PVTZ AUX)
    Blend: AUG-CC-PVTZ-JKFIT
	 Reference Energy          =    -538.4811622938652818 [Eh]
	 Singles Energy            =      -0.0000000000000000 [Eh]
	 Same-Spin Energy          =      -0.6077574433225269 [Eh]
	 Opposite-Spin Energy      =      -1.9348977946980577 [Eh]
	 Correlation Energy        =      -2.5426552380205845 [Eh]
	 Total Energy              =    -541.0238175318858111 [Eh]

	 ================> DF-SCS-MP2 Energies <==================
	-----------------------------------------------------------
	 SCS Same-Spin Scale       =       0.3333333333333333 [-]
	 SCS Opposite-Spin Scale   =       1.2000000000000000 [-]
	 SCS Same-Spin Energy      =      -0.2025858144408423 [Eh]
	 SCS Opposite-Spin Energy  =      -2.3218773536376691 [Eh]
	 SCS Correlation Energy    =      -2.5244631680785115 [Eh]
	 SCS Total Energy          =    -541.0056254619437368 [Eh]
	-----------------------------------------------------------

  Dipole Moment: [D]
     X:     0.3898      Y:    -0.1659      Z:    -0.0003     Total:     0.4236

*** Psi4 exiting successfully. Buy a developer a beer!
