                               Psi4 1.4a3.dev225

  ==> Input File <==

--------------------------------------------------------------------------
#psi4
#
memory 32 gb

molecule  {
0 1
  C       -0.5824800     1.6044310    -0.2213210
  C        0.7517090     0.8972820    -0.1584330
  C       -1.7393840     0.6486410    -0.0371650
  C        1.7237550     1.2518080     0.7820810
  C        1.0309336    -0.1042089    -1.0228835
  C        3.2457950    -0.4451680    -0.0684180
  C        2.9517370     0.5872480     0.8282550
  C        2.2676820    -0.7996710    -1.0091590
  C       -1.8261890    -0.1288690     1.1267200
  C       -2.7336970     0.5134260    -1.0120210
  C        4.5537390    -1.1898250     0.0022800
  C       -2.8866350    -1.0143110     1.3128170
  C       -3.7965280    -0.3760470    -0.8307700
  C       -3.8763200    -1.1410390     0.3331560
  H       -0.6887990     2.1194610    -1.1851540
  H       -0.6152960     2.3835930     0.5515720
  H        1.5214970     2.0586850     1.4854080
  H        0.2921320    -0.4400260    -1.7869590
  H        3.6942270     0.8828880     1.5683180
  H        2.4736480    -1.5998700    -1.7190670
  H       -1.0482340    -0.0434160     1.8839740
  H       -2.6776530     1.1110490    -1.9207770
  H        4.8944640    -1.4825890    -0.9952280
  H        5.3329890    -0.5734720     0.4595320
  H        4.4581780    -2.1030590     0.5999660
  H       -2.9412840    -1.6093450     2.2217140
  H       -4.5604750    -0.4701320    -1.5992930
  H       -4.7020430    -1.8337400     0.4769600
units angstrom
no_reorient  #important for SAPT in psi4, default
symmetry c1  #important for SAPT in psi4, default
}

set PROPERTIES_ORIGIN ["COM"]
properties('MP2/aug-cc-pvtz', properties = ['dipole'])
--------------------------------------------------------------------------

    Molecular point group: c1
  Charge       = 0
  Multiplicity = 1
  Basis Set: AUG-CC-PVTZ
    Blend: AUG-CC-PVTZ
  Basis Set: (AUG-CC-PVTZ AUX)
    Blend: AUG-CC-PVTZ-JKFIT

    Orbital Energies [Eh]
    ---------------------

    Doubly Occupied:

       1A    -11.240852     2A    -11.238505     3A    -11.234974
       4A    -11.234809     5A    -11.234380     6A    -11.232354
       7A    -11.231514     8A    -11.231248     9A    -11.231029
      10A    -11.230865    11A    -11.229370    12A    -11.229290
      13A    -11.228058    14A    -11.222991    15A     -1.162982
      16A     -1.145913    17A     -1.075715    18A     -1.025593
      19A     -1.009955    20A     -1.004687    21A     -0.956834
      22A     -0.898581    23A     -0.830247    24A     -0.823285
      25A     -0.802249    26A     -0.773153    27A     -0.693336
      28A     -0.667612    29A     -0.649229    30A     -0.634996
      31A     -0.627455    32A     -0.616569    33A     -0.582679
      34A     -0.577017    35A     -0.574480    36A     -0.569199
      37A     -0.560359    38A     -0.549878    39A     -0.528547
      40A     -0.502350    41A     -0.492266    42A     -0.488482
      43A     -0.481706    44A     -0.473361    45A     -0.467862
      46A     -0.338213    47A     -0.333232    48A     -0.326257
      49A     -0.311160

  @DF-RHF Final Energy:  -538.49078394871242

   => Energetics <=

    Nuclear Repulsion Energy =            786.6383298822377128
    One-Electron Energy =               -2288.6468640515372499
    Two-Electron Energy =                 963.5177502205871178
    Total Energy =                       -538.4907839487124193
  Basis Set: (AUG-CC-PVTZ AUX)
    Blend: AUG-CC-PVTZ-RI
    Molecular point group: c1

    Geometry (in Angstrom), charge = 0, multiplicity = 1:

       Center              X                  Y                   Z               Mass
    ------------   -----------------  -----------------  -----------------  -----------------
         C           -0.552197559350     1.593273582090    -0.223204199203    12.000000000000
         C            0.781991440650     0.886124582090    -0.160316199203    12.000000000000
         C           -1.709101559350     0.637483582090    -0.039048199203    12.000000000000
         C            1.754037440650     1.240650582090     0.780197800797    12.000000000000
         C            1.061216040650    -0.115366317910    -1.024766699203    12.000000000000
         C            3.276077440650    -0.456325417910    -0.070301199203    12.000000000000
         C            2.982019440650     0.576090582090     0.826371800797    12.000000000000
         C            2.297964440650    -0.810828417910    -1.011042199203    12.000000000000
         C           -1.795906559350    -0.140026417910     1.124836800797    12.000000000000
         C           -2.703414559350     0.502268582090    -1.013904199203    12.000000000000
         C            4.584021440650    -1.200982417910     0.000396800797    12.000000000000
         C           -2.856352559350    -1.025468417910     1.310933800797    12.000000000000
         C           -3.766245559350    -0.387204417910    -0.832653199203    12.000000000000
         C           -3.846037559350    -1.152196417910     0.331272800797    12.000000000000
         H           -0.658516559350     2.108303582090    -1.187037199203     1.007825032230
         H           -0.585013559350     2.372435582090     0.549688800797     1.007825032230
         H            1.551779440650     2.047527582090     1.483524800797     1.007825032230
         H            0.322414440650    -0.451183417910    -1.788842199203     1.007825032230
         H            3.724509440650     0.871730582090     1.566434800797     1.007825032230
         H            2.503930440650    -1.611027417910    -1.720950199203     1.007825032230
         H           -1.017951559350    -0.054573417910     1.882090800797     1.007825032230
         H           -2.647370559350     1.099891582090    -1.922660199203     1.007825032230
         H            4.924746440650    -1.493746417910    -0.997111199203     1.007825032230
         H            5.363271440650    -0.584629417910     0.457648800797     1.007825032230
         H            4.488460440650    -2.114216417910     0.598082800797     1.007825032230
         H           -2.911001559350    -1.620502417910     2.219830800797     1.007825032230
         H           -4.530192559350    -0.481289417910    -1.601176199203     1.007825032230
         H           -4.671760559350    -1.844897417910     0.475076800797     1.007825032230

  Basis Set: AUG-CC-PVTZ
    Blend: AUG-CC-PVTZ
  Basis Set: (AUG-CC-PVTZ AUX)
    Blend: AUG-CC-PVTZ-JKFIT
	 Reference Energy          =    -538.4907839487124193 [Eh]
	 Singles Energy            =      -0.0000000000000000 [Eh]
	 Same-Spin Energy          =      -0.6082713624591344 [Eh]
	 Opposite-Spin Energy      =      -1.9348164521681728 [Eh]
	 Correlation Energy        =      -2.5430878146273073 [Eh]
	 Total Energy              =    -541.0338717633396755 [Eh]

	 ================> DF-SCS-MP2 Energies <==================
	-----------------------------------------------------------
	 SCS Same-Spin Scale       =       0.3333333333333333 [-]
	 SCS Opposite-Spin Scale   =       1.2000000000000000 [-]
	 SCS Same-Spin Energy      =      -0.2027571208197115 [Eh]
	 SCS Opposite-Spin Energy  =      -2.3217797426018074 [Eh]
	 SCS Correlation Energy    =      -2.5245368634215191 [Eh]
	 SCS Total Energy          =    -541.0153208121339503 [Eh]
	-----------------------------------------------------------

  Dipole Moment: [D]
     X:     0.3906      Y:    -0.1381      Z:     0.0109     Total:     0.4144

*** Psi4 exiting successfully. Buy a developer a beer!
