                               Psi4 1.4a3.dev225

  ==> Input File <==

--------------------------------------------------------------------------
#psi4
#
memory 32 gb

molecule  {
0 1
  C       -0.5824800     1.6044310    -0.2213210
  C        0.7517090     0.8972820    -0.1584330
  C       -1.7393840     0.6486410    -0.0371650
  C        1.7237550     1.2518080     0.7820810
  C        1.0412590    -0.1412430    -1.0548500
  C        3.2457950    -0.4451680    -0.0684180
  C        2.9517370     0.5872480     0.8282550
  C        2.2676820    -0.7996710    -1.0091590
  C       -1.8261890    -0.1288690     1.1267200
  C       -2.7336970     0.5134260    -1.0120210
  C        4.5537390    -1.1898250     0.0022800
  C       -2.8753905    -0.9976336     1.2989960
  C       -3.7965280    -0.3760470    -0.8307700
  C       -3.8763200    -1.1410390     0.3331560
  H       -0.6887990     2.1194610    -1.1851540
  H       -0.6152960     2.3835930     0.5515720
  H        1.5214970     2.0586850     1.4854080
  H        0.2921320    -0.4400260    -1.7869590
  H        3.6942270     0.8828880     1.5683180
  H        2.4736480    -1.5998700    -1.7190670
  H       -1.0482340    -0.0434160     1.8839740
  H       -2.6776530     1.1110490    -1.9207770
  H        4.8944640    -1.4825890    -0.9952280
  H        5.3329890    -0.5734720     0.4595320
  H        4.4581780    -2.1030590     0.5999660
  H       -2.9412840    -1.6093450     2.2217140
  H       -4.5604750    -0.4701320    -1.5992930
  H       -4.7020430    -1.8337400     0.4769600
units angstrom
no_reorient  #important for SAPT in psi4, default
symmetry c1  #important for SAPT in psi4, default
}

set PROPERTIES_ORIGIN ["COM"]
properties('MP2/aug-cc-pvtz', properties = ['dipole'])
--------------------------------------------------------------------------

    Molecular point group: c1
  Charge       = 0
  Multiplicity = 1
  Basis Set: AUG-CC-PVTZ
    Blend: AUG-CC-PVTZ
  Basis Set: (AUG-CC-PVTZ AUX)
    Blend: AUG-CC-PVTZ-JKFIT

    Orbital Energies [Eh]
    ---------------------

    Doubly Occupied:

       1A    -11.241225     2A    -11.238473     3A    -11.237030
       4A    -11.235279     5A    -11.234950     6A    -11.233914
       7A    -11.231295     8A    -11.231047     9A    -11.230832
      10A    -11.229984    11A    -11.229247    12A    -11.228757
      13A    -11.227012    14A    -11.223042    15A     -1.161528
      16A     -1.146419    17A     -1.073961    18A     -1.023839
      19A     -1.012191    20A     -1.008235    21A     -0.957502
      22A     -0.896614    23A     -0.827876    24A     -0.821353
      25A     -0.803526    26A     -0.774756    27A     -0.693887
      28A     -0.668082    29A     -0.648642    30A     -0.634748
      31A     -0.627626    32A     -0.616959    33A     -0.582308
      34A     -0.578866    35A     -0.575005    36A     -0.569389
      37A     -0.560007    38A     -0.548922    39A     -0.528613
      40A     -0.504450    41A     -0.492141    42A     -0.487686
      43A     -0.477903    44A     -0.472884    45A     -0.471588
      46A     -0.338297    47A     -0.334555    48A     -0.328984
      49A     -0.307409

  @DF-RHF Final Energy:  -538.49325763759521

   => Energetics <=

    Nuclear Repulsion Energy =            786.4298367817171993
    One-Electron Energy =               -2288.2285157985734259
    Two-Electron Energy =                 963.3054213792609062
    Total Energy =                       -538.4932576375952067
  Basis Set: (AUG-CC-PVTZ AUX)
    Blend: AUG-CC-PVTZ-RI
    Molecular point group: c1

    Geometry (in Angstrom), charge = 0, multiplicity = 1:

       Center              X                  Y                   Z               Mass
    ------------   -----------------  -----------------  -----------------  -----------------
         C           -0.553618895021     1.594614974672    -0.220187059253    12.000000000000
         C            0.780570104979     0.887465974672    -0.157299059253    12.000000000000
         C           -1.710522895021     0.638824974672    -0.036031059253    12.000000000000
         C            1.752616104979     1.241991974672     0.783214940747    12.000000000000
         C            1.070120104979    -0.151059025328    -1.053716059253    12.000000000000
         C            3.274656104979    -0.454984025328    -0.067284059253    12.000000000000
         C            2.980598104979     0.577431974672     0.829388940747    12.000000000000
         C            2.296543104979    -0.809487025328    -1.008025059253    12.000000000000
         C           -1.797327895021    -0.138685025328     1.127853940747    12.000000000000
         C           -2.704835895021     0.503609974672    -1.010887059253    12.000000000000
         C            4.582600104979    -1.199641025328     0.003413940747    12.000000000000
         C           -2.846529395021    -1.007449625328     1.300129940747    12.000000000000
         C           -3.767666895021    -0.385863025328    -0.829636059253    12.000000000000
         C           -3.847458895021    -1.150855025328     0.334289940747    12.000000000000
         H           -0.659937895021     2.109644974672    -1.184020059253     1.007825032230
         H           -0.586434895021     2.373776974672     0.552705940747     1.007825032230
         H            1.550358104979     2.048868974672     1.486541940747     1.007825032230
         H            0.320993104979    -0.449842025328    -1.785825059253     1.007825032230
         H            3.723088104979     0.873071974672     1.569451940747     1.007825032230
         H            2.502509104979    -1.609686025328    -1.717933059253     1.007825032230
         H           -1.019372895021    -0.053232025328     1.885107940747     1.007825032230
         H           -2.648791895021     1.101232974672    -1.919643059253     1.007825032230
         H            4.923325104979    -1.492405025328    -0.994094059253     1.007825032230
         H            5.361850104979    -0.583288025328     0.460665940747     1.007825032230
         H            4.487039104979    -2.112875025328     0.601099940747     1.007825032230
         H           -2.912422895021    -1.619161025328     2.222847940747     1.007825032230
         H           -4.531613895021    -0.479948025328    -1.598159059253     1.007825032230
         H           -4.673181895021    -1.843556025328     0.478093940747     1.007825032230

  Basis Set: AUG-CC-PVTZ
    Blend: AUG-CC-PVTZ
  Basis Set: (AUG-CC-PVTZ AUX)
    Blend: AUG-CC-PVTZ-JKFIT
	 Reference Energy          =    -538.4932576375952067 [Eh]
	 Singles Energy            =      -0.0000000000000000 [Eh]
	 Same-Spin Energy          =      -0.6081942244033129 [Eh]
	 Opposite-Spin Energy      =      -1.9346425777913003 [Eh]
	 Correlation Energy        =      -2.5428368021946133 [Eh]
	 Total Energy              =    -541.0360944397898493 [Eh]

	 ================> DF-SCS-MP2 Energies <==================
	-----------------------------------------------------------
	 SCS Same-Spin Scale       =       0.3333333333333333 [-]
	 SCS Opposite-Spin Scale   =       1.2000000000000000 [-]
	 SCS Same-Spin Energy      =      -0.2027314081344376 [Eh]
	 SCS Opposite-Spin Energy  =      -2.3215710933495601 [Eh]
	 SCS Correlation Energy    =      -2.5243025014839979 [Eh]
	 SCS Total Energy          =    -541.0175601390792508 [Eh]
	-----------------------------------------------------------

  Dipole Moment: [D]
     X:     0.3629      Y:    -0.1248      Z:    -0.0008     Total:     0.3838

*** Psi4 exiting successfully. Buy a developer a beer!
