                               Psi4 1.4a3.dev225

  ==> Input File <==

--------------------------------------------------------------------------
#psi4
#
memory 32 gb

molecule  {
0 1
  C       -0.5824800     1.6044310    -0.2213210
  C        0.7517090     0.8972820    -0.1584330
  C       -1.7393840     0.6486410    -0.0371650
  C        1.7237550     1.2518080     0.7820810
  C        1.0412590    -0.1412430    -1.0548500
  C        3.2942273    -0.3731673    -0.1278364
  C        2.9517370     0.5872480     0.8282550
  C        2.2676820    -0.7996710    -1.0091590
  C       -1.8261890    -0.1288690     1.1267200
  C       -2.7336970     0.5134260    -1.0120210
  C        4.5537390    -1.1898250     0.0022800
  C       -2.8866350    -1.0143110     1.3128170
  C       -3.7965280    -0.3760470    -0.8307700
  C       -3.8763200    -1.1410390     0.3331560
  H       -0.6887990     2.1194610    -1.1851540
  H       -0.6152960     2.3835930     0.5515720
  H        1.5214970     2.0586850     1.4854080
  H        0.2921320    -0.4400260    -1.7869590
  H        3.6942270     0.8828880     1.5683180
  H        2.4736480    -1.5998700    -1.7190670
  H       -1.0482340    -0.0434160     1.8839740
  H       -2.6776530     1.1110490    -1.9207770
  H        4.8944640    -1.4825890    -0.9952280
  H        5.3329890    -0.5734720     0.4595320
  H        4.4581780    -2.1030590     0.5999660
  H       -2.9412840    -1.6093450     2.2217140
  H       -4.5604750    -0.4701320    -1.5992930
  H       -4.7020430    -1.8337400     0.4769600
units angstrom
no_reorient  #important for SAPT in psi4, default
symmetry c1  #important for SAPT in psi4, default
}

set PROPERTIES_ORIGIN ["COM"]
properties('MP2/aug-cc-pvtz', properties = ['dipole'])
--------------------------------------------------------------------------

    Molecular point group: c1
  Charge       = 0
  Multiplicity = 1
  Basis Set: AUG-CC-PVTZ
    Blend: AUG-CC-PVTZ
  Basis Set: (AUG-CC-PVTZ AUX)
    Blend: AUG-CC-PVTZ-JKFIT

    Orbital Energies [Eh]
    ---------------------

    Doubly Occupied:

       1A    -11.241398     2A    -11.239231     3A    -11.238170
       4A    -11.235805     5A    -11.235252     6A    -11.234763
       7A    -11.231853     8A    -11.231793     9A    -11.231520
      10A    -11.231250    11A    -11.229784    12A    -11.229692
      13A    -11.229063    14A    -11.222730    15A     -1.160511
      16A     -1.144895    17A     -1.073620    18A     -1.024043
      19A     -1.010415    20A     -1.007916    21A     -0.957277
      22A     -0.895887    23A     -0.827366    24A     -0.822792
      25A     -0.803254    26A     -0.774503    27A     -0.693622
      28A     -0.667810    29A     -0.648019    30A     -0.635430
      31A     -0.628808    32A     -0.617742    33A     -0.583036
      34A     -0.578458    35A     -0.575219    36A     -0.570078
      37A     -0.559223    38A     -0.547045    39A     -0.527353
      40A     -0.505283    41A     -0.490891    42A     -0.489099
      43A     -0.478108    44A     -0.472170    45A     -0.470144
      46A     -0.337508    47A     -0.333904    48A     -0.328385
      49A     -0.307940

  @DF-RHF Final Energy:  -538.48894255682148

   => Energetics <=

    Nuclear Repulsion Energy =            785.5705658878433724
    One-Electron Energy =               -2286.4988930625577268
    Two-Electron Energy =                 962.4393846178929834
    Total Energy =                       -538.4889425568214847
  Basis Set: (AUG-CC-PVTZ AUX)
    Blend: AUG-CC-PVTZ-RI
    Molecular point group: c1

    Geometry (in Angstrom), charge = 0, multiplicity = 1:

       Center              X                  Y                   Z               Mass
    ------------   -----------------  -----------------  -----------------  -----------------
         C           -0.556069362879     1.590969478879    -0.217182445828    12.000000000000
         C            0.778119637121     0.883820478879    -0.154294445828    12.000000000000
         C           -1.712973362879     0.635179478879    -0.033026445828    12.000000000000
         C            1.750165637121     1.238346478879     0.786219554172    12.000000000000
         C            1.067669637121    -0.154704521121    -1.050711445828    12.000000000000
         C            3.320637937121    -0.386628821121    -0.123697845828    12.000000000000
         C            2.978147637121     0.573786478879     0.832393554172    12.000000000000
         C            2.294092637121    -0.813132521121    -1.005020445828    12.000000000000
         C           -1.799778362879    -0.142330521121     1.130858554172    12.000000000000
         C           -2.707286362879     0.499964478879    -1.007882445828    12.000000000000
         C            4.580149637121    -1.203286521121     0.006418554172    12.000000000000
         C           -2.860224362879    -1.027772521121     1.316955554172    12.000000000000
         C           -3.770117362879    -0.389508521121    -0.826631445828    12.000000000000
         C           -3.849909362879    -1.154500521121     0.337294554172    12.000000000000
         H           -0.662388362879     2.105999478879    -1.181015445828     1.007825032230
         H           -0.588885362879     2.370131478879     0.555710554172     1.007825032230
         H            1.547907637121     2.045223478879     1.489546554172     1.007825032230
         H            0.318542637121    -0.453487521121    -1.782820445828     1.007825032230
         H            3.720637637121     0.869426478879     1.572456554172     1.007825032230
         H            2.500058637121    -1.613331521121    -1.714928445828     1.007825032230
         H           -1.021823362879    -0.056877521121     1.888112554172     1.007825032230
         H           -2.651242362879     1.097587478879    -1.916638445828     1.007825032230
         H            4.920874637121    -1.496050521121    -0.991089445828     1.007825032230
         H            5.359399637121    -0.586933521121     0.463670554172     1.007825032230
         H            4.484588637121    -2.116520521121     0.604104554172     1.007825032230
         H           -2.914873362879    -1.622806521121     2.225852554172     1.007825032230
         H           -4.534064362879    -0.483593521121    -1.595154445828     1.007825032230
         H           -4.675632362879    -1.847201521121     0.481098554172     1.007825032230

  Basis Set: AUG-CC-PVTZ
    Blend: AUG-CC-PVTZ
  Basis Set: (AUG-CC-PVTZ AUX)
    Blend: AUG-CC-PVTZ-JKFIT
	 Reference Energy          =    -538.4889425568214847 [Eh]
	 Singles Energy            =      -0.0000000000000000 [Eh]
	 Same-Spin Energy          =      -0.6084074237057361 [Eh]
	 Opposite-Spin Energy      =      -1.9354259851835427 [Eh]
	 Correlation Energy        =      -2.5438334088892787 [Eh]
	 Total Energy              =    -541.0327759657108118 [Eh]

	 ================> DF-SCS-MP2 Energies <==================
	-----------------------------------------------------------
	 SCS Same-Spin Scale       =       0.3333333333333333 [-]
	 SCS Opposite-Spin Scale   =       1.2000000000000000 [-]
	 SCS Same-Spin Energy      =      -0.2028024745685787 [Eh]
	 SCS Opposite-Spin Energy  =      -2.3225111822202513 [Eh]
	 SCS Correlation Energy    =      -2.5253136567888301 [Eh]
	 SCS Total Energy          =    -541.0142562136103379 [Eh]
	-----------------------------------------------------------

  Dipole Moment: [D]
     X:     0.2815      Y:    -0.1391      Z:     0.0379     Total:     0.3163

*** Psi4 exiting successfully. Buy a developer a beer!
