                               Psi4 1.4a3.dev225

  ==> Input File <==

--------------------------------------------------------------------------
#psi4
#
memory 32 gb

molecule  {
0 1
  C       -0.5824800     1.6044310    -0.2213210
  C        0.7517090     0.8972820    -0.1584330
  C       -1.7393840     0.6486410    -0.0371650
  C        1.7237550     1.2518080     0.7820810
  C        1.0412590    -0.1412430    -1.0548500
  C        3.2457950    -0.4451680    -0.0684180
  C        2.9517370     0.5872480     0.8282550
  C        2.2676820    -0.7996710    -1.0091590
  C       -1.8261890    -0.1288690     1.1267200
  C       -2.7336970     0.5134260    -1.0120210
  C        4.5537390    -1.1898250     0.0022800
  C       -2.9345922    -1.0813557     1.3650759
  C       -3.7965280    -0.3760470    -0.8307700
  C       -3.8763200    -1.1410390     0.3331560
  H       -0.6887990     2.1194610    -1.1851540
  H       -0.6152960     2.3835930     0.5515720
  H        1.5214970     2.0586850     1.4854080
  H        0.2921320    -0.4400260    -1.7869590
  H        3.6942270     0.8828880     1.5683180
  H        2.4736480    -1.5998700    -1.7190670
  H       -1.0482340    -0.0434160     1.8839740
  H       -2.6776530     1.1110490    -1.9207770
  H        4.8944640    -1.4825890    -0.9952280
  H        5.3329890    -0.5734720     0.4595320
  H        4.4581780    -2.1030590     0.5999660
  H       -2.9412840    -1.6093450     2.2217140
  H       -4.5604750    -0.4701320    -1.5992930
  H       -4.7020430    -1.8337400     0.4769600
units angstrom
no_reorient  #important for SAPT in psi4, default
symmetry c1  #important for SAPT in psi4, default
}

set PROPERTIES_ORIGIN ["COM"]
properties('MP2/aug-cc-pvtz', properties = ['dipole'])
--------------------------------------------------------------------------

    Molecular point group: c1
  Charge       = 0
  Multiplicity = 1
  Basis Set: AUG-CC-PVTZ
    Blend: AUG-CC-PVTZ
  Basis Set: (AUG-CC-PVTZ AUX)
    Blend: AUG-CC-PVTZ-JKFIT

    Orbital Energies [Eh]
    ---------------------

    Doubly Occupied:

       1A    -11.240848     2A    -11.238713     3A    -11.238086
       4A    -11.237232     5A    -11.236696     6A    -11.235693
       7A    -11.235431     8A    -11.234036     9A    -11.233374
      10A    -11.230867    11A    -11.229652    12A    -11.228877
      13A    -11.228424    14A    -11.222799    15A     -1.158559
      16A     -1.140906    17A     -1.073378    18A     -1.025009
      19A     -1.007920    20A     -1.003729    21A     -0.956333
      22A     -0.894903    23A     -0.833400    24A     -0.825857
      25A     -0.801171    26A     -0.774397    27A     -0.692148
      28A     -0.667143    29A     -0.650209    30A     -0.643351
      31A     -0.629196    32A     -0.618733    33A     -0.584693
      34A     -0.578399    35A     -0.575557    36A     -0.568675
      37A     -0.559495    38A     -0.546475    39A     -0.526063
      40A     -0.502320    41A     -0.496613    42A     -0.485381
      43A     -0.476647    44A     -0.474171    45A     -0.466572
      46A     -0.337213    47A     -0.330613    48A     -0.327074
      49A     -0.306594

  @DF-RHF Final Energy:  -538.48028409412404

   => Energetics <=

    Nuclear Repulsion Energy =            784.1878523272727080
    One-Electron Energy =               -2283.7170204592403024
    Two-Electron Energy =                 961.0488840378436635
    Total Energy =                       -538.4802840941240447
  Basis Set: (AUG-CC-PVTZ AUX)
    Blend: AUG-CC-PVTZ-RI
    Molecular point group: c1

    Geometry (in Angstrom), charge = 0, multiplicity = 1:

       Center              X                  Y                   Z               Mass
    ------------   -----------------  -----------------  -----------------  -----------------
         C           -0.549717834378     1.600131792420    -0.224541354774    12.000000000000
         C            0.784471165622     0.892982792420    -0.161653354774    12.000000000000
         C           -1.706621834378     0.644341792420    -0.040385354774    12.000000000000
         C            1.756517165622     1.247508792420     0.778860645226    12.000000000000
         C            1.074021165622    -0.145542207580    -1.058070354774    12.000000000000
         C            3.278557165622    -0.449467207580    -0.071638354774    12.000000000000
         C            2.984499165622     0.582948792420     0.825034645226    12.000000000000
         C            2.300444165622    -0.803970207580    -1.012379354774    12.000000000000
         C           -1.793426834378    -0.133168207580     1.123499645226    12.000000000000
         C           -2.700934834378     0.509126792420    -1.015241354774    12.000000000000
         C            4.586501165622    -1.194124207580    -0.000940354774    12.000000000000
         C           -2.901830034378    -1.085654907580     1.361855545226    12.000000000000
         C           -3.763765834378    -0.380346207580    -0.833990354774    12.000000000000
         C           -3.843557834378    -1.145338207580     0.329935645226    12.000000000000
         H           -0.656036834378     2.115161792420    -1.188374354774     1.007825032230
         H           -0.582533834378     2.379293792420     0.548351645226     1.007825032230
         H            1.554259165622     2.054385792420     1.482187645226     1.007825032230
         H            0.324894165622    -0.444325207580    -1.790179354774     1.007825032230
         H            3.726989165622     0.878588792420     1.565097645226     1.007825032230
         H            2.506410165622    -1.604169207580    -1.722287354774     1.007825032230
         H           -1.015471834378    -0.047715207580     1.880753645226     1.007825032230
         H           -2.644890834378     1.106749792420    -1.923997354774     1.007825032230
         H            4.927226165622    -1.486888207580    -0.998448354774     1.007825032230
         H            5.365751165622    -0.577771207580     0.456311645226     1.007825032230
         H            4.490940165622    -2.107358207580     0.596745645226     1.007825032230
         H           -2.908521834378    -1.613644207580     2.218493645226     1.007825032230
         H           -4.527712834378    -0.474431207580    -1.602513354774     1.007825032230
         H           -4.669280834378    -1.838039207580     0.473739645226     1.007825032230

  Basis Set: AUG-CC-PVTZ
    Blend: AUG-CC-PVTZ
  Basis Set: (AUG-CC-PVTZ AUX)
    Blend: AUG-CC-PVTZ-JKFIT
	 Reference Energy          =    -538.4802840941240447 [Eh]
	 Singles Energy            =      -0.0000000000000000 [Eh]
	 Same-Spin Energy          =      -0.6083520420027130 [Eh]
	 Opposite-Spin Energy      =      -1.9359919988496876 [Eh]
	 Correlation Energy        =      -2.5443440408524007 [Eh]
	 Total Energy              =    -541.0246281349764104 [Eh]

	 ================> DF-SCS-MP2 Energies <==================
	-----------------------------------------------------------
	 SCS Same-Spin Scale       =       0.3333333333333333 [-]
	 SCS Opposite-Spin Scale   =       1.2000000000000000 [-]
	 SCS Same-Spin Energy      =      -0.2027840140009043 [Eh]
	 SCS Opposite-Spin Energy  =      -2.3231903986196252 [Eh]
	 SCS Correlation Energy    =      -2.5259744126205295 [Eh]
	 SCS Total Energy          =    -541.0062585067445298 [Eh]
	-----------------------------------------------------------

  Dipole Moment: [D]
     X:     0.3666      Y:    -0.1338      Z:     0.0288     Total:     0.3913

*** Psi4 exiting successfully. Buy a developer a beer!
