                               Psi4 1.4a3.dev225

  ==> Input File <==

--------------------------------------------------------------------------
#psi4
#
memory 32 gb

molecule  {
0 1
  C       -0.5824800     1.6044310    -0.2213210
  C        0.8459946     0.7961177    -0.2063580
  C       -1.7393840     0.6486410    -0.0371650
  C        1.7237550     1.2518080     0.7820810
  C        1.0412590    -0.1412430    -1.0548500
  C        3.2457950    -0.4451680    -0.0684180
  C        2.9517370     0.5872480     0.8282550
  C        2.2676820    -0.7996710    -1.0091590
  C       -1.8261890    -0.1288690     1.1267200
  C       -2.7336970     0.5134260    -1.0120210
  C        4.5537390    -1.1898250     0.0022800
  C       -2.8866350    -1.0143110     1.3128170
  C       -3.7965280    -0.3760470    -0.8307700
  C       -3.8763200    -1.1410390     0.3331560
  H       -0.6887990     2.1194610    -1.1851540
  H       -0.6152960     2.3835930     0.5515720
  H        1.5214970     2.0586850     1.4854080
  H        0.2921320    -0.4400260    -1.7869590
  H        3.6942270     0.8828880     1.5683180
  H        2.4736480    -1.5998700    -1.7190670
  H       -1.0482340    -0.0434160     1.8839740
  H       -2.6776530     1.1110490    -1.9207770
  H        4.8944640    -1.4825890    -0.9952280
  H        5.3329890    -0.5734720     0.4595320
  H        4.4581780    -2.1030590     0.5999660
  H       -2.9412840    -1.6093450     2.2217140
  H       -4.5604750    -0.4701320    -1.5992930
  H       -4.7020430    -1.8337400     0.4769600
units angstrom
no_reorient  #important for SAPT in psi4, default
symmetry c1  #important for SAPT in psi4, default
}

set PROPERTIES_ORIGIN ["COM"]
properties('MP2/aug-cc-pvtz', properties = ['dipole'])
--------------------------------------------------------------------------

    Molecular point group: c1
  Charge       = 0
  Multiplicity = 1
  Basis Set: AUG-CC-PVTZ
    Blend: AUG-CC-PVTZ
  Basis Set: (AUG-CC-PVTZ AUX)
    Blend: AUG-CC-PVTZ-JKFIT

    Orbital Energies [Eh]
    ---------------------

    Doubly Occupied:

       1A    -11.238621     2A    -11.237138     3A    -11.236373
       4A    -11.233571     5A    -11.233201     6A    -11.232703
       7A    -11.230881     8A    -11.230231     9A    -11.229716
      10A    -11.229708    11A    -11.229367    12A    -11.227579
      13A    -11.222932    14A    -11.214886    15A     -1.168635
      16A     -1.147219    17A     -1.066798    18A     -1.028400
      19A     -1.015266    20A     -1.008475    21A     -0.947156
      22A     -0.897434    23A     -0.835408    24A     -0.821934
      25A     -0.798048    26A     -0.776812    27A     -0.690339
      28A     -0.670524    29A     -0.647829    30A     -0.631942
      31A     -0.626766    32A     -0.618149    33A     -0.594532
      34A     -0.581161    35A     -0.575254    36A     -0.566080
      37A     -0.552218    38A     -0.539876    39A     -0.529215
      40A     -0.504844    41A     -0.495495    42A     -0.490356
      43A     -0.484030    44A     -0.478237    45A     -0.443330
      46A     -0.344422    47A     -0.332672    48A     -0.325416
      49A     -0.313039

  @DF-RHF Final Energy:  -538.46979374433886

   => Energetics <=

    Nuclear Repulsion Energy =            786.7493655495325129
    One-Electron Energy =               -2288.8898862715245741
    Two-Electron Energy =                 963.6707269776532030
    Total Energy =                       -538.4697937443388582
  Basis Set: (AUG-CC-PVTZ AUX)
    Blend: AUG-CC-PVTZ-RI
    Molecular point group: c1

    Geometry (in Angstrom), charge = 0, multiplicity = 1:

       Center              X                  Y                   Z               Mass
    ------------   -----------------  -----------------  -----------------  -----------------
         C           -0.559090838681     1.602380083072    -0.217939796553    12.000000000000
         C            0.869383761319     0.794066783072    -0.202976796553    12.000000000000
         C           -1.715994838681     0.646590083072    -0.033783796553    12.000000000000
         C            1.747144161319     1.249757083072     0.785462203447    12.000000000000
         C            1.064648161319    -0.143293916928    -1.051468796553    12.000000000000
         C            3.269184161319    -0.447218916928    -0.065036796553    12.000000000000
         C            2.975126161319     0.585197083072     0.831636203447    12.000000000000
         C            2.291071161319    -0.801721916928    -1.005777796553    12.000000000000
         C           -1.802799838681    -0.130919916928     1.130101203447    12.000000000000
         C           -2.710307838681     0.511375083072    -1.008639796553    12.000000000000
         C            4.577128161319    -1.191875916928     0.005661203447    12.000000000000
         C           -2.863245838681    -1.016361916928     1.316198203447    12.000000000000
         C           -3.773138838681    -0.378097916928    -0.827388796553    12.000000000000
         C           -3.852930838681    -1.143089916928     0.336537203447    12.000000000000
         H           -0.665409838681     2.117410083072    -1.181772796553     1.007825032230
         H           -0.591906838681     2.381542083072     0.554953203447     1.007825032230
         H            1.544886161319     2.056634083072     1.488789203447     1.007825032230
         H            0.315521161319    -0.442076916928    -1.783577796553     1.007825032230
         H            3.717616161319     0.880837083072     1.571699203447     1.007825032230
         H            2.497037161319    -1.601920916928    -1.715685796553     1.007825032230
         H           -1.024844838681    -0.045466916928     1.887355203447     1.007825032230
         H           -2.654263838681     1.108998083072    -1.917395796553     1.007825032230
         H            4.917853161319    -1.484639916928    -0.991846796553     1.007825032230
         H            5.356378161319    -0.575522916928     0.462913203447     1.007825032230
         H            4.481567161319    -2.105109916928     0.603347203447     1.007825032230
         H           -2.917894838681    -1.611395916928     2.225095203447     1.007825032230
         H           -4.537085838681    -0.472182916928    -1.595911796553     1.007825032230
         H           -4.678653838681    -1.835790916928     0.480341203447     1.007825032230

  Basis Set: AUG-CC-PVTZ
    Blend: AUG-CC-PVTZ
  Basis Set: (AUG-CC-PVTZ AUX)
    Blend: AUG-CC-PVTZ-JKFIT
	 Reference Energy          =    -538.4697937443388582 [Eh]
	 Singles Energy            =      -0.0000000000000000 [Eh]
	 Same-Spin Energy          =      -0.6078165209708956 [Eh]
	 Opposite-Spin Energy      =      -1.9345267932678660 [Eh]
	 Correlation Energy        =      -2.5423433142387615 [Eh]
	 Total Energy              =    -541.0121370585776504 [Eh]

	 ================> DF-SCS-MP2 Energies <==================
	-----------------------------------------------------------
	 SCS Same-Spin Scale       =       0.3333333333333333 [-]
	 SCS Opposite-Spin Scale   =       1.2000000000000000 [-]
	 SCS Same-Spin Energy      =      -0.2026055069902985 [Eh]
	 SCS Opposite-Spin Energy  =      -2.3214321519214391 [Eh]
	 SCS Correlation Energy    =      -2.5240376589117375 [Eh]
	 SCS Total Energy          =    -540.9938314032506241 [Eh]
	-----------------------------------------------------------

  Dipole Moment: [D]
     X:     0.5708      Y:    -0.1257      Z:     0.0316     Total:     0.5854

*** Psi4 exiting successfully. Buy a developer a beer!
