                               Psi4 1.4a3.dev225

  ==> Input File <==

--------------------------------------------------------------------------
#psi4
#
memory 32 gb

molecule  {
0 1
  C       -0.5824800     1.6044310    -0.2213210
  C        0.7517090     0.8972820    -0.1584330
  C       -1.7393840     0.6486410    -0.0371650
  C        1.7237550     1.2518080     0.7820810
  C        1.0412590    -0.1412430    -1.0548500
  C        3.2457950    -0.4451680    -0.0684180
  C        2.9517370     0.5872480     0.8282550
  C        2.2676820    -0.7996710    -1.0091590
  C       -1.8261890    -0.1288690     1.1267200
  C       -2.8047686     0.5037611    -1.0817018
  C        4.5537390    -1.1898250     0.0022800
  C       -2.8866350    -1.0143110     1.3128170
  C       -3.7965280    -0.3760470    -0.8307700
  C       -3.8763200    -1.1410390     0.3331560
  H       -0.6887990     2.1194610    -1.1851540
  H       -0.6152960     2.3835930     0.5515720
  H        1.5214970     2.0586850     1.4854080
  H        0.2921320    -0.4400260    -1.7869590
  H        3.6942270     0.8828880     1.5683180
  H        2.4736480    -1.5998700    -1.7190670
  H       -1.0482340    -0.0434160     1.8839740
  H       -2.6776530     1.1110490    -1.9207770
  H        4.8944640    -1.4825890    -0.9952280
  H        5.3329890    -0.5734720     0.4595320
  H        4.4581780    -2.1030590     0.5999660
  H       -2.9412840    -1.6093450     2.2217140
  H       -4.5604750    -0.4701320    -1.5992930
  H       -4.7020430    -1.8337400     0.4769600
units angstrom
no_reorient  #important for SAPT in psi4, default
symmetry c1  #important for SAPT in psi4, default
}

set PROPERTIES_ORIGIN ["COM"]
properties('MP2/aug-cc-pvtz', properties = ['dipole'])
--------------------------------------------------------------------------

    Molecular point group: c1
  Charge       = 0
  Multiplicity = 1
  Basis Set: AUG-CC-PVTZ
    Blend: AUG-CC-PVTZ
  Basis Set: (AUG-CC-PVTZ AUX)
    Blend: AUG-CC-PVTZ-JKFIT

    Orbital Energies [Eh]
    ---------------------

    Doubly Occupied:

       1A    -11.250686     2A    -11.238439     3A    -11.237397
       4A    -11.236305     5A    -11.235725     6A    -11.232937
       7A    -11.231323     8A    -11.231160     9A    -11.230007
      10A    -11.229732    11A    -11.229249    12A    -11.228777
      13A    -11.228093    14A    -11.223039    15A     -1.158478
      16A     -1.142590    17A     -1.073893    18A     -1.021058
      19A     -1.016037    20A     -1.008202    21A     -0.954605
      22A     -0.897190    23A     -0.827250    24A     -0.822410
      25A     -0.802405    26A     -0.772743    27A     -0.696155
      28A     -0.668701    29A     -0.648379    30A     -0.642155
      31A     -0.628114    32A     -0.611619    33A     -0.588335
      34A     -0.578759    35A     -0.575535    36A     -0.567917
      37A     -0.559933    38A     -0.549335    39A     -0.528068
      40A     -0.506692    41A     -0.494373    42A     -0.485954
      43A     -0.478002    44A     -0.473693    45A     -0.462103
      46A     -0.344068    47A     -0.333652    48A     -0.323863
      49A     -0.303588

  @DF-RHF Final Energy:  -538.48189697095029

   => Energetics <=

    Nuclear Repulsion Energy =            784.5141198967201035
    One-Electron Energy =               -2284.3745830191828645
    Two-Electron Energy =                 961.3785661515124730
    Total Energy =                       -538.4818969709502881
  Basis Set: (AUG-CC-PVTZ AUX)
    Blend: AUG-CC-PVTZ-RI
    Molecular point group: c1

    Geometry (in Angstrom), charge = 0, multiplicity = 1:

       Center              X                  Y                   Z               Mass
    ------------   -----------------  -----------------  -----------------  -----------------
         C           -0.548194724803     1.596350784789    -0.216506211113    12.000000000000
         C            0.785994275197     0.889201784789    -0.153618211113    12.000000000000
         C           -1.705098724803     0.640560784789    -0.032350211113    12.000000000000
         C            1.758040275197     1.243727784789     0.786895788887    12.000000000000
         C            1.075544275197    -0.149323215211    -1.050035211113    12.000000000000
         C            3.280080275197    -0.453248215211    -0.063603211113    12.000000000000
         C            2.986022275197     0.579167784789     0.833069788887    12.000000000000
         C            2.301967275197    -0.807751215211    -1.004344211113    12.000000000000
         C           -1.791903724803    -0.136949215211     1.131534788887    12.000000000000
         C           -2.770483324803     0.495680884789    -1.076887011113    12.000000000000
         C            4.588024275197    -1.197905215211     0.007094788887    12.000000000000
         C           -2.852349724803    -1.022391215211     1.317631788887    12.000000000000
         C           -3.762242724803    -0.384127215211    -0.825955211113    12.000000000000
         C           -3.842034724803    -1.149119215211     0.337970788887    12.000000000000
         H           -0.654513724803     2.111380784789    -1.180339211113     1.007825032230
         H           -0.581010724803     2.375512784789     0.556386788887     1.007825032230
         H            1.555782275197     2.050604784789     1.490222788887     1.007825032230
         H            0.326417275197    -0.448106215211    -1.782144211113     1.007825032230
         H            3.728512275197     0.874807784789     1.573132788887     1.007825032230
         H            2.507933275197    -1.607950215211    -1.714252211113     1.007825032230
         H           -1.013948724803    -0.051496215211     1.888788788887     1.007825032230
         H           -2.643367724803     1.102968784789    -1.915962211113     1.007825032230
         H            4.928749275197    -1.490669215211    -0.990413211113     1.007825032230
         H            5.367274275197    -0.581552215211     0.464346788887     1.007825032230
         H            4.492463275197    -2.111139215211     0.604780788887     1.007825032230
         H           -2.906998724803    -1.617425215211     2.226528788887     1.007825032230
         H           -4.526189724803    -0.478212215211    -1.594478211113     1.007825032230
         H           -4.667757724803    -1.841820215211     0.481774788887     1.007825032230

  Basis Set: AUG-CC-PVTZ
    Blend: AUG-CC-PVTZ
  Basis Set: (AUG-CC-PVTZ AUX)
    Blend: AUG-CC-PVTZ-JKFIT
	 Reference Energy          =    -538.4818969709502881 [Eh]
	 Singles Energy            =      -0.0000000000000000 [Eh]
	 Same-Spin Energy          =      -0.6082023767327150 [Eh]
	 Opposite-Spin Energy      =      -1.9354200384439992 [Eh]
	 Correlation Energy        =      -2.5436224151767144 [Eh]
	 Total Energy              =    -541.0255193861270300 [Eh]

	 ================> DF-SCS-MP2 Energies <==================
	-----------------------------------------------------------
	 SCS Same-Spin Scale       =       0.3333333333333333 [-]
	 SCS Opposite-Spin Scale   =       1.2000000000000000 [-]
	 SCS Same-Spin Energy      =      -0.2027341255775717 [Eh]
	 SCS Opposite-Spin Energy  =      -2.3225040461327988 [Eh]
	 SCS Correlation Energy    =      -2.5252381717103707 [Eh]
	 SCS Total Energy          =    -541.0071351426606725 [Eh]
	-----------------------------------------------------------

  Dipole Moment: [D]
     X:     0.3885      Y:    -0.1012      Z:     0.0040     Total:     0.4015

*** Psi4 exiting successfully. Buy a developer a beer!
