                               Psi4 1.4a3.dev225

  ==> Input File <==

--------------------------------------------------------------------------
#psi4
#
memory 32 gb

molecule  {
0 1
  C       -0.5824800     1.6044310    -0.2213210
  C        0.7517090     0.8972820    -0.1584330
  C       -1.7393840     0.6486410    -0.0371650
  C        1.7237550     1.2518080     0.7820810
  C        1.0412590    -0.1412430    -1.0548500
  C        3.2457950    -0.4451680    -0.0684180
  C        2.9517370     0.5872480     0.8282550
  C        2.2676820    -0.7996710    -1.0091590
  C       -1.8261890    -0.1288690     1.1267200
  C       -2.7336970     0.5134260    -1.0120210
  C        4.5537390    -1.1898250     0.0022800
  C       -2.8866350    -1.0143110     1.3128170
  C       -3.7965280    -0.3760470    -0.8307700
  C       -3.8763200    -1.1410390     0.3331560
  H       -0.6887990     2.1194610    -1.1851540
  H       -0.6152960     2.3835930     0.5515720
  H        1.5214970     2.0586850     1.4854080
  H        0.2921320    -0.4400260    -1.7869590
  H        3.6942270     0.8828880     1.5683180
  H        2.4736480    -1.5998700    -1.7190670
  H       -1.0482340    -0.0434160     1.8839740
  H       -2.6776530     1.1110490    -1.9207770
  H        4.9100365    -1.4959695    -1.0408181
  H        5.3329890    -0.5734720     0.4595320
  H        4.4581780    -2.1030590     0.5999660
  H       -2.9412840    -1.6093450     2.2217140
  H       -4.5604750    -0.4701320    -1.5992930
  H       -4.7020430    -1.8337400     0.4769600
units angstrom
no_reorient  #important for SAPT in psi4, default
symmetry c1  #important for SAPT in psi4, default
}

set PROPERTIES_ORIGIN ["COM"]
properties('MP2/aug-cc-pvtz', properties = ['dipole'])
--------------------------------------------------------------------------

    Molecular point group: c1
  Charge       = 0
  Multiplicity = 1
  Basis Set: AUG-CC-PVTZ
    Blend: AUG-CC-PVTZ
  Basis Set: (AUG-CC-PVTZ AUX)
    Blend: AUG-CC-PVTZ-JKFIT

    Orbital Energies [Eh]
    ---------------------

    Doubly Occupied:

       1A    -11.241164     2A    -11.238829     3A    -11.237143
       4A    -11.235409     5A    -11.235097     6A    -11.234614
       7A    -11.231592     8A    -11.231415     9A    -11.231339
      10A    -11.230012    11A    -11.229539    12A    -11.229517
      13A    -11.228980    14A    -11.228782    15A     -1.160780
      16A     -1.145354    17A     -1.073660    18A     -1.023456
      19A     -1.010246    20A     -1.008319    21A     -0.955795
      22A     -0.894605    23A     -0.828248    24A     -0.822903
      25A     -0.802682    26A     -0.774484    27A     -0.693435
      28A     -0.667695    29A     -0.648057    30A     -0.635136
      31A     -0.628375    32A     -0.617641    33A     -0.582888
      34A     -0.578945    35A     -0.573453    36A     -0.569534
      37A     -0.559981    38A     -0.545403    39A     -0.525070
      40A     -0.503147    41A     -0.491062    42A     -0.490313
      43A     -0.477458    44A     -0.473550    45A     -0.471319
      46A     -0.337242    47A     -0.333799    48A     -0.329346
      49A     -0.307438

  @DF-RHF Final Energy:  -538.49171850365292

   => Energetics <=

    Nuclear Repulsion Energy =            785.7530864242895632
    One-Electron Energy =               -2286.8811073259635123
    Two-Electron Energy =                 962.6363023980211437
    Total Energy =                       -538.4917185036529190
  Basis Set: (AUG-CC-PVTZ AUX)
    Blend: AUG-CC-PVTZ-RI
    Molecular point group: c1

    Geometry (in Angstrom), charge = 0, multiplicity = 1:

       Center              X                  Y                   Z               Mass
    ------------   -----------------  -----------------  -----------------  -----------------
         C           -0.552964126260     1.595787971927    -0.220845482469    12.000000000000
         C            0.781224873740     0.888638971927    -0.157957482469    12.000000000000
         C           -1.709868126260     0.639997971927    -0.036689482469    12.000000000000
         C            1.753270873740     1.243164971927     0.782556517531    12.000000000000
         C            1.070774873740    -0.149886028073    -1.054374482469    12.000000000000
         C            3.275310873740    -0.453811028073    -0.067942482469    12.000000000000
         C            2.981252873740     0.578604971927     0.828730517531    12.000000000000
         C            2.297197873740    -0.808314028073    -1.008683482469    12.000000000000
         C           -1.796673126260    -0.137512028073     1.127195517531    12.000000000000
         C           -2.704181126260     0.504782971927    -1.011545482469    12.000000000000
         C            4.583254873740    -1.198468028073     0.002755517531    12.000000000000
         C           -2.857119126260    -1.022954028073     1.313292517531    12.000000000000
         C           -3.767012126260    -0.384690028073    -0.830294482469    12.000000000000
         C           -3.846804126260    -1.149682028073     0.333631517531    12.000000000000
         H           -0.659283126260     2.110817971927    -1.184678482469     1.007825032230
         H           -0.585780126260     2.374949971927     0.552047517531     1.007825032230
         H            1.551012873740     2.050041971927     1.485883517531     1.007825032230
         H            0.321647873740    -0.448669028073    -1.786483482469     1.007825032230
         H            3.723742873740     0.874244971927     1.568793517531     1.007825032230
         H            2.503163873740    -1.608513028073    -1.718591482469     1.007825032230
         H           -1.018718126260    -0.052059028073     1.884449517531     1.007825032230
         H           -2.648137126260     1.102405971927    -1.920301482469     1.007825032230
         H            4.939552373740    -1.504612528073    -1.040342582469     1.007825032230
         H            5.362504873740    -0.582115028073     0.460007517531     1.007825032230
         H            4.487693873740    -2.111702028073     0.600441517531     1.007825032230
         H           -2.911768126260    -1.617988028073     2.222189517531     1.007825032230
         H           -4.530959126260    -0.478775028073    -1.598817482469     1.007825032230
         H           -4.672527126260    -1.842383028073     0.477435517531     1.007825032230

  Basis Set: AUG-CC-PVTZ
    Blend: AUG-CC-PVTZ
  Basis Set: (AUG-CC-PVTZ AUX)
    Blend: AUG-CC-PVTZ-JKFIT
	 Reference Energy          =    -538.4917185036529190 [Eh]
	 Singles Energy            =      -0.0000000000000000 [Eh]
	 Same-Spin Energy          =      -0.6081973501117390 [Eh]
	 Opposite-Spin Energy      =      -1.9350857678105267 [Eh]
	 Correlation Energy        =      -2.5432831179222655 [Eh]
	 Total Energy              =    -541.0350016215751339 [Eh]

	 ================> DF-SCS-MP2 Energies <==================
	-----------------------------------------------------------
	 SCS Same-Spin Scale       =       0.3333333333333333 [-]
	 SCS Opposite-Spin Scale   =       1.2000000000000000 [-]
	 SCS Same-Spin Energy      =      -0.2027324500372463 [Eh]
	 SCS Opposite-Spin Energy  =      -2.3221029213726321 [Eh]
	 SCS Correlation Energy    =      -2.5248353714098783 [Eh]
	 SCS Total Energy          =    -541.0165538750627547 [Eh]
	-----------------------------------------------------------

  Dipole Moment: [D]
     X:     0.3394      Y:    -0.1159      Z:     0.0296     Total:     0.3598

*** Psi4 exiting successfully. Buy a developer a beer!
