                               Psi4 1.4a3.dev225

  ==> Input File <==

--------------------------------------------------------------------------
#psi4
#
memory 32 gb

molecule  {
0 1
  C       -0.5824800     1.6044310    -0.2213210
  C        0.7517090     0.8972820    -0.1584330
  C       -1.7393840     0.6486410    -0.0371650
  C        1.7237550     1.2518080     0.7820810
  C        1.0412590    -0.1412430    -1.0548500
  C        3.2346740    -0.4637491    -0.0534982
  C        2.9517370     0.5872480     0.8282550
  C        2.2676820    -0.7996710    -1.0091590
  C       -1.8261890    -0.1288690     1.1267200
  C       -2.7336970     0.5134260    -1.0120210
  C        4.5537390    -1.1898250     0.0022800
  C       -2.8866350    -1.0143110     1.3128170
  C       -3.7965280    -0.3760470    -0.8307700
  C       -3.8763200    -1.1410390     0.3331560
  H       -0.6887990     2.1194610    -1.1851540
  H       -0.6152960     2.3835930     0.5515720
  H        1.5214970     2.0586850     1.4854080
  H        0.2921320    -0.4400260    -1.7869590
  H        3.6942270     0.8828880     1.5683180
  H        2.4736480    -1.5998700    -1.7190670
  H       -1.0482340    -0.0434160     1.8839740
  H       -2.6776530     1.1110490    -1.9207770
  H        4.8944640    -1.4825890    -0.9952280
  H        5.3329890    -0.5734720     0.4595320
  H        4.4581780    -2.1030590     0.5999660
  H       -2.9412840    -1.6093450     2.2217140
  H       -4.5604750    -0.4701320    -1.5992930
  H       -4.7020430    -1.8337400     0.4769600
units angstrom
no_reorient  #important for SAPT in psi4, default
symmetry c1  #important for SAPT in psi4, default
}

set PROPERTIES_ORIGIN ["COM"]
properties('MP2/aug-cc-pvtz', properties = ['dipole'])
--------------------------------------------------------------------------

    Molecular point group: c1
  Charge       = 0
  Multiplicity = 1
  Basis Set: AUG-CC-PVTZ
    Blend: AUG-CC-PVTZ
  Basis Set: (AUG-CC-PVTZ AUX)
    Blend: AUG-CC-PVTZ-JKFIT

    Orbital Energies [Eh]
    ---------------------

    Doubly Occupied:

       1A    -11.241043     2A    -11.238479     3A    -11.236819
       4A    -11.235227     5A    -11.235002     6A    -11.234516
       7A    -11.231483     8A    -11.231236     9A    -11.231190
      10A    -11.229762    11A    -11.229406    12A    -11.229325
      13A    -11.228512    14A    -11.223018    15A     -1.160636
      16A     -1.145248    17A     -1.073794    18A     -1.024016
      19A     -1.010145    20A     -1.008100    21A     -0.957294
      22A     -0.896234    23A     -0.828130    24A     -0.822792
      25A     -0.802857    26A     -0.774602    27A     -0.693351
      28A     -0.667849    29A     -0.648312    30A     -0.635068
      31A     -0.628587    32A     -0.617661    33A     -0.582783
      34A     -0.578744    35A     -0.575313    36A     -0.569450
      37A     -0.559819    38A     -0.548612    39A     -0.528124
      40A     -0.502309    41A     -0.491526    42A     -0.490423
      43A     -0.477507    44A     -0.474072    45A     -0.470820
      46A     -0.336944    47A     -0.333653    48A     -0.329440
      49A     -0.307118

  @DF-RHF Final Energy:  -538.49370208106006

   => Energetics <=

    Nuclear Repulsion Energy =            786.0073458680220710
    One-Electron Energy =               -2287.3893870122683438
    Two-Electron Energy =                 962.8883390631860948
    Total Energy =                       -538.4937020810600643
  Basis Set: (AUG-CC-PVTZ AUX)
    Blend: AUG-CC-PVTZ-RI
    Molecular point group: c1

    Geometry (in Angstrom), charge = 0, multiplicity = 1:

       Center              X                  Y                   Z               Mass
    ------------   -----------------  -----------------  -----------------  -----------------
         C           -0.552145133764     1.596938312459    -0.222080917093    12.000000000000
         C            0.782043866236     0.889789312459    -0.159192917093    12.000000000000
         C           -1.709049133764     0.641148312459    -0.037924917093    12.000000000000
         C            1.754089866236     1.244315312459     0.781321082907    12.000000000000
         C            1.071593866236    -0.148735687541    -1.055609917093    12.000000000000
         C            3.265008866236    -0.471241787541    -0.054258117093    12.000000000000
         C            2.982071866236     0.579755312459     0.827495082907    12.000000000000
         C            2.298016866236    -0.807163687541    -1.009918917093    12.000000000000
         C           -1.795854133764    -0.136361687541     1.125960082907    12.000000000000
         C           -2.703362133764     0.505933312459    -1.012780917093    12.000000000000
         C            4.584073866236    -1.197317687541     0.001520082907    12.000000000000
         C           -2.856300133764    -1.021803687541     1.312057082907    12.000000000000
         C           -3.766193133764    -0.383539687541    -0.831529917093    12.000000000000
         C           -3.845985133764    -1.148531687541     0.332396082907    12.000000000000
         H           -0.658464133764     2.111968312459    -1.185913917093     1.007825032230
         H           -0.584961133764     2.376100312459     0.550812082907     1.007825032230
         H            1.551831866236     2.051192312459     1.484648082907     1.007825032230
         H            0.322466866236    -0.447518687541    -1.787718917093     1.007825032230
         H            3.724561866236     0.875395312459     1.567558082907     1.007825032230
         H            2.503982866236    -1.607362687541    -1.719826917093     1.007825032230
         H           -1.017899133764    -0.050908687541     1.883214082907     1.007825032230
         H           -2.647318133764     1.103556312459    -1.921536917093     1.007825032230
         H            4.924798866236    -1.490081687541    -0.995987917093     1.007825032230
         H            5.363323866236    -0.580964687541     0.458772082907     1.007825032230
         H            4.488512866236    -2.110551687541     0.599206082907     1.007825032230
         H           -2.910949133764    -1.616837687541     2.220954082907     1.007825032230
         H           -4.530140133764    -0.477624687541    -1.600052917093     1.007825032230
         H           -4.671708133764    -1.841232687541     0.476200082907     1.007825032230

  Basis Set: AUG-CC-PVTZ
    Blend: AUG-CC-PVTZ
  Basis Set: (AUG-CC-PVTZ AUX)
    Blend: AUG-CC-PVTZ-JKFIT
	 Reference Energy          =    -538.4937020810600643 [Eh]
	 Singles Energy            =      -0.0000000000000000 [Eh]
	 Same-Spin Energy          =      -0.6082032962780541 [Eh]
	 Opposite-Spin Energy      =      -1.9347505348888212 [Eh]
	 Correlation Energy        =      -2.5429538311668756 [Eh]
	 Total Energy              =    -541.0366559122269337 [Eh]

	 ================> DF-SCS-MP2 Energies <==================
	-----------------------------------------------------------
	 SCS Same-Spin Scale       =       0.3333333333333333 [-]
	 SCS Opposite-Spin Scale   =       1.2000000000000000 [-]
	 SCS Same-Spin Energy      =      -0.2027344320926847 [Eh]
	 SCS Opposite-Spin Energy  =      -2.3217006418665855 [Eh]
	 SCS Correlation Energy    =      -2.5244350739592702 [Eh]
	 SCS Total Energy          =    -541.0181371550193035 [Eh]
	-----------------------------------------------------------

  Dipole Moment: [D]
     X:     0.3754      Y:    -0.1244      Z:     0.0033     Total:     0.3955

*** Psi4 exiting successfully. Buy a developer a beer!
