                               Psi4 1.4a3.dev225

  ==> Input File <==

--------------------------------------------------------------------------
#psi4
#
memory 32 gb

molecule  {
0 1
  C       -0.5824800     1.6044310    -0.2213210
  C        0.7517090     0.8972820    -0.1584330
  C       -1.7393840     0.6486410    -0.0371650
  C        1.6889959     1.2391306     0.7484494
  C        1.0412590    -0.1412430    -1.0548500
  C        3.2457950    -0.4451680    -0.0684180
  C        2.9517370     0.5872480     0.8282550
  C        2.2676820    -0.7996710    -1.0091590
  C       -1.8261890    -0.1288690     1.1267200
  C       -2.7336970     0.5134260    -1.0120210
  C        4.5537390    -1.1898250     0.0022800
  C       -2.8866350    -1.0143110     1.3128170
  C       -3.7965280    -0.3760470    -0.8307700
  C       -3.8763200    -1.1410390     0.3331560
  H       -0.6887990     2.1194610    -1.1851540
  H       -0.6152960     2.3835930     0.5515720
  H        1.5214970     2.0586850     1.4854080
  H        0.2921320    -0.4400260    -1.7869590
  H        3.6942270     0.8828880     1.5683180
  H        2.4736480    -1.5998700    -1.7190670
  H       -1.0482340    -0.0434160     1.8839740
  H       -2.6776530     1.1110490    -1.9207770
  H        4.8944640    -1.4825890    -0.9952280
  H        5.3329890    -0.5734720     0.4595320
  H        4.4581780    -2.1030590     0.5999660
  H       -2.9412840    -1.6093450     2.2217140
  H       -4.5604750    -0.4701320    -1.5992930
  H       -4.7020430    -1.8337400     0.4769600
units angstrom
no_reorient  #important for SAPT in psi4, default
symmetry c1  #important for SAPT in psi4, default
}

set PROPERTIES_ORIGIN ["COM"]
properties('MP2/aug-cc-pvtz', properties = ['dipole'])
--------------------------------------------------------------------------

    Molecular point group: c1
  Charge       = 0
  Multiplicity = 1
  Basis Set: AUG-CC-PVTZ
    Blend: AUG-CC-PVTZ
  Basis Set: (AUG-CC-PVTZ AUX)
    Blend: AUG-CC-PVTZ-JKFIT

    Orbital Energies [Eh]
    ---------------------

    Doubly Occupied:

       1A    -11.240966     2A    -11.238530     3A    -11.235064
       4A    -11.234945     5A    -11.234594     6A    -11.231698
       7A    -11.231546     8A    -11.231313     9A    -11.231239
      10A    -11.230313    11A    -11.229465    12A    -11.229410
      13A    -11.228886    14A    -11.222992    15A     -1.162943
      16A     -1.146106    17A     -1.075591    18A     -1.026027
      19A     -1.010195    20A     -1.004744    21A     -0.956747
      22A     -0.898694    23A     -0.830202    24A     -0.823258
      25A     -0.801417    26A     -0.774118    27A     -0.693604
      28A     -0.667518    29A     -0.649079    30A     -0.634959
      31A     -0.625445    32A     -0.619823    33A     -0.582933
      34A     -0.576158    35A     -0.574300    36A     -0.569086
      37A     -0.561360    38A     -0.548930    39A     -0.528787
      40A     -0.503010    41A     -0.491399    42A     -0.490560
      43A     -0.478177    44A     -0.473329    45A     -0.469766
      46A     -0.335942    47A     -0.332503    48A     -0.331451
      49A     -0.310133

  @DF-RHF Final Energy:  -538.49114361508191

   => Energetics <=

    Nuclear Repulsion Energy =            786.7079818793021104
    One-Electron Energy =               -2288.7797324342127467
    Two-Electron Energy =                 963.5806069398286127
    Total Energy =                       -538.4911436150819100
  Basis Set: (AUG-CC-PVTZ AUX)
    Blend: AUG-CC-PVTZ-RI
    Molecular point group: c1

    Geometry (in Angstrom), charge = 0, multiplicity = 1:

       Center              X                  Y                   Z               Mass
    ------------   -----------------  -----------------  -----------------  -----------------
         C           -0.550587515290     1.596549291676    -0.218881651604    12.000000000000
         C            0.783601484710     0.889400291676    -0.155993651604    12.000000000000
         C           -1.707491515290     0.640759291676    -0.034725651604    12.000000000000
         C            1.720888384710     1.231248891676     0.750888748396    12.000000000000
         C            1.073151484710    -0.149124708324    -1.052410651604    12.000000000000
         C            3.277687484710    -0.453049708324    -0.065978651604    12.000000000000
         C            2.983629484710     0.579366291676     0.830694348396    12.000000000000
         C            2.299574484710    -0.807552708324    -1.006719651604    12.000000000000
         C           -1.794296515290    -0.136750708324     1.129159348396    12.000000000000
         C           -2.701804515290     0.505544291676    -1.009581651604    12.000000000000
         C            4.585631484710    -1.197706708324     0.004719348396    12.000000000000
         C           -2.854742515290    -1.022192708324     1.315256348396    12.000000000000
         C           -3.764635515290    -0.383928708324    -0.828330651604    12.000000000000
         C           -3.844427515290    -1.148920708324     0.335595348396    12.000000000000
         H           -0.656906515290     2.111579291676    -1.182714651604     1.007825032230
         H           -0.583403515290     2.375711291676     0.554011348396     1.007825032230
         H            1.553389484710     2.050803291676     1.487847348396     1.007825032230
         H            0.324024484710    -0.447907708324    -1.784519651604     1.007825032230
         H            3.726119484710     0.875006291676     1.570757348396     1.007825032230
         H            2.505540484710    -1.607751708324    -1.716627651604     1.007825032230
         H           -1.016341515290    -0.051297708324     1.886413348396     1.007825032230
         H           -2.645760515290     1.103167291676    -1.918337651604     1.007825032230
         H            4.926356484710    -1.490470708324    -0.992788651604     1.007825032230
         H            5.364881484710    -0.581353708324     0.461971348396     1.007825032230
         H            4.490070484710    -2.110940708324     0.602405348396     1.007825032230
         H           -2.909391515290    -1.617226708324     2.224153348396     1.007825032230
         H           -4.528582515290    -0.478013708324    -1.596853651604     1.007825032230
         H           -4.670150515290    -1.841621708324     0.479399348396     1.007825032230

  Basis Set: AUG-CC-PVTZ
    Blend: AUG-CC-PVTZ
  Basis Set: (AUG-CC-PVTZ AUX)
    Blend: AUG-CC-PVTZ-JKFIT
	 Reference Energy          =    -538.4911436150819100 [Eh]
	 Singles Energy            =      -0.0000000000000000 [Eh]
	 Same-Spin Energy          =      -0.6080136433118380 [Eh]
	 Opposite-Spin Energy      =      -1.9346885598845946 [Eh]
	 Correlation Energy        =      -2.5427022031964328 [Eh]
	 Total Energy              =    -541.0338458182783370 [Eh]

	 ================> DF-SCS-MP2 Energies <==================
	-----------------------------------------------------------
	 SCS Same-Spin Scale       =       0.3333333333333333 [-]
	 SCS Opposite-Spin Scale   =       1.2000000000000000 [-]
	 SCS Same-Spin Energy      =      -0.2026712144372793 [Eh]
	 SCS Opposite-Spin Energy  =      -2.3216262718615135 [Eh]
	 SCS Correlation Energy    =      -2.5242974862987930 [Eh]
	 SCS Total Energy          =    -541.0154411013807021 [Eh]
	-----------------------------------------------------------

  Dipole Moment: [D]
     X:     0.3760      Y:    -0.1457      Z:     0.0065     Total:     0.4033

*** Psi4 exiting successfully. Buy a developer a beer!
