                               Psi4 1.4a3.dev225

  ==> Input File <==

--------------------------------------------------------------------------
#psi4
#
memory 32 gb

molecule  {
0 1
  C       -0.5824800     1.6044310    -0.2213210
  C        0.7517090     0.8972820    -0.1584330
  C       -1.7393840     0.6486410    -0.0371650
  C        1.7237550     1.2518080     0.7820810
  C        1.0412590    -0.1412430    -1.0548500
  C        3.2457950    -0.4451680    -0.0684180
  C        2.9517370     0.5872480     0.8282550
  C        2.2676820    -0.7996710    -1.0091590
  C       -1.8261890    -0.1288690     1.1267200
  C       -2.7336970     0.5134260    -1.0120210
  C        4.5537390    -1.1898250     0.0022800
  C       -2.8866350    -1.0143110     1.3128170
  C       -3.7965280    -0.3760470    -0.8307700
  C       -3.8763200    -1.1410390     0.3331560
  H       -0.6887990     2.1194610    -1.1851540
  H       -0.6152960     2.3835930     0.5515720
  H        1.5214970     2.0586850     1.4854080
  H        0.2921320    -0.4400260    -1.7869590
  H        3.6942270     0.8828880     1.5683180
  H        2.4736480    -1.5998700    -1.7190670
  H       -1.0482340    -0.0434160     1.8839740
  H       -2.6776530     1.1110490    -1.9207770
  H        4.8944640    -1.4825890    -0.9952280
  H        5.3329890    -0.5734720     0.4595320
  H        4.4581780    -2.1030590     0.5999660
  H       -2.9412840    -1.6093450     2.2217140
  H       -4.5604750    -0.4701320    -1.5992930
  H       -4.6868552    -1.8209989     0.4743150
units angstrom
no_reorient  #important for SAPT in psi4, default
symmetry c1  #important for SAPT in psi4, default
}

set PROPERTIES_ORIGIN ["COM"]
properties('MP2/aug-cc-pvtz', properties = ['dipole'])
--------------------------------------------------------------------------

    Molecular point group: c1
  Charge       = 0
  Multiplicity = 1
  Basis Set: AUG-CC-PVTZ
    Blend: AUG-CC-PVTZ
  Basis Set: (AUG-CC-PVTZ AUX)
    Blend: AUG-CC-PVTZ-JKFIT

    Orbital Energies [Eh]
    ---------------------

    Doubly Occupied:

       1A    -11.241004     2A    -11.238350     3A    -11.236905
       4A    -11.235235     5A    -11.234795     6A    -11.234323
       7A    -11.231325     8A    -11.231157     9A    -11.229868
      10A    -11.229318    11A    -11.229127    12A    -11.228999
      13A    -11.228640    14A    -11.222962    15A     -1.160617
      16A     -1.145246    17A     -1.073890    18A     -1.024277
      19A     -1.010038    20A     -1.008098    21A     -0.957594
      22A     -0.896495    23A     -0.828068    24A     -0.822759
      25A     -0.803704    26A     -0.774693    27A     -0.694949
      28A     -0.668123    29A     -0.648445    30A     -0.635396
      31A     -0.628635    32A     -0.617614    33A     -0.582707
      34A     -0.578767    35A     -0.575531    36A     -0.570432
      37A     -0.559903    38A     -0.548396    39A     -0.528096
      40A     -0.503352    41A     -0.491529    42A     -0.490150
      43A     -0.477563    44A     -0.473466    45A     -0.471446
      46A     -0.337026    47A     -0.333607    48A     -0.329227
      49A     -0.307261

  @DF-RHF Final Energy:  -538.49396124108182

   => Energetics <=

    Nuclear Repulsion Energy =            786.0713920779708133
    One-Electron Energy =               -2287.5124962160534778
    Two-Electron Energy =                 962.9471428970008446
    Total Energy =                       -538.4939612410818199
  Basis Set: (AUG-CC-PVTZ AUX)
    Blend: AUG-CC-PVTZ-RI
    Molecular point group: c1

    Geometry (in Angstrom), charge = 0, multiplicity = 1:

       Center              X                  Y                   Z               Mass
    ------------   -----------------  -----------------  -----------------  -----------------
         C           -0.552961997265     1.595643410578    -0.221083147911    12.000000000000
         C            0.781227002735     0.888494410578    -0.158195147911    12.000000000000
         C           -1.709865997265     0.639853410578    -0.036927147911    12.000000000000
         C            1.753273002735     1.243020410578     0.782318852089    12.000000000000
         C            1.070777002735    -0.150030589422    -1.054612147911    12.000000000000
         C            3.275313002735    -0.453955589422    -0.068180147911    12.000000000000
         C            2.981255002735     0.578460410578     0.828492852089    12.000000000000
         C            2.297200002735    -0.808458589422    -1.008921147911    12.000000000000
         C           -1.796670997265    -0.137656589422     1.126957852089    12.000000000000
         C           -2.704178997265     0.504638410578    -1.011783147911    12.000000000000
         C            4.583257002735    -1.198612589422     0.002517852089    12.000000000000
         C           -2.857116997265    -1.023098589422     1.313054852089    12.000000000000
         C           -3.767009997265    -0.384834589422    -0.830532147911    12.000000000000
         C           -3.846801997265    -1.149826589422     0.333393852089    12.000000000000
         H           -0.659280997265     2.110673410578    -1.184916147911     1.007825032230
         H           -0.585777997265     2.374805410578     0.551809852089     1.007825032230
         H            1.551015002735     2.049897410578     1.485645852089     1.007825032230
         H            0.321650002735    -0.448813589422    -1.786721147911     1.007825032230
         H            3.723745002735     0.874100410578     1.568555852089     1.007825032230
         H            2.503166002735    -1.608657589422    -1.718829147911     1.007825032230
         H           -1.018715997265    -0.052203589422     1.884211852089     1.007825032230
         H           -2.648134997265     1.102261410578    -1.920539147911     1.007825032230
         H            4.923982002735    -1.491376589422    -0.994990147911     1.007825032230
         H            5.362507002735    -0.582259589422     0.459769852089     1.007825032230
         H            4.487696002735    -2.111846589422     0.600203852089     1.007825032230
         H           -2.911765997265    -1.618132589422     2.221951852089     1.007825032230
         H           -4.530956997265    -0.478919589422    -1.599055147911     1.007825032230
         H           -4.657337197265    -1.829786489422     0.474552852089     1.007825032230

  Basis Set: AUG-CC-PVTZ
    Blend: AUG-CC-PVTZ
  Basis Set: (AUG-CC-PVTZ AUX)
    Blend: AUG-CC-PVTZ-JKFIT
	 Reference Energy          =    -538.4939612410818199 [Eh]
	 Singles Energy            =      -0.0000000000000000 [Eh]
	 Same-Spin Energy          =      -0.6081619717211882 [Eh]
	 Opposite-Spin Energy      =      -1.9346038274046895 [Eh]
	 Correlation Energy        =      -2.5427657991258776 [Eh]
	 Total Energy              =    -541.0367270402076656 [Eh]

	 ================> DF-SCS-MP2 Energies <==================
	-----------------------------------------------------------
	 SCS Same-Spin Scale       =       0.3333333333333333 [-]
	 SCS Opposite-Spin Scale   =       1.2000000000000000 [-]
	 SCS Same-Spin Energy      =      -0.2027206572403961 [Eh]
	 SCS Opposite-Spin Energy  =      -2.3215245928856274 [Eh]
	 SCS Correlation Energy    =      -2.5242452501260235 [Eh]
	 SCS Total Energy          =    -541.0182064912078204 [Eh]
	-----------------------------------------------------------

  Dipole Moment: [D]
     X:     0.3555      Y:    -0.1346      Z:     0.0112     Total:     0.3803

*** Psi4 exiting successfully. Buy a developer a beer!
