                               Psi4 1.4a3.dev225

  ==> Input File <==

--------------------------------------------------------------------------
#psi4
#
memory 32 gb

molecule  {
0 1
  C       -0.5824800     1.6044310    -0.2213210
  C        0.7517090     0.8972820    -0.1584330
  C       -1.7393840     0.6486410    -0.0371650
  C        1.7237550     1.2518080     0.7820810
  C        1.0412590    -0.1412430    -1.0548500
  C        3.2457950    -0.4451680    -0.0684180
  C        2.9517370     0.5872480     0.8282550
  C        2.2676820    -0.7996710    -1.0091590
  C       -1.8261890    -0.1288690     1.1267200
  C       -2.7727086     0.5371206    -1.0982446
  C        4.5537390    -1.1898250     0.0022800
  C       -2.8866350    -1.0143110     1.3128170
  C       -3.7965280    -0.3760470    -0.8307700
  C       -3.8763200    -1.1410390     0.3331560
  H       -0.6887990     2.1194610    -1.1851540
  H       -0.6152960     2.3835930     0.5515720
  H        1.5214970     2.0586850     1.4854080
  H        0.2921320    -0.4400260    -1.7869590
  H        3.6942270     0.8828880     1.5683180
  H        2.4736480    -1.5998700    -1.7190670
  H       -1.0482340    -0.0434160     1.8839740
  H       -2.6776530     1.1110490    -1.9207770
  H        4.8944640    -1.4825890    -0.9952280
  H        5.3329890    -0.5734720     0.4595320
  H        4.4581780    -2.1030590     0.5999660
  H       -2.9412840    -1.6093450     2.2217140
  H       -4.5604750    -0.4701320    -1.5992930
  H       -4.7020430    -1.8337400     0.4769600
units angstrom
no_reorient  #important for SAPT in psi4, default
symmetry c1  #important for SAPT in psi4, default
}

set PROPERTIES_ORIGIN ["COM"]
properties('MP2/aug-cc-pvtz', properties = ['dipole'])
--------------------------------------------------------------------------

    Molecular point group: c1
  Charge       = 0
  Multiplicity = 1
  Basis Set: AUG-CC-PVTZ
    Blend: AUG-CC-PVTZ
  Basis Set: (AUG-CC-PVTZ AUX)
    Blend: AUG-CC-PVTZ-JKFIT

    Orbital Energies [Eh]
    ---------------------

    Doubly Occupied:

       1A    -11.250713     2A    -11.238223     3A    -11.236881
       4A    -11.236872     5A    -11.236738     6A    -11.235082
       7A    -11.233813     8A    -11.231250     9A    -11.231030
      10A    -11.229750    11A    -11.229030    12A    -11.228832
      13A    -11.228522    14A    -11.222896    15A     -1.157919
      16A     -1.140307    17A     -1.073190    18A     -1.020478
      19A     -1.012887    20A     -1.007977    21A     -0.954958
      22A     -0.896468    23A     -0.828793    24A     -0.826053
      25A     -0.800527    26A     -0.771907    27A     -0.697585
      28A     -0.669029    29A     -0.648897    30A     -0.643096
      31A     -0.628252    32A     -0.611447    33A     -0.587996
      34A     -0.578515    35A     -0.575989    36A     -0.569497
      37A     -0.559492    38A     -0.548614    39A     -0.527900
      40A     -0.506381    41A     -0.494863    42A     -0.486101
      43A     -0.477129    44A     -0.473270    45A     -0.462494
      46A     -0.339331    47A     -0.332914    48A     -0.324685
      49A     -0.304895

  @DF-RHF Final Energy:  -538.48041316181843

   => Energetics <=

    Nuclear Repulsion Energy =            784.2333868210314449
    One-Electron Energy =               -2283.8086683665974306
    Two-Electron Energy =                 961.0948683837475528
    Total Energy =                       -538.4804131618184329
  Basis Set: (AUG-CC-PVTZ AUX)
    Blend: AUG-CC-PVTZ-RI
    Molecular point group: c1

    Geometry (in Angstrom), charge = 0, multiplicity = 1:

       Center              X                  Y                   Z               Mass
    ------------   -----------------  -----------------  -----------------  -----------------
         C           -0.550307299344     1.594152580471    -0.215416133193    12.000000000000
         C            0.783881700656     0.887003580471    -0.152528133193    12.000000000000
         C           -1.707211299344     0.638362580471    -0.031260133193    12.000000000000
         C            1.755927700656     1.241529580471     0.787985866807    12.000000000000
         C            1.073431700656    -0.151521419529    -1.048945133193    12.000000000000
         C            3.277967700656    -0.455446419529    -0.062513133193    12.000000000000
         C            2.983909700656     0.576969580471     0.834159866807    12.000000000000
         C            2.299854700656    -0.809949419529    -1.003254133193    12.000000000000
         C           -1.794016299344    -0.139147419529     1.132624866807    12.000000000000
         C           -2.740535899344     0.526842180471    -1.092339733193    12.000000000000
         C            4.585911700656    -1.200103419529     0.008184866807    12.000000000000
         C           -2.854462299344    -1.024589419529     1.318721866807    12.000000000000
         C           -3.764355299344    -0.386325419529    -0.824865133193    12.000000000000
         C           -3.844147299344    -1.151317419529     0.339060866807    12.000000000000
         H           -0.656626299344     2.109182580471    -1.179249133193     1.007825032230
         H           -0.583123299344     2.373314580471     0.557476866807     1.007825032230
         H            1.553669700656     2.048406580471     1.491312866807     1.007825032230
         H            0.324304700656    -0.450304419529    -1.781054133193     1.007825032230
         H            3.726399700656     0.872609580471     1.574222866807     1.007825032230
         H            2.505820700656    -1.610148419529    -1.713162133193     1.007825032230
         H           -1.016061299344    -0.053694419529     1.889878866807     1.007825032230
         H           -2.645480299344     1.100770580471    -1.914872133193     1.007825032230
         H            4.926636700656    -1.492867419529    -0.989323133193     1.007825032230
         H            5.365161700656    -0.583750419529     0.465436866807     1.007825032230
         H            4.490350700656    -2.113337419529     0.605870866807     1.007825032230
         H           -2.909111299344    -1.619623419529     2.227618866807     1.007825032230
         H           -4.528302299344    -0.480410419529    -1.593388133193     1.007825032230
         H           -4.669870299344    -1.844018419529     0.482864866807     1.007825032230

  Basis Set: AUG-CC-PVTZ
    Blend: AUG-CC-PVTZ
  Basis Set: (AUG-CC-PVTZ AUX)
    Blend: AUG-CC-PVTZ-JKFIT
	 Reference Energy          =    -538.4804131618184329 [Eh]
	 Singles Energy            =      -0.0000000000000000 [Eh]
	 Same-Spin Energy          =      -0.6083278746745669 [Eh]
	 Opposite-Spin Energy      =      -1.9357129084533793 [Eh]
	 Correlation Energy        =      -2.5440407831279463 [Eh]
	 Total Energy              =    -541.0244539449463446 [Eh]

	 ================> DF-SCS-MP2 Energies <==================
	-----------------------------------------------------------
	 SCS Same-Spin Scale       =       0.3333333333333333 [-]
	 SCS Opposite-Spin Scale   =       1.2000000000000000 [-]
	 SCS Same-Spin Energy      =      -0.2027759582248556 [Eh]
	 SCS Opposite-Spin Energy  =      -2.3228554901440552 [Eh]
	 SCS Correlation Energy    =      -2.5256314483689111 [Eh]
	 SCS Total Energy          =    -541.0060446101873595 [Eh]
	-----------------------------------------------------------

  Dipole Moment: [D]
     X:     0.3619      Y:    -0.1086      Z:     0.0070     Total:     0.3779

*** Psi4 exiting successfully. Buy a developer a beer!
