                               Psi4 1.4a3.dev225

  ==> Input File <==

--------------------------------------------------------------------------
#psi4
#
memory 32 gb

molecule  {
0 1
  C       -0.5824800     1.6044310    -0.2213210
  C        0.7517090     0.8972820    -0.1584330
  C       -1.7393840     0.6486410    -0.0371650
  C        1.7237550     1.2518080     0.7820810
  C        1.0412590    -0.1412430    -1.0548500
  C        3.2457950    -0.4451680    -0.0684180
  C        2.9517370     0.5872480     0.8282550
  C        2.2676820    -0.7996710    -1.0091590
  C       -1.8261890    -0.1288690     1.1267200
  C       -2.7692328     0.5085935    -1.0468614
  C        4.5537390    -1.1898250     0.0022800
  C       -2.8866350    -1.0143110     1.3128170
  C       -3.7965280    -0.3760470    -0.8307700
  C       -3.8763200    -1.1410390     0.3331560
  H       -0.6887990     2.1194610    -1.1851540
  H       -0.6152960     2.3835930     0.5515720
  H        1.5214970     2.0586850     1.4854080
  H        0.2921320    -0.4400260    -1.7869590
  H        3.6942270     0.8828880     1.5683180
  H        2.4736480    -1.5998700    -1.7190670
  H       -1.0482340    -0.0434160     1.8839740
  H       -2.6776530     1.1110490    -1.9207770
  H        4.8944640    -1.4825890    -0.9952280
  H        5.3329890    -0.5734720     0.4595320
  H        4.4581780    -2.1030590     0.5999660
  H       -2.9412840    -1.6093450     2.2217140
  H       -4.5604750    -0.4701320    -1.5992930
  H       -4.7020430    -1.8337400     0.4769600
units angstrom
no_reorient  #important for SAPT in psi4, default
symmetry c1  #important for SAPT in psi4, default
}

set PROPERTIES_ORIGIN ["COM"]
properties('MP2/aug-cc-pvtz', properties = ['dipole'])
--------------------------------------------------------------------------

    Molecular point group: c1
  Charge       = 0
  Multiplicity = 1
  Basis Set: AUG-CC-PVTZ
    Blend: AUG-CC-PVTZ
  Basis Set: (AUG-CC-PVTZ AUX)
    Blend: AUG-CC-PVTZ-JKFIT

    Orbital Energies [Eh]
    ---------------------

    Doubly Occupied:

       1A    -11.246287     2A    -11.238410     3A    -11.237172
       4A    -11.235830     5A    -11.235097     6A    -11.233134
       7A    -11.231820     8A    -11.231260     9A    -11.230859
      10A    -11.229952    11A    -11.229204    12A    -11.228765
      13A    -11.228724    14A    -11.223011    15A     -1.159341
      16A     -1.143842    17A     -1.073810    18A     -1.021617
      19A     -1.013774    20A     -1.008180    21A     -0.955870
      22A     -0.896698    23A     -0.827489    24A     -0.822121
      25A     -0.803208    26A     -0.773737    27A     -0.694614
      28A     -0.668291    29A     -0.648380    30A     -0.638130
      31A     -0.628310    32A     -0.614582    33A     -0.585825
      34A     -0.578753    35A     -0.575420    36A     -0.568575
      37A     -0.559904    38A     -0.549077    39A     -0.528041
      40A     -0.504235    41A     -0.493600    42A     -0.487610
      43A     -0.477800    44A     -0.473183    45A     -0.468755
      46A     -0.340067    47A     -0.333643    48A     -0.326347
      49A     -0.305719

  @DF-RHF Final Energy:  -538.49049464545760

   => Energetics <=

    Nuclear Repulsion Energy =            785.2240618343304277
    One-Electron Energy =               -2285.8129663435079237
    Two-Electron Energy =                 962.0984098637200077
    Total Energy =                       -538.4904946454576020
  Basis Set: (AUG-CC-PVTZ AUX)
    Blend: AUG-CC-PVTZ-RI
    Molecular point group: c1

    Geometry (in Angstrom), charge = 0, multiplicity = 1:

       Center              X                  Y                   Z               Mass
    ------------   -----------------  -----------------  -----------------  -----------------
         C           -0.550536335108     1.596032356678    -0.218801998451    12.000000000000
         C            0.783652664892     0.888883356678    -0.155913998451    12.000000000000
         C           -1.707440335108     0.640242356678    -0.034645998451    12.000000000000
         C            1.755698664892     1.243409356678     0.784600001549    12.000000000000
         C            1.073202664892    -0.149641643322    -1.052330998451    12.000000000000
         C            3.277738664892    -0.453566643322    -0.065898998451    12.000000000000
         C            2.983680664892     0.578849356678     0.830774001549    12.000000000000
         C            2.299625664892    -0.808069643322    -1.006639998451    12.000000000000
         C           -1.794245335108    -0.137267643322     1.129239001549    12.000000000000
         C           -2.737289135108     0.500194856678    -1.044342398451    12.000000000000
         C            4.585682664892    -1.198223643322     0.004799001549    12.000000000000
         C           -2.854691335108    -1.022709643322     1.315336001549    12.000000000000
         C           -3.764584335108    -0.384445643322    -0.828250998451    12.000000000000
         C           -3.844376335108    -1.149437643322     0.335675001549    12.000000000000
         H           -0.656855335108     2.111062356678    -1.182634998451     1.007825032230
         H           -0.583352335108     2.375194356678     0.554091001549     1.007825032230
         H            1.553440664892     2.050286356678     1.487927001549     1.007825032230
         H            0.324075664892    -0.448424643322    -1.784439998451     1.007825032230
         H            3.726170664892     0.874489356678     1.570837001549     1.007825032230
         H            2.505591664892    -1.608268643322    -1.716547998451     1.007825032230
         H           -1.016290335108    -0.051814643322     1.886493001549     1.007825032230
         H           -2.645709335108     1.102650356678    -1.918257998451     1.007825032230
         H            4.926407664892    -1.490987643322    -0.992708998451     1.007825032230
         H            5.364932664892    -0.581870643322     0.462051001549     1.007825032230
         H            4.490121664892    -2.111457643322     0.602485001549     1.007825032230
         H           -2.909340335108    -1.617743643322     2.224233001549     1.007825032230
         H           -4.528531335108    -0.478530643322    -1.596773998451     1.007825032230
         H           -4.670099335108    -1.842138643322     0.479479001549     1.007825032230

  Basis Set: AUG-CC-PVTZ
    Blend: AUG-CC-PVTZ
  Basis Set: (AUG-CC-PVTZ AUX)
    Blend: AUG-CC-PVTZ-JKFIT
	 Reference Energy          =    -538.4904946454576020 [Eh]
	 Singles Energy            =      -0.0000000000000000 [Eh]
	 Same-Spin Energy          =      -0.6082304527836200 [Eh]
	 Opposite-Spin Energy      =      -1.9349542918631557 [Eh]
	 Correlation Energy        =      -2.5431847446467755 [Eh]
	 Total Energy              =    -541.0336793901043393 [Eh]

	 ================> DF-SCS-MP2 Energies <==================
	-----------------------------------------------------------
	 SCS Same-Spin Scale       =       0.3333333333333333 [-]
	 SCS Opposite-Spin Scale   =       1.2000000000000000 [-]
	 SCS Same-Spin Energy      =      -0.2027434842612066 [Eh]
	 SCS Opposite-Spin Energy  =      -2.3219451502357868 [Eh]
	 SCS Correlation Energy    =      -2.5246886344969934 [Eh]
	 SCS Total Energy          =    -541.0151832799546128 [Eh]
	-----------------------------------------------------------

  Dipole Moment: [D]
     X:     0.3771      Y:    -0.1138      Z:     0.0059     Total:     0.3940

*** Psi4 exiting successfully. Buy a developer a beer!
