                               Psi4 1.4a3.dev225

  ==> Input File <==

--------------------------------------------------------------------------
#psi4
#
memory 32 gb

molecule  {
0 1
  C       -0.5824800     1.6044310    -0.2213210
  C        0.7517090     0.8972820    -0.1584330
  C       -1.7393840     0.6486410    -0.0371650
  C        1.7237550     1.2518080     0.7820810
  C        1.0412590    -0.1412430    -1.0548500
  C        3.2457950    -0.4451680    -0.0684180
  C        2.9517370     0.5872480     0.8282550
  C        2.2676820    -0.7996710    -1.0091590
  C       -1.8261890    -0.1288690     1.1267200
  C       -2.7336970     0.5134260    -1.0120210
  C        4.5537390    -1.1898250     0.0022800
  C       -2.8485984    -0.9825515     1.3061420
  C       -3.7965280    -0.3760470    -0.8307700
  C       -3.8763200    -1.1410390     0.3331560
  H       -0.6887990     2.1194610    -1.1851540
  H       -0.6152960     2.3835930     0.5515720
  H        1.5214970     2.0586850     1.4854080
  H        0.2921320    -0.4400260    -1.7869590
  H        3.6942270     0.8828880     1.5683180
  H        2.4736480    -1.5998700    -1.7190670
  H       -1.0482340    -0.0434160     1.8839740
  H       -2.6776530     1.1110490    -1.9207770
  H        4.8944640    -1.4825890    -0.9952280
  H        5.3329890    -0.5734720     0.4595320
  H        4.4581780    -2.1030590     0.5999660
  H       -2.9412840    -1.6093450     2.2217140
  H       -4.5604750    -0.4701320    -1.5992930
  H       -4.7020430    -1.8337400     0.4769600
units angstrom
no_reorient  #important for SAPT in psi4, default
symmetry c1  #important for SAPT in psi4, default
}

set PROPERTIES_ORIGIN ["COM"]
properties('MP2/aug-cc-pvtz', properties = ['dipole'])
--------------------------------------------------------------------------

    Molecular point group: c1
  Charge       = 0
  Multiplicity = 1
  Basis Set: AUG-CC-PVTZ
    Blend: AUG-CC-PVTZ
  Basis Set: (AUG-CC-PVTZ AUX)
    Blend: AUG-CC-PVTZ-JKFIT

    Orbital Energies [Eh]
    ---------------------

    Doubly Occupied:

       1A    -11.241509     2A    -11.238549     3A    -11.237067
       4A    -11.235388     5A    -11.234888     6A    -11.233810
       7A    -11.232846     8A    -11.231368     9A    -11.230530
      10A    -11.230034    11A    -11.229305    12A    -11.228807
      13A    -11.223794    14A    -11.223085    15A     -1.161983
      16A     -1.146736    17A     -1.073303    18A     -1.022323
      19A     -1.016079    20A     -1.008284    21A     -0.956771
      22A     -0.896578    23A     -0.827523    24A     -0.819094
      25A     -0.805282    26A     -0.775171    27A     -0.693798
      28A     -0.668181    29A     -0.648775    30A     -0.636034
      31A     -0.627415    32A     -0.615462    33A     -0.584062
      34A     -0.578888    35A     -0.574872    36A     -0.567937
      37A     -0.560093    38A     -0.548931    39A     -0.528738
      40A     -0.505874    41A     -0.493057    42A     -0.485292
      43A     -0.477857    44A     -0.472553    45A     -0.470835
      46A     -0.341857    47A     -0.334336    48A     -0.327227
      49A     -0.307046

  @DF-RHF Final Energy:  -538.49089183548767

   => Energetics <=

    Nuclear Repulsion Energy =            786.6679522733553540
    One-Electron Energy =               -2288.6992352586958077
    Two-Electron Energy =                 963.5403911498528942
    Total Energy =                       -538.4908918354876732
  Basis Set: (AUG-CC-PVTZ AUX)
    Blend: AUG-CC-PVTZ-RI
    Molecular point group: c1

    Geometry (in Angstrom), charge = 0, multiplicity = 1:

       Center              X                  Y                   Z               Mass
    ------------   -----------------  -----------------  -----------------  -----------------
         C           -0.555384344439     1.593621148705    -0.220657940652    12.000000000000
         C            0.778804655561     0.886472148705    -0.157769940652    12.000000000000
         C           -1.712288344439     0.637831148705    -0.036501940652    12.000000000000
         C            1.750850655561     1.240998148705     0.782744059348    12.000000000000
         C            1.068354655561    -0.152052851295    -1.054186940652    12.000000000000
         C            3.272890655561    -0.455977851295    -0.067754940652    12.000000000000
         C            2.978832655561     0.576438148705     0.828918059348    12.000000000000
         C            2.294777655561    -0.810480851295    -1.008495940652    12.000000000000
         C           -1.799093344439    -0.139678851295     1.127383059348    12.000000000000
         C           -2.706601344439     0.502616148705    -1.011357940652    12.000000000000
         C            4.580834655561    -1.200634851295     0.002943059348    12.000000000000
         C           -2.821502744439    -0.993361351295     1.306805059348    12.000000000000
         C           -3.769432344439    -0.386856851295    -0.830106940652    12.000000000000
         C           -3.849224344439    -1.151848851295     0.333819059348    12.000000000000
         H           -0.661703344439     2.108651148705    -1.184490940652     1.007825032230
         H           -0.588200344439     2.372783148705     0.552235059348     1.007825032230
         H            1.548592655561     2.047875148705     1.486071059348     1.007825032230
         H            0.319227655561    -0.450835851295    -1.786295940652     1.007825032230
         H            3.721322655561     0.872078148705     1.568981059348     1.007825032230
         H            2.500743655561    -1.610679851295    -1.718403940652     1.007825032230
         H           -1.021138344439    -0.054225851295     1.884637059348     1.007825032230
         H           -2.650557344439     1.100239148705    -1.920113940652     1.007825032230
         H            4.921559655561    -1.493398851295    -0.994564940652     1.007825032230
         H            5.360084655561    -0.584281851295     0.460195059348     1.007825032230
         H            4.485273655561    -2.113868851295     0.600629059348     1.007825032230
         H           -2.914188344439    -1.620154851295     2.222377059348     1.007825032230
         H           -4.533379344439    -0.480941851295    -1.598629940652     1.007825032230
         H           -4.674947344439    -1.844549851295     0.477623059348     1.007825032230

  Basis Set: AUG-CC-PVTZ
    Blend: AUG-CC-PVTZ
  Basis Set: (AUG-CC-PVTZ AUX)
    Blend: AUG-CC-PVTZ-JKFIT
	 Reference Energy          =    -538.4908918354876732 [Eh]
	 Singles Energy            =      -0.0000000000000000 [Eh]
	 Same-Spin Energy          =      -0.6080876045023836 [Eh]
	 Opposite-Spin Energy      =      -1.9346920181741969 [Eh]
	 Correlation Energy        =      -2.5427796226765804 [Eh]
	 Total Energy              =    -541.0336714581642354 [Eh]

	 ================> DF-SCS-MP2 Energies <==================
	-----------------------------------------------------------
	 SCS Same-Spin Scale       =       0.3333333333333333 [-]
	 SCS Opposite-Spin Scale   =       1.2000000000000000 [-]
	 SCS Same-Spin Energy      =      -0.2026958681674612 [Eh]
	 SCS Opposite-Spin Energy  =      -2.3216304218090360 [Eh]
	 SCS Correlation Energy    =      -2.5243262899764973 [Eh]
	 SCS Total Energy          =    -541.0152181254641164 [Eh]
	-----------------------------------------------------------

  Dipole Moment: [D]
     X:     0.3612      Y:    -0.1252      Z:    -0.0044     Total:     0.3823

*** Psi4 exiting successfully. Buy a developer a beer!
