                               Psi4 1.4a3.dev225

  ==> Input File <==

--------------------------------------------------------------------------
#psi4
#
memory 32 gb

molecule  {
0 1
  C       -0.5824800     1.6044310    -0.2213210
  C        0.7517090     0.8972820    -0.1584330
  C       -1.7393840     0.6486410    -0.0371650
  C        1.7237550     1.2518080     0.7820810
  C        1.0412590    -0.1412430    -1.0548500
  C        3.2457950    -0.4451680    -0.0684180
  C        2.9517370     0.5872480     0.8282550
  C        2.2676820    -0.7996710    -1.0091590
  C       -1.8261890    -0.1288690     1.1267200
  C       -2.7336970     0.5134260    -1.0120210
  C        4.5537390    -1.1898250     0.0022800
  C       -2.8866350    -1.0143110     1.3128170
  C       -3.7965280    -0.3760470    -0.8307700
  C       -3.8791797    -1.1684561     0.3748708
  H       -0.6887990     2.1194610    -1.1851540
  H       -0.6152960     2.3835930     0.5515720
  H        1.5214970     2.0586850     1.4854080
  H        0.2921320    -0.4400260    -1.7869590
  H        3.6942270     0.8828880     1.5683180
  H        2.4736480    -1.5998700    -1.7190670
  H       -1.0482340    -0.0434160     1.8839740
  H       -2.6776530     1.1110490    -1.9207770
  H        4.8944640    -1.4825890    -0.9952280
  H        5.3329890    -0.5734720     0.4595320
  H        4.4581780    -2.1030590     0.5999660
  H       -2.9412840    -1.6093450     2.2217140
  H       -4.5604750    -0.4701320    -1.5992930
  H       -4.7020430    -1.8337400     0.4769600
units angstrom
no_reorient  #important for SAPT in psi4, default
symmetry c1  #important for SAPT in psi4, default
}

set PROPERTIES_ORIGIN ["COM"]
properties('MP2/aug-cc-pvtz', properties = ['dipole'])
--------------------------------------------------------------------------

    Molecular point group: c1
  Charge       = 0
  Multiplicity = 1
  Basis Set: AUG-CC-PVTZ
    Blend: AUG-CC-PVTZ
  Basis Set: (AUG-CC-PVTZ AUX)
    Blend: AUG-CC-PVTZ-JKFIT

    Orbital Energies [Eh]
    ---------------------

    Doubly Occupied:

       1A    -11.241627     2A    -11.240251     3A    -11.238373
       4A    -11.237057     5A    -11.235449     6A    -11.232806
       7A    -11.231787     8A    -11.231488     9A    -11.231201
      10A    -11.229937    11A    -11.229166    12A    -11.229136
      13A    -11.228709    14A    -11.222977    15A     -1.160101
      16A     -1.144016    17A     -1.073325    18A     -1.024846
      19A     -1.008212    20A     -1.007912    21A     -0.957377
      22A     -0.896910    23A     -0.828232    24A     -0.821331
      25A     -0.803696    26A     -0.774940    27A     -0.694668
      28A     -0.668203    29A     -0.648260    30A     -0.636842
      31A     -0.628464    32A     -0.617035    33A     -0.581654
      34A     -0.578618    35A     -0.575558    36A     -0.570350
      37A     -0.559801    38A     -0.548768    39A     -0.529259
      40A     -0.505109    41A     -0.491242    42A     -0.486078
      43A     -0.476930    44A     -0.474002    45A     -0.471018
      46A     -0.337101    47A     -0.335158    48A     -0.328073
      49A     -0.305757

  @DF-RHF Final Energy:  -538.49052766750492

   => Energetics <=

    Nuclear Repulsion Energy =            785.4995190821890674
    One-Electron Energy =               -2286.3624641807109583
    Two-Electron Energy =                 962.3724174310168564
    Total Energy =                       -538.4905276675049208
  Basis Set: (AUG-CC-PVTZ AUX)
    Blend: AUG-CC-PVTZ-RI
    Molecular point group: c1

    Geometry (in Angstrom), charge = 0, multiplicity = 1:

       Center              X                  Y                   Z               Mass
    ------------   -----------------  -----------------  -----------------  -----------------
         C           -0.552689507190     1.597520555399    -0.223846557606    12.000000000000
         C            0.781499492810     0.890371555399    -0.160958557606    12.000000000000
         C           -1.709593507190     0.641730555399    -0.039690557606    12.000000000000
         C            1.753545492810     1.244897555399     0.779555442394    12.000000000000
         C            1.071049492810    -0.148153444601    -1.057375557606    12.000000000000
         C            3.275585492810    -0.452078444601    -0.070943557606    12.000000000000
         C            2.981527492810     0.580337555399     0.825729442394    12.000000000000
         C            2.297472492810    -0.806581444601    -1.011684557606    12.000000000000
         C           -1.796398507190    -0.135779444601     1.124194442394    12.000000000000
         C           -2.703906507190     0.506515555399    -1.014546557606    12.000000000000
         C            4.583529492810    -1.196735444601    -0.000245557606    12.000000000000
         C           -2.856844507190    -1.021221444601     1.310291442394    12.000000000000
         C           -3.766737507190    -0.382957444601    -0.833295557606    12.000000000000
         C           -3.849389207190    -1.175366544601     0.372345242394    12.000000000000
         H           -0.659008507190     2.112550555399    -1.187679557606     1.007825032230
         H           -0.585505507190     2.376682555399     0.549046442394     1.007825032230
         H            1.551287492810     2.051774555399     1.482882442394     1.007825032230
         H            0.321922492810    -0.446936444601    -1.789484557606     1.007825032230
         H            3.724017492810     0.875977555399     1.565792442394     1.007825032230
         H            2.503438492810    -1.606780444601    -1.721592557606     1.007825032230
         H           -1.018443507190    -0.050326444601     1.881448442394     1.007825032230
         H           -2.647862507190     1.104138555399    -1.923302557606     1.007825032230
         H            4.924254492810    -1.489499444601    -0.997753557606     1.007825032230
         H            5.362779492810    -0.580382444601     0.457006442394     1.007825032230
         H            4.487968492810    -2.109969444601     0.597440442394     1.007825032230
         H           -2.911493507190    -1.616255444601     2.219188442394     1.007825032230
         H           -4.530684507190    -0.477042444601    -1.601818557606     1.007825032230
         H           -4.672252507190    -1.840650444601     0.474434442394     1.007825032230

  Basis Set: AUG-CC-PVTZ
    Blend: AUG-CC-PVTZ
  Basis Set: (AUG-CC-PVTZ AUX)
    Blend: AUG-CC-PVTZ-JKFIT
	 Reference Energy          =    -538.4905276675049208 [Eh]
	 Singles Energy            =      -0.0000000000000000 [Eh]
	 Same-Spin Energy          =      -0.6082132052760161 [Eh]
	 Opposite-Spin Energy      =      -1.9350448364987791 [Eh]
	 Correlation Energy        =      -2.5432580417747950 [Eh]
	 Total Energy              =    -541.0337857092797549 [Eh]

	 ================> DF-SCS-MP2 Energies <==================
	-----------------------------------------------------------
	 SCS Same-Spin Scale       =       0.3333333333333333 [-]
	 SCS Opposite-Spin Scale   =       1.2000000000000000 [-]
	 SCS Same-Spin Energy      =      -0.2027377350920054 [Eh]
	 SCS Opposite-Spin Energy  =      -2.3220538037985348 [Eh]
	 SCS Correlation Energy    =      -2.5247915388905402 [Eh]
	 SCS Total Energy          =    -541.0153192063954748 [Eh]
	-----------------------------------------------------------

  Dipole Moment: [D]
     X:     0.3568      Y:    -0.1302      Z:     0.0019     Total:     0.3798

*** Psi4 exiting successfully. Buy a developer a beer!
