                               Psi4 1.4a3.dev225

  ==> Input File <==

--------------------------------------------------------------------------
#psi4
#
memory 32 gb

molecule  {
0 1
  C       -0.5824800     1.6044310    -0.2213210
  C        0.7517090     0.8972820    -0.1584330
  C       -1.7393840     0.6486410    -0.0371650
  C        1.5847184     1.2010984     0.6475546
  C        1.0412590    -0.1412430    -1.0548500
  C        3.2457950    -0.4451680    -0.0684180
  C        2.9517370     0.5872480     0.8282550
  C        2.2676820    -0.7996710    -1.0091590
  C       -1.8261890    -0.1288690     1.1267200
  C       -2.7336970     0.5134260    -1.0120210
  C        4.5537390    -1.1898250     0.0022800
  C       -2.8866350    -1.0143110     1.3128170
  C       -3.7965280    -0.3760470    -0.8307700
  C       -3.8763200    -1.1410390     0.3331560
  H       -0.6887990     2.1194610    -1.1851540
  H       -0.6152960     2.3835930     0.5515720
  H        1.5214970     2.0586850     1.4854080
  H        0.2921320    -0.4400260    -1.7869590
  H        3.6942270     0.8828880     1.5683180
  H        2.4736480    -1.5998700    -1.7190670
  H       -1.0482340    -0.0434160     1.8839740
  H       -2.6776530     1.1110490    -1.9207770
  H        4.8944640    -1.4825890    -0.9952280
  H        5.3329890    -0.5734720     0.4595320
  H        4.4581780    -2.1030590     0.5999660
  H       -2.9412840    -1.6093450     2.2217140
  H       -4.5604750    -0.4701320    -1.5992930
  H       -4.7020430    -1.8337400     0.4769600
units angstrom
no_reorient  #important for SAPT in psi4, default
symmetry c1  #important for SAPT in psi4, default
}

set PROPERTIES_ORIGIN ["COM"]
properties('MP2/aug-cc-pvtz', properties = ['dipole'])
--------------------------------------------------------------------------

    Molecular point group: c1
  Charge       = 0
  Multiplicity = 1
  Basis Set: AUG-CC-PVTZ
    Blend: AUG-CC-PVTZ
  Basis Set: (AUG-CC-PVTZ AUX)
    Blend: AUG-CC-PVTZ-JKFIT

    Orbital Energies [Eh]
    ---------------------

    Doubly Occupied:

       1A    -11.240855     2A    -11.239106     3A    -11.236135
       4A    -11.235342     5A    -11.234938     6A    -11.234023
       7A    -11.233192     8A    -11.231833     9A    -11.231624
      10A    -11.229806    11A    -11.229639    12A    -11.224558
      13A    -11.222995    14A    -11.209571    15A     -1.176375
      16A     -1.148524    17A     -1.083181    18A     -1.032765
      19A     -1.010508    20A     -0.997763    21A     -0.953252
      22A     -0.906972    23A     -0.838741    24A     -0.824113
      25A     -0.798706    26A     -0.766015    27A     -0.694643
      28A     -0.668667    29A     -0.651376    30A     -0.635583
      31A     -0.624864    32A     -0.619608    33A     -0.583650
      34A     -0.577258    35A     -0.571264    36A     -0.566541
      37A     -0.561965    38A     -0.547964    39A     -0.531233
      40A     -0.506611    41A     -0.496444    42A     -0.490144
      43A     -0.483193    44A     -0.476735    45A     -0.439490
      46A     -0.350945    47A     -0.334549    48A     -0.328598
      49A     -0.310297

  @DF-RHF Final Energy:  -538.43334226759362

   => Energetics <=

    Nuclear Repulsion Energy =            789.2223896147545474
    One-Electron Energy =               -2293.6671533442495274
    Two-Electron Energy =                 966.0114214619013637
    Total Energy =                       -538.4333422675936163
  Basis Set: (AUG-CC-PVTZ AUX)
    Blend: AUG-CC-PVTZ-RI
    Molecular point group: c1

    Geometry (in Angstrom), charge = 0, multiplicity = 1:

       Center              X                  Y                   Z               Mass
    ------------   -----------------  -----------------  -----------------  -----------------
         C           -0.543716211743     1.599055400767    -0.212233249052    12.000000000000
         C            0.790472788257     0.891906400767    -0.149345249052    12.000000000000
         C           -1.700620211743     0.643265400767    -0.028077249052    12.000000000000
         C            1.623482188257     1.195722800767     0.656642350948    12.000000000000
         C            1.080022788257    -0.146618599233    -1.045762249052    12.000000000000
         C            3.284558788257    -0.450543599233    -0.059330249052    12.000000000000
         C            2.990500788257     0.581872400767     0.837342750948    12.000000000000
         C            2.306445788257    -0.805046599233    -1.000071249052    12.000000000000
         C           -1.787425211743    -0.134244599233     1.135807750948    12.000000000000
         C           -2.694933211743     0.508050400767    -1.002933249052    12.000000000000
         C            4.592502788257    -1.195200599233     0.011367750948    12.000000000000
         C           -2.847871211743    -1.019686599233     1.321904750948    12.000000000000
         C           -3.757764211743    -0.381422599233    -0.821682249052    12.000000000000
         C           -3.837556211743    -1.146414599233     0.342243750948    12.000000000000
         H           -0.650035211743     2.114085400767    -1.176066249052     1.007825032230
         H           -0.576532211743     2.378217400767     0.560659750948     1.007825032230
         H            1.560260788257     2.053309400767     1.494495750948     1.007825032230
         H            0.330895788257    -0.445401599233    -1.777871249052     1.007825032230
         H            3.732990788257     0.877512400767     1.577405750948     1.007825032230
         H            2.512411788257    -1.605245599233    -1.709979249052     1.007825032230
         H           -1.009470211743    -0.048791599233     1.893061750948     1.007825032230
         H           -2.638889211743     1.105673400767    -1.911689249052     1.007825032230
         H            4.933227788257    -1.487964599233    -0.986140249052     1.007825032230
         H            5.371752788257    -0.578847599233     0.468619750948     1.007825032230
         H            4.496941788257    -2.108434599233     0.609053750948     1.007825032230
         H           -2.902520211743    -1.614720599233     2.230801750948     1.007825032230
         H           -4.521711211743    -0.475507599233    -1.590205249052     1.007825032230
         H           -4.663279211743    -1.839115599233     0.486047750948     1.007825032230

  Basis Set: AUG-CC-PVTZ
    Blend: AUG-CC-PVTZ
  Basis Set: (AUG-CC-PVTZ AUX)
    Blend: AUG-CC-PVTZ-JKFIT
	 Reference Energy          =    -538.4333422675936163 [Eh]
	 Singles Energy            =      -0.0000000000000000 [Eh]
	 Same-Spin Energy          =      -0.6071813226909442 [Eh]
	 Opposite-Spin Energy      =      -1.9360086250899720 [Eh]
	 Correlation Energy        =      -2.5431899477809159 [Eh]
	 Total Energy              =    -540.9765322153745046 [Eh]

	 ================> DF-SCS-MP2 Energies <==================
	-----------------------------------------------------------
	 SCS Same-Spin Scale       =       0.3333333333333333 [-]
	 SCS Opposite-Spin Scale   =       1.2000000000000000 [-]
	 SCS Same-Spin Energy      =      -0.2023937742303147 [Eh]
	 SCS Opposite-Spin Energy  =      -2.3232103501079662 [Eh]
	 SCS Correlation Energy    =      -2.5256041243382810 [Eh]
	 SCS Total Energy          =    -540.9589463919319314 [Eh]
	-----------------------------------------------------------

  Dipole Moment: [D]
     X:     0.4104      Y:    -0.2221      Z:    -0.0300     Total:     0.4676

*** Psi4 exiting successfully. Buy a developer a beer!
