                               Psi4 1.4a3.dev225

  ==> Input File <==

--------------------------------------------------------------------------
#psi4
#
memory 32 gb

molecule  {
0 1
  C       -0.5824800     1.6044310    -0.2213210
  C        0.7517090     0.8972820    -0.1584330
  C       -1.7393840     0.6486410    -0.0371650
  C        1.7237550     1.2518080     0.7820810
  C        1.0412590    -0.1412430    -1.0548500
  C        3.2457950    -0.4451680    -0.0684180
  C        2.9517370     0.5872480     0.8282550
  C        2.2676820    -0.7996710    -1.0091590
  C       -1.8261890    -0.1288690     1.1267200
  C       -2.7336970     0.5134260    -1.0120210
  C        4.5537390    -1.1898250     0.0022800
  C       -2.8866350    -1.0143110     1.3128170
  C       -3.7204877    -0.3124096    -0.8437376
  C       -3.8763200    -1.1410390     0.3331560
  H       -0.6887990     2.1194610    -1.1851540
  H       -0.6152960     2.3835930     0.5515720
  H        1.5214970     2.0586850     1.4854080
  H        0.2921320    -0.4400260    -1.7869590
  H        3.6942270     0.8828880     1.5683180
  H        2.4736480    -1.5998700    -1.7190670
  H       -1.0482340    -0.0434160     1.8839740
  H       -2.6776530     1.1110490    -1.9207770
  H        4.8944640    -1.4825890    -0.9952280
  H        5.3329890    -0.5734720     0.4595320
  H        4.4581780    -2.1030590     0.5999660
  H       -2.9412840    -1.6093450     2.2217140
  H       -4.5604750    -0.4701320    -1.5992930
  H       -4.7020430    -1.8337400     0.4769600
units angstrom
no_reorient  #important for SAPT in psi4, default
symmetry c1  #important for SAPT in psi4, default
}

set PROPERTIES_ORIGIN ["COM"]
properties('MP2/aug-cc-pvtz', properties = ['dipole'])
--------------------------------------------------------------------------

    Molecular point group: c1
  Charge       = 0
  Multiplicity = 1
  Basis Set: AUG-CC-PVTZ
    Blend: AUG-CC-PVTZ
  Basis Set: (AUG-CC-PVTZ AUX)
    Blend: AUG-CC-PVTZ-JKFIT

    Orbital Energies [Eh]
    ---------------------

    Doubly Occupied:

       1A    -11.241575     2A    -11.238357     3A    -11.237132
       4A    -11.235876     5A    -11.235374     6A    -11.233745
       7A    -11.232929     8A    -11.231161     9A    -11.230040
      10A    -11.229184    11A    -11.228809    12A    -11.227707
      13A    -11.222994    14A    -11.220151    15A     -1.163841
      16A     -1.148393    17A     -1.072947    18A     -1.025174
      19A     -1.018346    20A     -1.008228    21A     -0.955275
      22A     -0.897375    23A     -0.827578    24A     -0.814711
      25A     -0.807996    26A     -0.774842    27A     -0.694473
      28A     -0.668141    29A     -0.649364    30A     -0.635323
      31A     -0.626148    32A     -0.617695    33A     -0.585849
      34A     -0.578781    35A     -0.574686    36A     -0.565821
      37A     -0.560299    38A     -0.548326    39A     -0.527709
      40A     -0.507928    41A     -0.495885    42A     -0.481721
      43A     -0.478117    44A     -0.473542    45A     -0.465512
      46A     -0.348313    47A     -0.334676    48A     -0.326071
      49A     -0.303777

  @DF-RHF Final Energy:  -538.48002488308180

   => Energetics <=

    Nuclear Repulsion Energy =            787.3012594282234886
    One-Electron Energy =               -2289.9467736262517974
    Two-Electron Energy =                 964.1654893149463987
    Total Energy =                       -538.4800248830817964
  Basis Set: (AUG-CC-PVTZ AUX)
    Blend: AUG-CC-PVTZ-RI
    Molecular point group: c1

    Geometry (in Angstrom), charge = 0, multiplicity = 1:

       Center              X                  Y                   Z               Mass
    ------------   -----------------  -----------------  -----------------  -----------------
         C           -0.557888575540     1.591520573535    -0.220243293536    12.000000000000
         C            0.776300424460     0.884371573535    -0.157355293536    12.000000000000
         C           -1.714792575540     0.635730573535    -0.036087293536    12.000000000000
         C            1.748346424460     1.238897573535     0.783158706464    12.000000000000
         C            1.065850424460    -0.154153426465    -1.053772293536    12.000000000000
         C            3.270386424460    -0.458078426465    -0.067340293536    12.000000000000
         C            2.976328424460     0.574337573535     0.829332706464    12.000000000000
         C            2.292273424460    -0.812581426465    -1.008081293536    12.000000000000
         C           -1.801597575540    -0.141779426465     1.127797706464    12.000000000000
         C           -2.709105575540     0.500515573535    -1.010943293536    12.000000000000
         C            4.578330424460    -1.202735426465     0.003357706464    12.000000000000
         C           -2.862043575540    -1.027221426465     1.313894706464    12.000000000000
         C           -3.695896275540    -0.325320026465    -0.842659893536    12.000000000000
         C           -3.851728575540    -1.153949426465     0.334233706464    12.000000000000
         H           -0.664207575540     2.106550573535    -1.184076293536     1.007825032230
         H           -0.590704575540     2.370682573535     0.552649706464     1.007825032230
         H            1.546088424460     2.045774573535     1.486485706464     1.007825032230
         H            0.316723424460    -0.452936426465    -1.785881293536     1.007825032230
         H            3.718818424460     0.869977573535     1.569395706464     1.007825032230
         H            2.498239424460    -1.612780426465    -1.717989293536     1.007825032230
         H           -1.023642575540    -0.056326426465     1.885051706464     1.007825032230
         H           -2.653061575540     1.098138573535    -1.919699293536     1.007825032230
         H            4.919055424460    -1.495499426465    -0.994150293536     1.007825032230
         H            5.357580424460    -0.586382426465     0.460609706464     1.007825032230
         H            4.482769424460    -2.115969426465     0.601043706464     1.007825032230
         H           -2.916692575540    -1.622255426465     2.222791706464     1.007825032230
         H           -4.535883575540    -0.483042426465    -1.598215293536     1.007825032230
         H           -4.677451575540    -1.846650426465     0.478037706464     1.007825032230

  Basis Set: AUG-CC-PVTZ
    Blend: AUG-CC-PVTZ
  Basis Set: (AUG-CC-PVTZ AUX)
    Blend: AUG-CC-PVTZ-JKFIT
	 Reference Energy          =    -538.4800248830817964 [Eh]
	 Singles Energy            =      -0.0000000000000000 [Eh]
	 Same-Spin Energy          =      -0.6082827309556491 [Eh]
	 Opposite-Spin Energy      =      -1.9351883547468614 [Eh]
	 Correlation Energy        =      -2.5434710857025102 [Eh]
	 Total Energy              =    -541.0234959687843457 [Eh]

	 ================> DF-SCS-MP2 Energies <==================
	-----------------------------------------------------------
	 SCS Same-Spin Scale       =       0.3333333333333333 [-]
	 SCS Opposite-Spin Scale   =       1.2000000000000000 [-]
	 SCS Same-Spin Energy      =      -0.2027609103185497 [Eh]
	 SCS Opposite-Spin Energy  =      -2.3222260256962337 [Eh]
	 SCS Correlation Energy    =      -2.5249869360147832 [Eh]
	 SCS Total Energy          =    -541.0050118190965804 [Eh]
	-----------------------------------------------------------

  Dipole Moment: [D]
     X:     0.3677      Y:    -0.1342      Z:     0.0407     Total:     0.3935

*** Psi4 exiting successfully. Buy a developer a beer!
