                               Psi4 1.4a3.dev225

  ==> Input File <==

--------------------------------------------------------------------------
#psi4
#
memory 32 gb

molecule  {
0 1
  C       -0.5824800     1.6044310    -0.2213210
  C        0.7517090     0.8972820    -0.1584330
  C       -1.7393840     0.6486410    -0.0371650
  C        1.7237550     1.2518080     0.7820810
  C        1.0412590    -0.1412430    -1.0548500
  C        3.2457950    -0.4451680    -0.0684180
  C        2.9517370     0.5872480     0.8282550
  C        2.2676820    -0.7996710    -1.0091590
  C       -1.8261890    -0.1288690     1.1267200
  C       -2.7336970     0.5134260    -1.0120210
  C        4.5537390    -1.1898250     0.0022800
  C       -2.8866350    -1.0143110     1.3128170
  C       -3.7965280    -0.3760470    -0.8307700
  C       -3.8763200    -1.1410390     0.3331560
  H       -0.6887990     2.1194610    -1.1851540
  H       -0.6152960     2.3835930     0.5515720
  H        1.5214970     2.0586850     1.4854080
  H        0.2921320    -0.4400260    -1.7869590
  H        3.6942270     0.8828880     1.5683180
  H        2.4736480    -1.5998700    -1.7190670
  H       -1.0482340    -0.0434160     1.8839740
  H       -2.6673612     1.2207955    -2.0876595
  H        4.8944640    -1.4825890    -0.9952280
  H        5.3329890    -0.5734720     0.4595320
  H        4.4581780    -2.1030590     0.5999660
  H       -2.9412840    -1.6093450     2.2217140
  H       -4.5604750    -0.4701320    -1.5992930
  H       -4.7020430    -1.8337400     0.4769600
units angstrom
no_reorient  #important for SAPT in psi4, default
symmetry c1  #important for SAPT in psi4, default
}

set PROPERTIES_ORIGIN ["COM"]
properties('MP2/aug-cc-pvtz', properties = ['dipole'])
--------------------------------------------------------------------------

    Molecular point group: c1
  Charge       = 0
  Multiplicity = 1
  Basis Set: AUG-CC-PVTZ
    Blend: AUG-CC-PVTZ
  Basis Set: (AUG-CC-PVTZ AUX)
    Blend: AUG-CC-PVTZ-JKFIT

    Orbital Energies [Eh]
    ---------------------

    Doubly Occupied:

       1A    -11.253702     2A    -11.243737     3A    -11.238398
       4A    -11.237529     5A    -11.236889     6A    -11.235947
       7A    -11.235172     8A    -11.233271     9A    -11.231516
      10A    -11.231213    11A    -11.229835    12A    -11.229160
      13A    -11.228606    14A    -11.222999    15A     -1.161010
      16A     -1.145823    17A     -1.074258    18A     -1.024355
      19A     -1.008501    20A     -1.007517    21A     -0.957121
      22A     -0.896092    23A     -0.827702    24A     -0.818541
      25A     -0.801287    26A     -0.774698    27A     -0.687483
      28A     -0.666500    29A     -0.647862    30A     -0.633636
      31A     -0.625439    32A     -0.615884    33A     -0.580088
      34A     -0.578724    35A     -0.573327    36A     -0.564216
      37A     -0.557906    38A     -0.545573    39A     -0.527661
      40A     -0.503528    41A     -0.491910    42A     -0.481324
      43A     -0.477355    44A     -0.473609    45A     -0.469539
      46A     -0.338096    47A     -0.334977    48A     -0.329980
      49A     -0.307854

  @DF-RHF Final Energy:  -538.47176575106892

   => Energetics <=

    Nuclear Repulsion Energy =            785.0362551237801654
    One-Electron Energy =               -2285.4213371071768961
    Two-Electron Energy =                 961.9133162323278157
    Total Energy =                       -538.4717657510689151
  Basis Set: (AUG-CC-PVTZ AUX)
    Blend: AUG-CC-PVTZ-RI
    Molecular point group: c1

    Geometry (in Angstrom), charge = 0, multiplicity = 1:

       Center              X                  Y                   Z               Mass
    ------------   -----------------  -----------------  -----------------  -----------------
         C           -0.552934901974     1.595106566298    -0.220174229827    12.000000000000
         C            0.781254098026     0.887957566298    -0.157286229827    12.000000000000
         C           -1.709838901974     0.639316566298    -0.036018229827    12.000000000000
         C            1.753300098026     1.242483566298     0.783227770173    12.000000000000
         C            1.070804098026    -0.150567433702    -1.053703229827    12.000000000000
         C            3.275340098026    -0.454492433702    -0.067271229827    12.000000000000
         C            2.981282098026     0.577923566298     0.829401770173    12.000000000000
         C            2.297227098026    -0.808995433702    -1.008012229827    12.000000000000
         C           -1.796643901974    -0.138193433702     1.127866770173    12.000000000000
         C           -2.704151901974     0.504101566298    -1.010874229827    12.000000000000
         C            4.583284098026    -1.199149433702     0.003426770173    12.000000000000
         C           -2.857089901974    -1.023635433702     1.313963770173    12.000000000000
         C           -3.766982901974    -0.385371433702    -0.829623229827    12.000000000000
         C           -3.846774901974    -1.150363433702     0.334302770173    12.000000000000
         H           -0.659253901974     2.110136566298    -1.184007229827     1.007825032230
         H           -0.585750901974     2.374268566298     0.552718770173     1.007825032230
         H            1.551042098026     2.049360566298     1.486554770173     1.007825032230
         H            0.321677098026    -0.449350433702    -1.785812229827     1.007825032230
         H            3.723772098026     0.873563566298     1.569464770173     1.007825032230
         H            2.503193098026    -1.609194433702    -1.717920229827     1.007825032230
         H           -1.018688901974    -0.052740433702     1.885120770173     1.007825032230
         H           -2.637816101974     1.211471066298    -2.086512729827     1.007825032230
         H            4.924009098026    -1.491913433702    -0.994081229827     1.007825032230
         H            5.362534098026    -0.582796433702     0.460678770173     1.007825032230
         H            4.487723098026    -2.112383433702     0.601112770173     1.007825032230
         H           -2.911738901974    -1.618669433702     2.222860770173     1.007825032230
         H           -4.530929901974    -0.479456433702    -1.598146229827     1.007825032230
         H           -4.672497901974    -1.843064433702     0.478106770173     1.007825032230

  Basis Set: AUG-CC-PVTZ
    Blend: AUG-CC-PVTZ
  Basis Set: (AUG-CC-PVTZ AUX)
    Blend: AUG-CC-PVTZ-JKFIT
	 Reference Energy          =    -538.4717657510689151 [Eh]
	 Singles Energy            =      -0.0000000000000000 [Eh]
	 Same-Spin Energy          =      -0.6087689467455210 [Eh]
	 Opposite-Spin Energy      =      -1.9369866066868193 [Eh]
	 Correlation Energy        =      -2.5457555534323402 [Eh]
	 Total Energy              =    -541.0175213045012015 [Eh]

	 ================> DF-SCS-MP2 Energies <==================
	-----------------------------------------------------------
	 SCS Same-Spin Scale       =       0.3333333333333333 [-]
	 SCS Opposite-Spin Scale   =       1.2000000000000000 [-]
	 SCS Same-Spin Energy      =      -0.2029229822485070 [Eh]
	 SCS Opposite-Spin Energy  =      -2.3243839280241829 [Eh]
	 SCS Correlation Energy    =      -2.5273069102726899 [Eh]
	 SCS Total Energy          =    -540.9990726613416427 [Eh]
	-----------------------------------------------------------

  Dipole Moment: [D]
     X:     0.3524      Y:    -0.1984      Z:     0.1030     Total:     0.4173

*** Psi4 exiting successfully. Buy a developer a beer!
