                               Psi4 1.4a3.dev225

  ==> Input File <==

--------------------------------------------------------------------------
#psi4
#
memory 32 gb

molecule  {
0 1
  C       -0.5824800     1.6044310    -0.2213210
  C        0.7517090     0.8972820    -0.1584330
  C       -1.7393840     0.6486410    -0.0371650
  C        1.7237550     1.2518080     0.7820810
  C        1.0412590    -0.1412430    -1.0548500
  C        3.2457950    -0.4451680    -0.0684180
  C        2.9517370     0.5872480     0.8282550
  C        2.2676820    -0.7996710    -1.0091590
  C       -1.8261890    -0.1288690     1.1267200
  C       -2.7336970     0.5134260    -1.0120210
  C        4.5537390    -1.1898250     0.0022800
  C       -2.8434994    -0.9478837     1.2557852
  C       -3.7965280    -0.3760470    -0.8307700
  C       -3.8763200    -1.1410390     0.3331560
  H       -0.6887990     2.1194610    -1.1851540
  H       -0.6152960     2.3835930     0.5515720
  H        1.5214970     2.0586850     1.4854080
  H        0.2921320    -0.4400260    -1.7869590
  H        3.6942270     0.8828880     1.5683180
  H        2.4736480    -1.5998700    -1.7190670
  H       -1.0482340    -0.0434160     1.8839740
  H       -2.6776530     1.1110490    -1.9207770
  H        4.8944640    -1.4825890    -0.9952280
  H        5.3329890    -0.5734720     0.4595320
  H        4.4581780    -2.1030590     0.5999660
  H       -2.9412840    -1.6093450     2.2217140
  H       -4.5604750    -0.4701320    -1.5992930
  H       -4.7020430    -1.8337400     0.4769600
units angstrom
no_reorient  #important for SAPT in psi4, default
symmetry c1  #important for SAPT in psi4, default
}

set PROPERTIES_ORIGIN ["COM"]
properties('MP2/aug-cc-pvtz', properties = ['dipole'])
--------------------------------------------------------------------------

    Molecular point group: c1
  Charge       = 0
  Multiplicity = 1
  Basis Set: AUG-CC-PVTZ
    Blend: AUG-CC-PVTZ
  Basis Set: (AUG-CC-PVTZ AUX)
    Blend: AUG-CC-PVTZ-JKFIT

    Orbital Energies [Eh]
    ---------------------

    Doubly Occupied:

       1A    -11.241902     2A    -11.238817     3A    -11.237382
       4A    -11.235361     5A    -11.234983     6A    -11.232333
       7A    -11.231680     8A    -11.230521     9A    -11.230311
      10A    -11.229581    11A    -11.229342    12A    -11.229083
      13A    -11.223260    14A    -11.219656    15A     -1.165559
      16A     -1.149658    17A     -1.074516    18A     -1.023929
      19A     -1.018810    20A     -1.008576    21A     -0.958083
      22A     -0.897815    23A     -0.827933    24A     -0.817357
      25A     -0.805046    26A     -0.775404    27A     -0.695858
      28A     -0.668789    29A     -0.649954    30A     -0.636254
      31A     -0.625989    32A     -0.614018    33A     -0.582293
      34A     -0.579111    35A     -0.574406    36A     -0.567293
      37A     -0.560494    38A     -0.550351    39A     -0.530531
      40A     -0.508827    41A     -0.496283    42A     -0.481666
      43A     -0.478603    44A     -0.473817    45A     -0.462975
      46A     -0.344729    47A     -0.335121    48A     -0.328171
      49A     -0.307629

  @DF-RHF Final Energy:  -538.48178835587930

   => Energetics <=

    Nuclear Repulsion Energy =            787.8693562549361786
    One-Electron Energy =               -2291.0621696973689723
    Two-Electron Energy =                 964.7110250865536045
    Total Energy =                       -538.4817883558793028
  Basis Set: (AUG-CC-PVTZ AUX)
    Blend: AUG-CC-PVTZ-RI
    Molecular point group: c1

    Geometry (in Angstrom), charge = 0, multiplicity = 1:

       Center              X                  Y                   Z               Mass
    ------------   -----------------  -----------------  -----------------  -----------------
         C           -0.555720339997     1.591336734742    -0.217339709409    12.000000000000
         C            0.778468660003     0.884187734742    -0.154451709409    12.000000000000
         C           -1.712624339997     0.635546734742    -0.033183709409    12.000000000000
         C            1.750514660003     1.238713734742     0.786062290591    12.000000000000
         C            1.068018660003    -0.154337265258    -1.050868709409    12.000000000000
         C            3.272554660003    -0.458262265258    -0.064436709409    12.000000000000
         C            2.978496660003     0.574153734742     0.832236290591    12.000000000000
         C            2.294441660003    -0.812765265258    -1.005177709409    12.000000000000
         C           -1.799429339997    -0.141963265258     1.130701290591    12.000000000000
         C           -2.706937339997     0.500331734742    -1.008039709409    12.000000000000
         C            4.580498660003    -1.202919265258     0.006261290591    12.000000000000
         C           -2.816739739997    -0.960977965258     1.259766490591    12.000000000000
         C           -3.769768339997    -0.389141265258    -0.826788709409    12.000000000000
         C           -3.849560339997    -1.154133265258     0.337137290591    12.000000000000
         H           -0.662039339997     2.106366734742    -1.181172709409     1.007825032230
         H           -0.588536339997     2.370498734742     0.555553290591     1.007825032230
         H            1.548256660003     2.045590734742     1.489389290591     1.007825032230
         H            0.318891660003    -0.453120265258    -1.782977709409     1.007825032230
         H            3.720986660003     0.869793734742     1.572299290591     1.007825032230
         H            2.500407660003    -1.612964265258    -1.715085709409     1.007825032230
         H           -1.021474339997    -0.056510265258     1.887955290591     1.007825032230
         H           -2.650893339997     1.097954734742    -1.916795709409     1.007825032230
         H            4.921223660003    -1.495683265258    -0.991246709409     1.007825032230
         H            5.359748660003    -0.586566265258     0.463513290591     1.007825032230
         H            4.484937660003    -2.116153265258     0.603947290591     1.007825032230
         H           -2.914524339997    -1.622439265258     2.225695290591     1.007825032230
         H           -4.533715339997    -0.483226265258    -1.595311709409     1.007825032230
         H           -4.675283339997    -1.846834265258     0.480941290591     1.007825032230

  Basis Set: AUG-CC-PVTZ
    Blend: AUG-CC-PVTZ
  Basis Set: (AUG-CC-PVTZ AUX)
    Blend: AUG-CC-PVTZ-JKFIT
	 Reference Energy          =    -538.4817883558793028 [Eh]
	 Singles Energy            =      -0.0000000000000000 [Eh]
	 Same-Spin Energy          =      -0.6082974145184646 [Eh]
	 Opposite-Spin Energy      =      -1.9348435483937119 [Eh]
	 Correlation Energy        =      -2.5431409629121764 [Eh]
	 Total Energy              =    -541.0249293187914645 [Eh]

	 ================> DF-SCS-MP2 Energies <==================
	-----------------------------------------------------------
	 SCS Same-Spin Scale       =       0.3333333333333333 [-]
	 SCS Opposite-Spin Scale   =       1.2000000000000000 [-]
	 SCS Same-Spin Energy      =      -0.2027658048394882 [Eh]
	 SCS Opposite-Spin Energy  =      -2.3218122580724541 [Eh]
	 SCS Correlation Energy    =      -2.5245780629119423 [Eh]
	 SCS Total Energy          =    -541.0063664187912309 [Eh]
	-----------------------------------------------------------

  Dipole Moment: [D]
     X:     0.3683      Y:    -0.0979      Z:    -0.0516     Total:     0.3845

*** Psi4 exiting successfully. Buy a developer a beer!
