                               Psi4 1.4a3.dev225

  ==> Input File <==

--------------------------------------------------------------------------
#psi4
#
memory 32 gb

molecule  {
0 1
  C       -0.5824800     1.6044310    -0.2213210
  C        0.7517090     0.8972820    -0.1584330
  C       -1.7393840     0.6486410    -0.0371650
  C        1.7237550     1.2518080     0.7820810
  C        1.0412590    -0.1412430    -1.0548500
  C        3.2457950    -0.4451680    -0.0684180
  C        2.9086073     0.5930329     0.8061212
  C        2.2676820    -0.7996710    -1.0091590
  C       -1.8261890    -0.1288690     1.1267200
  C       -2.7336970     0.5134260    -1.0120210
  C        4.5537390    -1.1898250     0.0022800
  C       -2.8866350    -1.0143110     1.3128170
  C       -3.7965280    -0.3760470    -0.8307700
  C       -3.8763200    -1.1410390     0.3331560
  H       -0.6887990     2.1194610    -1.1851540
  H       -0.6152960     2.3835930     0.5515720
  H        1.5214970     2.0586850     1.4854080
  H        0.2921320    -0.4400260    -1.7869590
  H        3.6942270     0.8828880     1.5683180
  H        2.4736480    -1.5998700    -1.7190670
  H       -1.0482340    -0.0434160     1.8839740
  H       -2.6776530     1.1110490    -1.9207770
  H        4.8944640    -1.4825890    -0.9952280
  H        5.3329890    -0.5734720     0.4595320
  H        4.4581780    -2.1030590     0.5999660
  H       -2.9412840    -1.6093450     2.2217140
  H       -4.5604750    -0.4701320    -1.5992930
  H       -4.7020430    -1.8337400     0.4769600
units angstrom
no_reorient  #important for SAPT in psi4, default
symmetry c1  #important for SAPT in psi4, default
}

set PROPERTIES_ORIGIN ["COM"]
properties('MP2/aug-cc-pvtz', properties = ['dipole'])
--------------------------------------------------------------------------

    Molecular point group: c1
  Charge       = 0
  Multiplicity = 1
  Basis Set: AUG-CC-PVTZ
    Blend: AUG-CC-PVTZ
  Basis Set: (AUG-CC-PVTZ AUX)
    Blend: AUG-CC-PVTZ-JKFIT

    Orbital Energies [Eh]
    ---------------------

    Doubly Occupied:

       1A    -11.241113     2A    -11.237936     3A    -11.236919
       4A    -11.235164     5A    -11.235012     6A    -11.234550
       7A    -11.231469     8A    -11.231230     9A    -11.229472
      10A    -11.229271    11A    -11.229004    12A    -11.227660
      13A    -11.226209    14A    -11.224350    15A     -1.162772
      16A     -1.146856    17A     -1.073475    18A     -1.025493
      19A     -1.010966    20A     -1.010127    21A     -0.958606
      22A     -0.896586    23A     -0.826132    24A     -0.821375
      25A     -0.804469    26A     -0.774861    27A     -0.693286
      28A     -0.668881    29A     -0.650543    30A     -0.635090
      31A     -0.626345    32A     -0.615493    33A     -0.582839
      34A     -0.576764    35A     -0.575962    36A     -0.569448
      37A     -0.558020    38A     -0.549463    39A     -0.528921
      40A     -0.504784    41A     -0.492646    42A     -0.488411
      43A     -0.479127    44A     -0.474663    45A     -0.467389
      46A     -0.339755    47A     -0.334395    48A     -0.329962
      49A     -0.306093

  @DF-RHF Final Energy:  -538.49083328036727

   => Energetics <=

    Nuclear Repulsion Energy =            786.7995117978634880
    One-Electron Energy =               -2288.9619828275185682
    Two-Electron Energy =                 963.6716377492878109
    Total Energy =                       -538.4908332803672693
  Basis Set: (AUG-CC-PVTZ AUX)
    Blend: AUG-CC-PVTZ-RI
    Molecular point group: c1

    Geometry (in Angstrom), charge = 0, multiplicity = 1:

       Center              X                  Y                   Z               Mass
    ------------   -----------------  -----------------  -----------------  -----------------
         C           -0.550035939605     1.595332729450    -0.219639292264    12.000000000000
         C            0.784153060395     0.888183729450    -0.156751292264    12.000000000000
         C           -1.706939939605     0.639542729450    -0.035483292264    12.000000000000
         C            1.756199060395     1.242709729450     0.783762707736    12.000000000000
         C            1.073703060395    -0.150341270550    -1.053168292264    12.000000000000
         C            3.278239060395    -0.454266270550    -0.066736292264    12.000000000000
         C            2.941051360395     0.583934629450     0.807802907736    12.000000000000
         C            2.300126060395    -0.808769270550    -1.007477292264    12.000000000000
         C           -1.793744939605    -0.137967270550     1.128401707736    12.000000000000
         C           -2.701252939605     0.504327729450    -1.010339292264    12.000000000000
         C            4.586183060395    -1.198923270550     0.003961707736    12.000000000000
         C           -2.854190939605    -1.023409270550     1.314498707736    12.000000000000
         C           -3.764083939605    -0.385145270550    -0.829088292264    12.000000000000
         C           -3.843875939605    -1.150137270550     0.334837707736    12.000000000000
         H           -0.656354939605     2.110362729450    -1.183472292264     1.007825032230
         H           -0.582851939605     2.374494729450     0.553253707736     1.007825032230
         H            1.553941060395     2.049586729450     1.487089707736     1.007825032230
         H            0.324576060395    -0.449124270550    -1.785277292264     1.007825032230
         H            3.726671060395     0.873789729450     1.569999707736     1.007825032230
         H            2.506092060395    -1.608968270550    -1.717385292264     1.007825032230
         H           -1.015789939605    -0.052514270550     1.885655707736     1.007825032230
         H           -2.645208939605     1.101950729450    -1.919095292264     1.007825032230
         H            4.926908060395    -1.491687270550    -0.993546292264     1.007825032230
         H            5.365433060395    -0.582570270550     0.461213707736     1.007825032230
         H            4.490622060395    -2.112157270550     0.601647707736     1.007825032230
         H           -2.908839939605    -1.618443270550     2.223395707736     1.007825032230
         H           -4.528030939605    -0.479230270550    -1.597611292264     1.007825032230
         H           -4.669598939605    -1.842838270550     0.478641707736     1.007825032230

  Basis Set: AUG-CC-PVTZ
    Blend: AUG-CC-PVTZ
  Basis Set: (AUG-CC-PVTZ AUX)
    Blend: AUG-CC-PVTZ-JKFIT
	 Reference Energy          =    -538.4908332803672693 [Eh]
	 Singles Energy            =      -0.0000000000000000 [Eh]
	 Same-Spin Energy          =      -0.6083547582016984 [Eh]
	 Opposite-Spin Energy      =      -1.9347639170296669 [Eh]
	 Correlation Energy        =      -2.5431186752313653 [Eh]
	 Total Energy              =    -541.0339519555985817 [Eh]

	 ================> DF-SCS-MP2 Energies <==================
	-----------------------------------------------------------
	 SCS Same-Spin Scale       =       0.3333333333333333 [-]
	 SCS Opposite-Spin Scale   =       1.2000000000000000 [-]
	 SCS Same-Spin Energy      =      -0.2027849194005661 [Eh]
	 SCS Opposite-Spin Energy  =      -2.3217167004356001 [Eh]
	 SCS Correlation Energy    =      -2.5245016198361663 [Eh]
	 SCS Total Energy          =    -541.0153349002034702 [Eh]
	-----------------------------------------------------------

  Dipole Moment: [D]
     X:     0.3677      Y:    -0.1447      Z:    -0.0074     Total:     0.3953

*** Psi4 exiting successfully. Buy a developer a beer!
