                               Psi4 1.4a3.dev225

  ==> Input File <==

--------------------------------------------------------------------------
#psi4
#
memory 32 gb

molecule  {
0 1
  C       -0.5824800     1.6044310    -0.2213210
  C        0.7517090     0.8972820    -0.1584330
  C       -1.7393840     0.6486410    -0.0371650
  C        1.7237550     1.2518080     0.7820810
  C        1.0412590    -0.1412430    -1.0548500
  C        3.2457950    -0.4451680    -0.0684180
  C        2.9517370     0.5872480     0.8282550
  C        2.2676820    -0.7996710    -1.0091590
  C       -1.8261890    -0.1288690     1.1267200
  C       -2.7336970     0.5134260    -1.0120210
  C        4.5537390    -1.1898250     0.0022800
  C       -2.8866350    -1.0143110     1.3128170
  C       -3.7965280    -0.3760470    -0.8307700
  C       -3.8763200    -1.1410390     0.3331560
  H       -0.6887990     2.1194610    -1.1851540
  H       -0.6152960     2.3835930     0.5515720
  H        1.5214970     2.0586850     1.4854080
  H        0.2921320    -0.4400260    -1.7869590
  H        3.6942270     0.8828880     1.5683180
  H        2.4736480    -1.5998700    -1.7190670
  H       -1.0482340    -0.0434160     1.8839740
  H       -2.6776530     1.1110490    -1.9207770
  H        4.8944640    -1.4825890    -0.9952280
  H        5.3329890    -0.5734720     0.4595320
  H        4.4581780    -2.1030590     0.5999660
  H       -2.9387719    -1.5819928     2.1799343
  H       -4.5604750    -0.4701320    -1.5992930
  H       -4.7020430    -1.8337400     0.4769600
units angstrom
no_reorient  #important for SAPT in psi4, default
symmetry c1  #important for SAPT in psi4, default
}

set PROPERTIES_ORIGIN ["COM"]
properties('MP2/aug-cc-pvtz', properties = ['dipole'])
--------------------------------------------------------------------------

    Molecular point group: c1
  Charge       = 0
  Multiplicity = 1
  Basis Set: AUG-CC-PVTZ
    Blend: AUG-CC-PVTZ
  Basis Set: (AUG-CC-PVTZ AUX)
    Blend: AUG-CC-PVTZ-JKFIT

    Orbital Energies [Eh]
    ---------------------

    Doubly Occupied:

       1A    -11.240759     2A    -11.238325     3A    -11.236861
       4A    -11.235113     5A    -11.234686     6A    -11.231354
       7A    -11.231126     8A    -11.231075     9A    -11.229840
      10A    -11.229403    11A    -11.229106    12A    -11.228613
      13A    -11.227951    14A    -11.222951    15A     -1.160590
      16A     -1.145266    17A     -1.073854    18A     -1.024225
      19A     -1.011326    20A     -1.008105    21A     -0.957205
      22A     -0.896126    23A     -0.828912    24A     -0.824677
      25A     -0.803849    26A     -0.774903    27A     -0.694830
      28A     -0.667787    29A     -0.648310    30A     -0.638445
      31A     -0.629302    32A     -0.618445    33A     -0.584841
      34A     -0.578703    35A     -0.575411    36A     -0.569442
      37A     -0.559776    38A     -0.548292    39A     -0.527887
      40A     -0.502917    41A     -0.492902    42A     -0.490219
      43A     -0.477561    44A     -0.473711    45A     -0.471264
      46A     -0.336934    47A     -0.333536    48A     -0.329145
      49A     -0.307179

  @DF-RHF Final Energy:  -538.49305379349028

   => Energetics <=

    Nuclear Repulsion Energy =            786.2331408318931381
    One-Electron Energy =               -2287.8263059177338619
    Two-Electron Energy =                 963.1001112923503342
    Total Energy =                       -538.4930537934902759
  Basis Set: (AUG-CC-PVTZ AUX)
    Blend: AUG-CC-PVTZ-RI
    Molecular point group: c1

    Geometry (in Angstrom), charge = 0, multiplicity = 1:

       Center              X                  Y                   Z               Mass
    ------------   -----------------  -----------------  -----------------  -----------------
         C           -0.552891847799     1.595562550281    -0.220866569867    12.000000000000
         C            0.781297152201     0.888413550281    -0.157978569867    12.000000000000
         C           -1.709795847799     0.639772550281    -0.036710569867    12.000000000000
         C            1.753343152201     1.242939550281     0.782535430133    12.000000000000
         C            1.070847152201    -0.150111449719    -1.054395569867    12.000000000000
         C            3.275383152201    -0.454036449719    -0.067963569867    12.000000000000
         C            2.981325152201     0.578379550281     0.828709430133    12.000000000000
         C            2.297270152201    -0.808539449719    -1.008704569867    12.000000000000
         C           -1.796600847799    -0.137737449719     1.127174430133    12.000000000000
         C           -2.704108847799     0.504557550281    -1.011566569867    12.000000000000
         C            4.583327152201    -1.198693449719     0.002734430133    12.000000000000
         C           -2.857046847799    -1.023179449719     1.313271430133    12.000000000000
         C           -3.766939847799    -0.384915449719    -0.830315569867    12.000000000000
         C           -3.846731847799    -1.149907449719     0.333610430133    12.000000000000
         H           -0.659210847799     2.110592550281    -1.184699569867     1.007825032230
         H           -0.585707847799     2.374724550281     0.552026430133     1.007825032230
         H            1.551085152201     2.049816550281     1.485862430133     1.007825032230
         H            0.321720152201    -0.448894449719    -1.786504569867     1.007825032230
         H            3.723815152201     0.874019550281     1.568772430133     1.007825032230
         H            2.503236152201    -1.608738449719    -1.718612569867     1.007825032230
         H           -1.018645847799    -0.052284449719     1.884428430133     1.007825032230
         H           -2.648064847799     1.102180550281    -1.920322569867     1.007825032230
         H            4.924052152201    -1.491457449719    -0.994773569867     1.007825032230
         H            5.362577152201    -0.582340449719     0.459986430133     1.007825032230
         H            4.487766152201    -2.111927449719     0.600420430133     1.007825032230
         H           -2.909183747799    -1.590861249719     2.180388730133     1.007825032230
         H           -4.530886847799    -0.479000449719    -1.598838569867     1.007825032230
         H           -4.672454847799    -1.842608449719     0.477414430133     1.007825032230

  Basis Set: AUG-CC-PVTZ
    Blend: AUG-CC-PVTZ
  Basis Set: (AUG-CC-PVTZ AUX)
    Blend: AUG-CC-PVTZ-JKFIT
	 Reference Energy          =    -538.4930537934902759 [Eh]
	 Singles Energy            =      -0.0000000000000000 [Eh]
	 Same-Spin Energy          =      -0.6081152445414949 [Eh]
	 Opposite-Spin Energy      =      -1.9344178258847478 [Eh]
	 Correlation Energy        =      -2.5425330704262428 [Eh]
	 Total Energy              =    -541.0355868639164783 [Eh]

	 ================> DF-SCS-MP2 Energies <==================
	-----------------------------------------------------------
	 SCS Same-Spin Scale       =       0.3333333333333333 [-]
	 SCS Opposite-Spin Scale   =       1.2000000000000000 [-]
	 SCS Same-Spin Energy      =      -0.2027050815138316 [Eh]
	 SCS Opposite-Spin Energy  =      -2.3213013910616973 [Eh]
	 SCS Correlation Energy    =      -2.5240064725755289 [Eh]
	 SCS Total Energy          =    -541.0170602660657551 [Eh]
	-----------------------------------------------------------

  Dipole Moment: [D]
     X:     0.3572      Y:    -0.1400      Z:     0.0258     Total:     0.3845

*** Psi4 exiting successfully. Buy a developer a beer!
