                               Psi4 1.4a3.dev225

  ==> Input File <==

--------------------------------------------------------------------------
#psi4
#
memory 32 gb

molecule  {
0 1
  C       -0.5824800     1.6044310    -0.2213210
  C        0.7517090     0.8972820    -0.1584330
  C       -1.7393840     0.6486410    -0.0371650
  C        1.7237550     1.2518080     0.7820810
  C        1.0412590    -0.1412430    -1.0548500
  C        3.2457950    -0.4451680    -0.0684180
  C        2.9517370     0.5872480     0.8282550
  C        2.2676820    -0.7996710    -1.0091590
  C       -1.8261890    -0.1288690     1.1267200
  C       -2.7336970     0.5134260    -1.0120210
  C        4.5537390    -1.1898250     0.0022800
  C       -2.8866350    -1.0143110     1.3128170
  C       -3.7965280    -0.3760470    -0.8307700
  C       -3.8763200    -1.1410390     0.3331560
  H       -0.6887990     2.1194610    -1.1851540
  H       -0.6152960     2.3835930     0.5515720
  H        1.5307806     2.0216493     1.4531253
  H        0.2921320    -0.4400260    -1.7869590
  H        3.6942270     0.8828880     1.5683180
  H        2.4736480    -1.5998700    -1.7190670
  H       -1.0482340    -0.0434160     1.8839740
  H       -2.6776530     1.1110490    -1.9207770
  H        4.8944640    -1.4825890    -0.9952280
  H        5.3329890    -0.5734720     0.4595320
  H        4.4581780    -2.1030590     0.5999660
  H       -2.9412840    -1.6093450     2.2217140
  H       -4.5604750    -0.4701320    -1.5992930
  H       -4.7020430    -1.8337400     0.4769600
units angstrom
no_reorient  #important for SAPT in psi4, default
symmetry c1  #important for SAPT in psi4, default
}

set PROPERTIES_ORIGIN ["COM"]
properties('MP2/aug-cc-pvtz', properties = ['dipole'])
--------------------------------------------------------------------------

    Molecular point group: c1
  Charge       = 0
  Multiplicity = 1
  Basis Set: AUG-CC-PVTZ
    Blend: AUG-CC-PVTZ
  Basis Set: (AUG-CC-PVTZ AUX)
    Blend: AUG-CC-PVTZ-JKFIT

    Orbital Energies [Eh]
    ---------------------

    Doubly Occupied:

       1A    -11.241112     2A    -11.238013     3A    -11.236455
       4A    -11.235311     5A    -11.235044     6A    -11.234564
       7A    -11.231529     8A    -11.231279     9A    -11.229608
      10A    -11.229471    11A    -11.228967    12A    -11.228361
      13A    -11.224894    14A    -11.222759    15A     -1.160699
      16A     -1.145254    17A     -1.073766    18A     -1.024310
      19A     -1.010218    20A     -1.009236    21A     -0.957189
      22A     -0.896378    23A     -0.829682    24A     -0.823541
      25A     -0.803768    26A     -0.775329    27A     -0.693470
      28A     -0.669660    29A     -0.648182    30A     -0.635735
      31A     -0.631843    32A     -0.617912    33A     -0.582842
      34A     -0.580880    35A     -0.575167    36A     -0.569519
      37A     -0.560513    38A     -0.548293    39A     -0.527855
      40A     -0.502910    41A     -0.491966    42A     -0.490374
      43A     -0.478649    44A     -0.473271    45A     -0.471085
      46A     -0.336961    47A     -0.333653    48A     -0.329147
      49A     -0.307094

  @DF-RHF Final Energy:  -538.49311565910944

   => Energetics <=

    Nuclear Repulsion Energy =            786.2358366713148143
    One-Electron Energy =               -2287.8304649330816574
    Two-Electron Energy =                 963.1015126026575217
    Total Energy =                       -538.4931156591094350
  Basis Set: (AUG-CC-PVTZ AUX)
    Blend: AUG-CC-PVTZ-RI
    Molecular point group: c1

    Geometry (in Angstrom), charge = 0, multiplicity = 1:

       Center              X                  Y                   Z               Mass
    ------------   -----------------  -----------------  -----------------  -----------------
         C           -0.552929322424     1.595918883802    -0.220919127870    12.000000000000
         C            0.781259677576     0.888769883802    -0.158031127870    12.000000000000
         C           -1.709833322424     0.640128883802    -0.036763127870    12.000000000000
         C            1.753305677576     1.243295883802     0.782482872130    12.000000000000
         C            1.070809677576    -0.149755116198    -1.054448127870    12.000000000000
         C            3.275345677576    -0.453680116198    -0.068016127870    12.000000000000
         C            2.981287677576     0.578735883802     0.828656872130    12.000000000000
         C            2.297232677576    -0.808183116198    -1.008757127870    12.000000000000
         C           -1.796638322424    -0.137381116198     1.127121872130    12.000000000000
         C           -2.704146322424     0.504913883802    -1.011619127870    12.000000000000
         C            4.583289677576    -1.198337116198     0.002681872130    12.000000000000
         C           -2.857084322424    -1.022823116198     1.313218872130    12.000000000000
         C           -3.766977322424    -0.384559116198    -0.830368127870    12.000000000000
         C           -3.846769322424    -1.149551116198     0.333557872130    12.000000000000
         H           -0.659248322424     2.110948883802    -1.184752127870     1.007825032230
         H           -0.585745322424     2.375080883802     0.551973872130     1.007825032230
         H            1.560331277576     2.013137183802     1.453527172130     1.007825032230
         H            0.321682677576    -0.448538116198    -1.786557127870     1.007825032230
         H            3.723777677576     0.874375883802     1.568719872130     1.007825032230
         H            2.503198677576    -1.608382116198    -1.718665127870     1.007825032230
         H           -1.018683322424    -0.051928116198     1.884375872130     1.007825032230
         H           -2.648102322424     1.102536883802    -1.920375127870     1.007825032230
         H            4.924014677576    -1.491101116198    -0.994826127870     1.007825032230
         H            5.362539677576    -0.581984116198     0.459933872130     1.007825032230
         H            4.487728677576    -2.111571116198     0.600367872130     1.007825032230
         H           -2.911733322424    -1.617857116198     2.222115872130     1.007825032230
         H           -4.530924322424    -0.478644116198    -1.598891127870     1.007825032230
         H           -4.672492322424    -1.842252116198     0.477361872130     1.007825032230

  Basis Set: AUG-CC-PVTZ
    Blend: AUG-CC-PVTZ
  Basis Set: (AUG-CC-PVTZ AUX)
    Blend: AUG-CC-PVTZ-JKFIT
	 Reference Energy          =    -538.4931156591094350 [Eh]
	 Singles Energy            =      -0.0000000000000000 [Eh]
	 Same-Spin Energy          =      -0.6080841757722744 [Eh]
	 Opposite-Spin Energy      =      -1.9343780153693284 [Eh]
	 Correlation Energy        =      -2.5424621911416025 [Eh]
	 Total Energy              =    -541.0355778502510020 [Eh]

	 ================> DF-SCS-MP2 Energies <==================
	-----------------------------------------------------------
	 SCS Same-Spin Scale       =       0.3333333333333333 [-]
	 SCS Opposite-Spin Scale   =       1.2000000000000000 [-]
	 SCS Same-Spin Energy      =      -0.2026947252574248 [Eh]
	 SCS Opposite-Spin Energy  =      -2.3212536184431940 [Eh]
	 SCS Correlation Energy    =      -2.5239483437006189 [Eh]
	 SCS Total Energy          =    -541.0170640028100024 [Eh]
	-----------------------------------------------------------

  Dipole Moment: [D]
     X:     0.3549      Y:    -0.1135      Z:     0.0216     Total:     0.3733

*** Psi4 exiting successfully. Buy a developer a beer!
