                               Psi4 1.4a3.dev225

  ==> Input File <==

--------------------------------------------------------------------------
#psi4
#
memory 32 gb

molecule  {
0 1
  C       -0.5824800     1.6044310    -0.2213210
  C        0.7517090     0.8972820    -0.1584330
  C       -1.7393840     0.6486410    -0.0371650
  C        1.7237550     1.2518080     0.7820810
  C        1.0412590    -0.1412430    -1.0548500
  C        3.2457950    -0.4451680    -0.0684180
  C        2.9517370     0.5872480     0.8282550
  C        2.2676820    -0.7996710    -1.0091590
  C       -1.8261890    -0.1288690     1.1267200
  C       -2.7336970     0.5134260    -1.0120210
  C        4.5537390    -1.1898250     0.0022800
  C       -2.8866350    -1.0143110     1.3128170
  C       -3.7965280    -0.3760470    -0.8307700
  C       -3.8734603    -1.1136219     0.2914412
  H       -0.6887990     2.1194610    -1.1851540
  H       -0.6152960     2.3835930     0.5515720
  H        1.5214970     2.0586850     1.4854080
  H        0.2921320    -0.4400260    -1.7869590
  H        3.6942270     0.8828880     1.5683180
  H        2.4736480    -1.5998700    -1.7190670
  H       -1.0482340    -0.0434160     1.8839740
  H       -2.6776530     1.1110490    -1.9207770
  H        4.8944640    -1.4825890    -0.9952280
  H        5.3329890    -0.5734720     0.4595320
  H        4.4581780    -2.1030590     0.5999660
  H       -2.9412840    -1.6093450     2.2217140
  H       -4.5604750    -0.4701320    -1.5992930
  H       -4.7020430    -1.8337400     0.4769600
units angstrom
no_reorient  #important for SAPT in psi4, default
symmetry c1  #important for SAPT in psi4, default
}

set PROPERTIES_ORIGIN ["COM"]
properties('MP2/aug-cc-pvtz', properties = ['dipole'])
--------------------------------------------------------------------------

    Molecular point group: c1
  Charge       = 0
  Multiplicity = 1
  Basis Set: AUG-CC-PVTZ
    Blend: AUG-CC-PVTZ
  Basis Set: (AUG-CC-PVTZ AUX)
    Blend: AUG-CC-PVTZ-JKFIT

    Orbital Energies [Eh]
    ---------------------

    Doubly Occupied:

       1A    -11.240629     2A    -11.238401     3A    -11.236847
       4A    -11.236844     5A    -11.235160     6A    -11.231466
       7A    -11.231197     8A    -11.230817     9A    -11.229877
      10A    -11.229698    11A    -11.229161    12A    -11.228649
      13A    -11.228256    14A    -11.222997    15A     -1.161553
      16A     -1.146768    17A     -1.074777    18A     -1.025270
      19A     -1.010875    20A     -1.008038    21A     -0.957237
      22A     -0.895738    23A     -0.828158    24A     -0.824551
      25A     -0.801630    26A     -0.774183    27A     -0.692390
      28A     -0.667547    29A     -0.648563    30A     -0.634221
      31A     -0.628547    32A     -0.618509    33A     -0.586778
      34A     -0.578728    35A     -0.574605    36A     -0.566358
      37A     -0.559828    38A     -0.547990    39A     -0.526876
      40A     -0.502030    41A     -0.495361    42A     -0.488396
      43A     -0.478244    44A     -0.473676    45A     -0.468950
      46A     -0.340992    47A     -0.332663    48A     -0.327603
      49A     -0.308510

  @DF-RHF Final Energy:  -538.49089875499544

   => Energetics <=

    Nuclear Repulsion Energy =            786.4609438331553974
    One-Electron Energy =               -2288.2914054484449480
    Two-Electron Energy =                 963.3395628602941088
    Total Energy =                       -538.4908987549954418
  Basis Set: (AUG-CC-PVTZ AUX)
    Blend: AUG-CC-PVTZ-RI
    Molecular point group: c1

    Geometry (in Angstrom), charge = 0, multiplicity = 1:

       Center              X                  Y                   Z               Mass
    ------------   -----------------  -----------------  -----------------  -----------------
         C           -0.553066383635     1.593907288558    -0.218349013971    12.000000000000
         C            0.781122616365     0.886758288558    -0.155461013971    12.000000000000
         C           -1.709970383635     0.638117288558    -0.034193013971    12.000000000000
         C            1.753168616365     1.241284288558     0.785052986029    12.000000000000
         C            1.070672616365    -0.151766711442    -1.051878013971    12.000000000000
         C            3.275208616365    -0.455691711442    -0.065446013971    12.000000000000
         C            2.981150616365     0.576724288558     0.831226986029    12.000000000000
         C            2.297095616365    -0.810194711442    -1.006187013971    12.000000000000
         C           -1.796775383635    -0.139392711442     1.129691986029    12.000000000000
         C           -2.704283383635     0.502902288558    -1.009049013971    12.000000000000
         C            4.583152616365    -1.200348711442     0.005251986029    12.000000000000
         C           -2.857221383635    -1.024834711442     1.315788986029    12.000000000000
         C           -3.767114383635    -0.386570711442    -0.827798013971    12.000000000000
         C           -3.844046683635    -1.124145611442     0.294413186029    12.000000000000
         H           -0.659385383635     2.108937288558    -1.182182013971     1.007825032230
         H           -0.585882383635     2.373069288558     0.554543986029     1.007825032230
         H            1.550910616365     2.048161288558     1.488379986029     1.007825032230
         H            0.321545616365    -0.450549711442    -1.783987013971     1.007825032230
         H            3.723640616365     0.872364288558     1.571289986029     1.007825032230
         H            2.503061616365    -1.610393711442    -1.716095013971     1.007825032230
         H           -1.018820383635    -0.053939711442     1.886945986029     1.007825032230
         H           -2.648239383635     1.100525288558    -1.917805013971     1.007825032230
         H            4.923877616365    -1.493112711442    -0.992256013971     1.007825032230
         H            5.362402616365    -0.583995711442     0.462503986029     1.007825032230
         H            4.487591616365    -2.113582711442     0.602937986029     1.007825032230
         H           -2.911870383635    -1.619868711442     2.224685986029     1.007825032230
         H           -4.531061383635    -0.480655711442    -1.596321013971     1.007825032230
         H           -4.672629383635    -1.844263711442     0.479931986029     1.007825032230

  Basis Set: AUG-CC-PVTZ
    Blend: AUG-CC-PVTZ
  Basis Set: (AUG-CC-PVTZ AUX)
    Blend: AUG-CC-PVTZ-JKFIT
	 Reference Energy          =    -538.4908987549954418 [Eh]
	 Singles Energy            =      -0.0000000000000000 [Eh]
	 Same-Spin Energy          =      -0.6080909007687355 [Eh]
	 Opposite-Spin Energy      =      -1.9346950649258710 [Eh]
	 Correlation Energy        =      -2.5427859656946064 [Eh]
	 Total Energy              =    -541.0336847206900757 [Eh]

	 ================> DF-SCS-MP2 Energies <==================
	-----------------------------------------------------------
	 SCS Same-Spin Scale       =       0.3333333333333333 [-]
	 SCS Opposite-Spin Scale   =       1.2000000000000000 [-]
	 SCS Same-Spin Energy      =      -0.2026969669229118 [Eh]
	 SCS Opposite-Spin Energy  =      -2.3216340779110451 [Eh]
	 SCS Correlation Energy    =      -2.5243310448339571 [Eh]
	 SCS Total Energy          =    -541.0152297998293989 [Eh]
	-----------------------------------------------------------

  Dipole Moment: [D]
     X:     0.3726      Y:    -0.1270      Z:     0.0185     Total:     0.3941

*** Psi4 exiting successfully. Buy a developer a beer!
