                               Psi4 1.4a3.dev225

  ==> Input File <==

--------------------------------------------------------------------------
#psi4
#
memory 32 gb

molecule  {
0 1
  C       -0.5824800     1.6044310    -0.2213210
  C        0.7517090     0.8972820    -0.1584330
  C       -1.7393840     0.6486410    -0.0371650
  C        1.7237550     1.2518080     0.7820810
  C        1.0412590    -0.1412430    -1.0548500
  C        3.2457950    -0.4451680    -0.0684180
  C        2.9517370     0.5872480     0.8282550
  C        2.2676820    -0.7996710    -1.0091590
  C       -1.8261890    -0.1288690     1.1267200
  C       -2.7336970     0.5134260    -1.0120210
  C        4.5537390    -1.1898250     0.0022800
  C       -2.8866350    -1.0143110     1.3128170
  C       -3.7965280    -0.3760470    -0.8307700
  C       -3.8763200    -1.1410390     0.3331560
  H       -0.6887990     2.1194610    -1.1851540
  H       -0.6152960     2.3835930     0.5515720
  H        1.5400643     1.9846137     1.4208426
  H        0.2921320    -0.4400260    -1.7869590
  H        3.6942270     0.8828880     1.5683180
  H        2.4736480    -1.5998700    -1.7190670
  H       -1.0482340    -0.0434160     1.8839740
  H       -2.6776530     1.1110490    -1.9207770
  H        4.8944640    -1.4825890    -0.9952280
  H        5.3329890    -0.5734720     0.4595320
  H        4.4581780    -2.1030590     0.5999660
  H       -2.9412840    -1.6093450     2.2217140
  H       -4.5604750    -0.4701320    -1.5992930
  H       -4.7020430    -1.8337400     0.4769600
units angstrom
no_reorient  #important for SAPT in psi4, default
symmetry c1  #important for SAPT in psi4, default
}

set PROPERTIES_ORIGIN ["COM"]
properties('MP2/aug-cc-pvtz', properties = ['dipole'])
--------------------------------------------------------------------------

    Molecular point group: c1
  Charge       = 0
  Multiplicity = 1
  Basis Set: AUG-CC-PVTZ
    Blend: AUG-CC-PVTZ
  Basis Set: (AUG-CC-PVTZ AUX)
    Blend: AUG-CC-PVTZ-JKFIT

    Orbital Energies [Eh]
    ---------------------

    Doubly Occupied:

       1A    -11.241151     2A    -11.237689     3A    -11.236102
       4A    -11.235309     5A    -11.235062     6A    -11.234590
       7A    -11.231547     8A    -11.231295     9A    -11.229511
      10A    -11.229371    11A    -11.228520    12A    -11.228077
      13A    -11.222564    14A    -11.218797    15A     -1.160817
      16A     -1.145310    17A     -1.073766    18A     -1.024845
      19A     -1.010713    20A     -1.010111    21A     -0.957113
      22A     -0.896627    23A     -0.832193    24A     -0.824044
      25A     -0.804594    26A     -0.776093    27A     -0.693589
      28A     -0.672074    29A     -0.648031    30A     -0.637908
      31A     -0.633715    32A     -0.618032    33A     -0.583030
      34A     -0.582603    35A     -0.575073    36A     -0.569563
      37A     -0.560929    38A     -0.548179    39A     -0.527730
      40A     -0.502938    41A     -0.492648    42A     -0.490410
      43A     -0.479414    44A     -0.473062    45A     -0.470899
      46A     -0.336854    47A     -0.333612    48A     -0.329046
      49A     -0.306905

  @DF-RHF Final Energy:  -538.48816564246602

   => Energetics <=

    Nuclear Repulsion Energy =            786.5227206971352416
    One-Electron Energy =               -2288.3776577280009406
    Two-Electron Energy =                 963.3667713883995702
    Total Energy =                       -538.4881656424660150
  Basis Set: (AUG-CC-PVTZ AUX)
    Blend: AUG-CC-PVTZ-RI
    Molecular point group: c1

    Geometry (in Angstrom), charge = 0, multiplicity = 1:

       Center              X                  Y                   Z               Mass
    ------------   -----------------  -----------------  -----------------  -----------------
         C           -0.552980699989     1.596123845072    -0.220740469952    12.000000000000
         C            0.781208300011     0.888974845072    -0.157852469952    12.000000000000
         C           -1.709884699989     0.640333845072    -0.036584469952    12.000000000000
         C            1.753254300011     1.243500845072     0.782661530048    12.000000000000
         C            1.070758300011    -0.149550154928    -1.054269469952    12.000000000000
         C            3.275294300011    -0.453475154928    -0.067837469952    12.000000000000
         C            2.981236300011     0.578940845072     0.828835530048    12.000000000000
         C            2.297181300011    -0.807978154928    -1.008578469952    12.000000000000
         C           -1.796689699989    -0.137176154928     1.127300530048    12.000000000000
         C           -2.704197699989     0.505118845072    -1.011440469952    12.000000000000
         C            4.583238300011    -1.198132154928     0.002860530048    12.000000000000
         C           -2.857135699989    -1.022618154928     1.313397530048    12.000000000000
         C           -3.767028699989    -0.384354154928    -0.830189469952    12.000000000000
         C           -3.846820699989    -1.149346154928     0.333736530048    12.000000000000
         H           -0.659299699989     2.111153845072    -1.184573469952     1.007825032230
         H           -0.585796699989     2.375285845072     0.552152530048     1.007825032230
         H            1.569563600011     1.976306545072     1.421423130048     1.007825032230
         H            0.321631300011    -0.448333154928    -1.786378469952     1.007825032230
         H            3.723726300011     0.874580845072     1.568898530048     1.007825032230
         H            2.503147300011    -1.608177154928    -1.718486469952     1.007825032230
         H           -1.018734699989    -0.051723154928     1.884554530048     1.007825032230
         H           -2.648153699989     1.102741845072    -1.920196469952     1.007825032230
         H            4.923963300011    -1.490896154928    -0.994647469952     1.007825032230
         H            5.362488300011    -0.581779154928     0.460112530048     1.007825032230
         H            4.487677300011    -2.111366154928     0.600546530048     1.007825032230
         H           -2.911784699989    -1.617652154928     2.222294530048     1.007825032230
         H           -4.530975699989    -0.478439154928    -1.598712469952     1.007825032230
         H           -4.672543699989    -1.842047154928     0.477540530048     1.007825032230

  Basis Set: AUG-CC-PVTZ
    Blend: AUG-CC-PVTZ
  Basis Set: (AUG-CC-PVTZ AUX)
    Blend: AUG-CC-PVTZ-JKFIT
	 Reference Energy          =    -538.4881656424660150 [Eh]
	 Singles Energy            =      -0.0000000000000000 [Eh]
	 Same-Spin Energy          =      -0.6079981950905358 [Eh]
	 Opposite-Spin Energy      =      -1.9341353040354494 [Eh]
	 Correlation Energy        =      -2.5421334991259852 [Eh]
	 Total Energy              =    -541.0302991415919678 [Eh]

	 ================> DF-SCS-MP2 Energies <==================
	-----------------------------------------------------------
	 SCS Same-Spin Scale       =       0.3333333333333333 [-]
	 SCS Opposite-Spin Scale   =       1.2000000000000000 [-]
	 SCS Same-Spin Energy      =      -0.2026660650301786 [Eh]
	 SCS Opposite-Spin Energy  =      -2.3209623648425390 [Eh]
	 SCS Correlation Energy    =      -2.5236284298727174 [Eh]
	 SCS Total Energy          =    -541.0117940723387164 [Eh]
	-----------------------------------------------------------

  Dipole Moment: [D]
     X:     0.3478      Y:    -0.1005      Z:     0.0306     Total:     0.3633

*** Psi4 exiting successfully. Buy a developer a beer!
