                               Psi4 1.4a3.dev225

  ==> Input File <==

--------------------------------------------------------------------------
#psi4
#
memory 32 gb

molecule  {
0 1
  C       -0.5824800     1.6044310    -0.2213210
  C        0.7517090     0.8972820    -0.1584330
  C       -1.7393840     0.6486410    -0.0371650
  C        1.7237550     1.2518080     0.7820810
  C        1.0412590    -0.1412430    -1.0548500
  C        3.2457950    -0.4451680    -0.0684180
  C        2.9517370     0.5872480     0.8282550
  C        2.2676820    -0.7996710    -1.0091590
  C       -1.8261890    -0.1288690     1.1267200
  C       -2.7161220     0.4999456    -0.9685516
  C        4.5537390    -1.1898250     0.0022800
  C       -2.8866350    -1.0143110     1.3128170
  C       -3.7965280    -0.3760470    -0.8307700
  C       -3.8763200    -1.1410390     0.3331560
  H       -0.6887990     2.1194610    -1.1851540
  H       -0.6152960     2.3835930     0.5515720
  H        1.5214970     2.0586850     1.4854080
  H        0.2921320    -0.4400260    -1.7869590
  H        3.6942270     0.8828880     1.5683180
  H        2.4736480    -1.5998700    -1.7190670
  H       -1.0482340    -0.0434160     1.8839740
  H       -2.6776530     1.1110490    -1.9207770
  H        4.8944640    -1.4825890    -0.9952280
  H        5.3329890    -0.5734720     0.4595320
  H        4.4581780    -2.1030590     0.5999660
  H       -2.9412840    -1.6093450     2.2217140
  H       -4.5604750    -0.4701320    -1.5992930
  H       -4.7020430    -1.8337400     0.4769600
units angstrom
no_reorient  #important for SAPT in psi4, default
symmetry c1  #important for SAPT in psi4, default
}

set PROPERTIES_ORIGIN ["COM"]
properties('MP2/aug-cc-pvtz', properties = ['dipole'])
--------------------------------------------------------------------------

    Molecular point group: c1
  Charge       = 0
  Multiplicity = 1
  Basis Set: AUG-CC-PVTZ
    Blend: AUG-CC-PVTZ
  Basis Set: (AUG-CC-PVTZ AUX)
    Blend: AUG-CC-PVTZ-JKFIT

    Orbital Energies [Eh]
    ---------------------

    Doubly Occupied:

       1A    -11.238507     2A    -11.237042     3A    -11.236165
       4A    -11.235380     5A    -11.234667     6A    -11.233631
       7A    -11.231513     8A    -11.231328     9A    -11.230477
      10A    -11.230019    11A    -11.229867    12A    -11.229264
      13A    -11.228791    14A    -11.223059    15A     -1.163216
      16A     -1.147545    17A     -1.074284    18A     -1.026305
      19A     -1.008980    20A     -1.008190    21A     -0.958829
      22A     -0.896338    23A     -0.828922    24A     -0.823005
      25A     -0.802620    26A     -0.775694    27A     -0.692603
      28A     -0.667439    29A     -0.648373    30A     -0.634119
      31A     -0.627544    32A     -0.620225    33A     -0.580361
      34A     -0.578960    35A     -0.574537    36A     -0.569565
      37A     -0.560074    38A     -0.547841    39A     -0.528073
      40A     -0.504179    41A     -0.493372    42A     -0.486090
      43A     -0.477964    44A     -0.475463    45A     -0.469777
      46A     -0.337451    47A     -0.335048    48A     -0.330388
      49A     -0.308213

  @DF-RHF Final Energy:  -538.49117255718193

   => Energetics <=

    Nuclear Repulsion Energy =            786.8597337705944028
    One-Electron Energy =               -2289.0792243425707966
    Two-Electron Energy =                 963.7283180147944677
    Total Energy =                       -538.4911725571819261
  Basis Set: (AUG-CC-PVTZ AUX)
    Blend: AUG-CC-PVTZ-RI
    Molecular point group: c1

    Geometry (in Angstrom), charge = 0, multiplicity = 1:

       Center              X                  Y                   Z               Mass
    ------------   -----------------  -----------------  -----------------  -----------------
         C           -0.554036039535     1.596602204881    -0.223962175924    12.000000000000
         C            0.780152960465     0.889453204881    -0.161074175924    12.000000000000
         C           -1.710940039535     0.640812204881    -0.039806175924    12.000000000000
         C            1.752198960465     1.243979204881     0.779439824076    12.000000000000
         C            1.069702960465    -0.149071795119    -1.057491175924    12.000000000000
         C            3.274238960465    -0.452996795119    -0.071059175924    12.000000000000
         C            2.980180960465     0.579419204881     0.825613824076    12.000000000000
         C            2.296125960465    -0.807499795119    -1.011800175924    12.000000000000
         C           -1.797745039535    -0.136697795119     1.124078824076    12.000000000000
         C           -2.687678039535     0.492116804881    -0.971192775924    12.000000000000
         C            4.582182960465    -1.197653795119    -0.000361175924    12.000000000000
         C           -2.858191039535    -1.022139795119     1.310175824076    12.000000000000
         C           -3.768084039535    -0.383875795119    -0.833411175924    12.000000000000
         C           -3.847876039535    -1.148867795119     0.330514824076    12.000000000000
         H           -0.660355039535     2.111632204881    -1.187795175924     1.007825032230
         H           -0.586852039535     2.375764204881     0.548930824076     1.007825032230
         H            1.549940960465     2.050856204881     1.482766824076     1.007825032230
         H            0.320575960465    -0.447854795119    -1.789600175924     1.007825032230
         H            3.722670960465     0.875059204881     1.565676824076     1.007825032230
         H            2.502091960465    -1.607698795119    -1.721708175924     1.007825032230
         H           -1.019790039535    -0.051244795119     1.881332824076     1.007825032230
         H           -2.649209039535     1.103220204881    -1.923418175924     1.007825032230
         H            4.922907960465    -1.490417795119    -0.997869175924     1.007825032230
         H            5.361432960465    -0.581300795119     0.456890824076     1.007825032230
         H            4.486621960465    -2.110887795119     0.597324824076     1.007825032230
         H           -2.912840039535    -1.617173795119     2.219072824076     1.007825032230
         H           -4.532031039535    -0.477960795119    -1.601934175924     1.007825032230
         H           -4.673599039535    -1.841568795119     0.474318824076     1.007825032230

  Basis Set: AUG-CC-PVTZ
    Blend: AUG-CC-PVTZ
  Basis Set: (AUG-CC-PVTZ AUX)
    Blend: AUG-CC-PVTZ-JKFIT
	 Reference Energy          =    -538.4911725571819261 [Eh]
	 Singles Energy            =      -0.0000000000000000 [Eh]
	 Same-Spin Energy          =      -0.6082138488239707 [Eh]
	 Opposite-Spin Energy      =      -1.9347420045526273 [Eh]
	 Correlation Energy        =      -2.5429558533765979 [Eh]
	 Total Energy              =    -541.0341284105585373 [Eh]

	 ================> DF-SCS-MP2 Energies <==================
	-----------------------------------------------------------
	 SCS Same-Spin Scale       =       0.3333333333333333 [-]
	 SCS Opposite-Spin Scale   =       1.2000000000000000 [-]
	 SCS Same-Spin Energy      =      -0.2027379496079902 [Eh]
	 SCS Opposite-Spin Energy  =      -2.3216904054631526 [Eh]
	 SCS Correlation Energy    =      -2.5244283550711430 [Eh]
	 SCS Total Energy          =    -541.0156009122530349 [Eh]
	-----------------------------------------------------------

  Dipole Moment: [D]
     X:     0.3640      Y:    -0.1507      Z:     0.0257     Total:     0.3948

*** Psi4 exiting successfully. Buy a developer a beer!
