                               Psi4 1.4a3.dev225

  ==> Input File <==

--------------------------------------------------------------------------
#psi4
#
memory 32 gb

molecule  {
0 1
  C       -0.5824800     1.6044310    -0.2213210
  C        0.7517090     0.8972820    -0.1584330
  C       -1.7393840     0.6486410    -0.0371650
  C        1.7237550     1.2518080     0.7820810
  C        1.0515844    -0.1782771    -1.0868165
  C        3.2457950    -0.4451680    -0.0684180
  C        2.9517370     0.5872480     0.8282550
  C        2.2676820    -0.7996710    -1.0091590
  C       -1.8261890    -0.1288690     1.1267200
  C       -2.7336970     0.5134260    -1.0120210
  C        4.5537390    -1.1898250     0.0022800
  C       -2.8866350    -1.0143110     1.3128170
  C       -3.7965280    -0.3760470    -0.8307700
  C       -3.8763200    -1.1410390     0.3331560
  H       -0.6887990     2.1194610    -1.1851540
  H       -0.6152960     2.3835930     0.5515720
  H        1.5214970     2.0586850     1.4854080
  H        0.2921320    -0.4400260    -1.7869590
  H        3.6942270     0.8828880     1.5683180
  H        2.4736480    -1.5998700    -1.7190670
  H       -1.0482340    -0.0434160     1.8839740
  H       -2.6776530     1.1110490    -1.9207770
  H        4.8944640    -1.4825890    -0.9952280
  H        5.3329890    -0.5734720     0.4595320
  H        4.4581780    -2.1030590     0.5999660
  H       -2.9412840    -1.6093450     2.2217140
  H       -4.5604750    -0.4701320    -1.5992930
  H       -4.7020430    -1.8337400     0.4769600
units angstrom
no_reorient  #important for SAPT in psi4, default
symmetry c1  #important for SAPT in psi4, default
}

set PROPERTIES_ORIGIN ["COM"]
properties('MP2/aug-cc-pvtz', properties = ['dipole'])
--------------------------------------------------------------------------

    Molecular point group: c1
  Charge       = 0
  Multiplicity = 1
  Basis Set: AUG-CC-PVTZ
    Blend: AUG-CC-PVTZ
  Basis Set: (AUG-CC-PVTZ AUX)
    Blend: AUG-CC-PVTZ-JKFIT

    Orbital Energies [Eh]
    ---------------------

    Doubly Occupied:

       1A    -11.241843     2A    -11.241295     3A    -11.238295
       4A    -11.235732     5A    -11.235243     6A    -11.234704
       7A    -11.231784     8A    -11.231498     9A    -11.230486
      10A    -11.230145    11A    -11.229582    12A    -11.229006
      13A    -11.227024    14A    -11.222977    15A     -1.159061
      16A     -1.144600    17A     -1.072266    18A     -1.022579
      19A     -1.012059    20A     -1.010251    21A     -0.957550
      22A     -0.894200    23A     -0.827150    24A     -0.822142
      25A     -0.803297    26A     -0.775181    27A     -0.693430
      28A     -0.668726    29A     -0.648392    30A     -0.635185
      31A     -0.629651    32A     -0.618864    33A     -0.583010
      34A     -0.581821    35A     -0.575170    36A     -0.569551
      37A     -0.558861    38A     -0.546719    39A     -0.527519
      40A     -0.504360    41A     -0.491574    42A     -0.490873
      43A     -0.475740    44A     -0.471413    45A     -0.471181
      46A     -0.338490    47A     -0.334815    48A     -0.330274
      49A     -0.303421

  @DF-RHF Final Energy:  -538.49075834554844

   => Energetics <=

    Nuclear Repulsion Energy =            785.3239448987638980
    One-Electron Energy =               -2286.0114232316727794
    Two-Electron Energy =                 962.1967199873605523
    Total Energy =                       -538.4907583455484428
  Basis Set: (AUG-CC-PVTZ AUX)
    Blend: AUG-CC-PVTZ-RI
    Molecular point group: c1

    Geometry (in Angstrom), charge = 0, multiplicity = 1:

       Center              X                  Y                   Z               Mass
    ------------   -----------------  -----------------  -----------------  -----------------
         C           -0.553558331475     1.598154261867    -0.218991372374    12.000000000000
         C            0.780630668525     0.891005261867    -0.156103372374    12.000000000000
         C           -1.710462331475     0.642364261867    -0.034835372374    12.000000000000
         C            1.752676668525     1.245531261867     0.784410627626    12.000000000000
         C            1.080506068525    -0.184553838133    -1.084486872374    12.000000000000
         C            3.274716668525    -0.451444738133    -0.066088372374    12.000000000000
         C            2.980658668525     0.580971261867     0.830584627626    12.000000000000
         C            2.296603668525    -0.805947738133    -1.006829372374    12.000000000000
         C           -1.797267331475    -0.135145738133     1.129049627626    12.000000000000
         C           -2.704775331475     0.507149261867    -1.009691372374    12.000000000000
         C            4.582660668525    -1.196101738133     0.004609627626    12.000000000000
         C           -2.857713331475    -1.020587738133     1.315146627626    12.000000000000
         C           -3.767606331475    -0.382323738133    -0.828440372374    12.000000000000
         C           -3.847398331475    -1.147315738133     0.335485627626    12.000000000000
         H           -0.659877331475     2.113184261867    -1.182824372374     1.007825032230
         H           -0.586374331475     2.377316261867     0.553901627626     1.007825032230
         H            1.550418668525     2.052408261867     1.487737627626     1.007825032230
         H            0.321053668525    -0.446302738133    -1.784629372374     1.007825032230
         H            3.723148668525     0.876611261867     1.570647627626     1.007825032230
         H            2.502569668525    -1.606146738133    -1.716737372374     1.007825032230
         H           -1.019312331475    -0.049692738133     1.886303627626     1.007825032230
         H           -2.648731331475     1.104772261867    -1.918447372374     1.007825032230
         H            4.923385668525    -1.488865738133    -0.992898372374     1.007825032230
         H            5.361910668525    -0.579748738133     0.461861627626     1.007825032230
         H            4.487099668525    -2.109335738133     0.602295627626     1.007825032230
         H           -2.912362331475    -1.615621738133     2.224043627626     1.007825032230
         H           -4.531553331475    -0.476408738133    -1.596963372374     1.007825032230
         H           -4.673121331475    -1.840016738133     0.479289627626     1.007825032230

  Basis Set: AUG-CC-PVTZ
    Blend: AUG-CC-PVTZ
  Basis Set: (AUG-CC-PVTZ AUX)
    Blend: AUG-CC-PVTZ-JKFIT
	 Reference Energy          =    -538.4907583455484428 [Eh]
	 Singles Energy            =      -0.0000000000000000 [Eh]
	 Same-Spin Energy          =      -0.6080324135834022 [Eh]
	 Opposite-Spin Energy      =      -1.9349220714333846 [Eh]
	 Correlation Energy        =      -2.5429544850167867 [Eh]
	 Total Energy              =    -541.0337128305652641 [Eh]

	 ================> DF-SCS-MP2 Energies <==================
	-----------------------------------------------------------
	 SCS Same-Spin Scale       =       0.3333333333333333 [-]
	 SCS Opposite-Spin Scale   =       1.2000000000000000 [-]
	 SCS Same-Spin Energy      =      -0.2026774711944674 [Eh]
	 SCS Opposite-Spin Energy  =      -2.3219064857200613 [Eh]
	 SCS Correlation Energy    =      -2.5245839569145287 [Eh]
	 SCS Total Energy          =    -541.0153423024629546 [Eh]
	-----------------------------------------------------------

  Dipole Moment: [D]
     X:     0.3397      Y:    -0.1216      Z:     0.0110     Total:     0.3610

*** Psi4 exiting successfully. Buy a developer a beer!
