                               Psi4 1.4a3.dev225

  ==> Input File <==

--------------------------------------------------------------------------
#psi4
#
memory 32 gb

molecule  {
0 1
  C       -0.5824800     1.6044310    -0.2213210
  C        0.7517090     0.8972820    -0.1584330
  C       -1.7393840     0.6486410    -0.0371650
  C        1.7237550     1.2518080     0.7820810
  C        1.0412590    -0.1412430    -1.0548500
  C        3.2457950    -0.4451680    -0.0684180
  C        2.9517370     0.5872480     0.8282550
  C        2.2676820    -0.7996710    -1.0091590
  C       -1.8261890    -0.1288690     1.1267200
  C       -2.7336970     0.5134260    -1.0120210
  C        4.5537390    -1.1898250     0.0022800
  C       -2.8866350    -1.0143110     1.3128170
  C       -3.7965280    -0.3760470    -0.8307700
  C       -3.8763200    -1.1410390     0.3331560
  H       -0.6887990     2.1194610    -1.1851540
  H       -0.6152960     2.3835930     0.5515720
  H        1.5214970     2.0586850     1.4854080
  H        0.2921320    -0.4400260    -1.7869590
  H        3.6942270     0.8828880     1.5683180
  H        2.4736480    -1.5998700    -1.7190670
  H       -1.0482340    -0.0434160     1.8839740
  H       -2.6776530     1.1110490    -1.9207770
  H        4.8944640    -1.4825890    -0.9952280
  H        5.3329890    -0.5734720     0.4595320
  H        4.4581780    -2.1030590     0.5999660
  H       -2.9412840    -1.6093450     2.2217140
  H       -4.5604750    -0.4701320    -1.5992930
  H       -4.7020430    -1.8337400     0.4769600
units angstrom
no_reorient  #important for SAPT in psi4, default
symmetry c1  #important for SAPT in psi4, default
}

set PROPERTIES_ORIGIN ["COM"]
properties('MP2/aug-cc-pvtz', properties = ['dipole'])
--------------------------------------------------------------------------

    Molecular point group: c1
  Charge       = 0
  Multiplicity = 1
  Basis Set: AUG-CC-PVTZ
    Blend: AUG-CC-PVTZ
  Basis Set: (AUG-CC-PVTZ AUX)
    Blend: AUG-CC-PVTZ-JKFIT

    Orbital Energies [Eh]
    ---------------------

    Doubly Occupied:

       1A    -11.241077     2A    -11.238379     3A    -11.236941
       4A    -11.235287     5A    -11.235028     6A    -11.234542
       7A    -11.231516     8A    -11.231267     9A    -11.231191
      10A    -11.229899    11A    -11.229434    12A    -11.229157
      13A    -11.228672    14A    -11.222982    15A     -1.160658
      16A     -1.145259    17A     -1.073812    18A     -1.024007
      19A     -1.010176    20A     -1.008130    21A     -0.957292
      22A     -0.896242    23A     -0.828102    24A     -0.822843
      25A     -0.802946    26A     -0.774595    27A     -0.693384
      28A     -0.667871    29A     -0.648371    30A     -0.635109
      31A     -0.628552    32A     -0.617687    33A     -0.582812
      34A     -0.578764    35A     -0.575239    36A     -0.569430
      37A     -0.559879    38A     -0.548420    39A     -0.528004
      40A     -0.502904    41A     -0.491380    42A     -0.490220
      43A     -0.477617    44A     -0.473513    45A     -0.471304
      46A     -0.337099    47A     -0.333707    48A     -0.329285
      49A     -0.307312

  @DF-RHF Final Energy:  -538.49383495983295

   => Energetics <=

    Nuclear Repulsion Energy =            785.9652159896580770
    One-Electron Energy =               -2287.3035036887017668
    Two-Electron Energy =                 962.8444527392106238
    Total Energy =                       -538.4938349598329523
  Basis Set: (AUG-CC-PVTZ AUX)
    Blend: AUG-CC-PVTZ-RI
    Molecular point group: c1

    Geometry (in Angstrom), charge = 0, multiplicity = 1:

       Center              X                  Y                   Z               Mass
    ------------   -----------------  -----------------  -----------------  -----------------
         C           -0.552877945413     1.595713921979    -0.221097785788    12.000000000000
         C            0.781311054587     0.888564921979    -0.158209785788    12.000000000000
         C           -1.709781945413     0.639923921979    -0.036941785788    12.000000000000
         C            1.753357054587     1.243090921979     0.782304214212    12.000000000000
         C            1.070861054587    -0.149960078021    -1.054626785788    12.000000000000
         C            3.275397054587    -0.453885078021    -0.068194785788    12.000000000000
         C            2.981339054587     0.578530921979     0.828478214212    12.000000000000
         C            2.297284054587    -0.808388078021    -1.008935785788    12.000000000000
         C           -1.796586945413    -0.137586078021     1.126943214212    12.000000000000
         C           -2.704094945413     0.504708921979    -1.011797785788    12.000000000000
         C            4.583341054587    -1.198542078021     0.002503214212    12.000000000000
         C           -2.857032945413    -1.023028078021     1.313040214212    12.000000000000
         C           -3.766925945413    -0.384764078021    -0.830546785788    12.000000000000
         C           -3.846717945413    -1.149756078021     0.333379214212    12.000000000000
         H           -0.659196945413     2.110743921979    -1.184930785788     1.007825032230
         H           -0.585693945413     2.374875921979     0.551795214212     1.007825032230
         H            1.551099054587     2.049967921979     1.485631214212     1.007825032230
         H            0.321734054587    -0.448743078021    -1.786735785788     1.007825032230
         H            3.723829054587     0.874170921979     1.568541214212     1.007825032230
         H            2.503250054587    -1.608587078021    -1.718843785788     1.007825032230
         H           -1.018631945413    -0.052133078021     1.884197214212     1.007825032230
         H           -2.648050945413     1.102331921979    -1.920553785788     1.007825032230
         H            4.924066054587    -1.491306078021    -0.995004785788     1.007825032230
         H            5.362591054587    -0.582189078021     0.459755214212     1.007825032230
         H            4.487780054587    -2.111776078021     0.600189214212     1.007825032230
         H           -2.911681945413    -1.618062078021     2.221937214212     1.007825032230
         H           -4.530872945413    -0.478849078021    -1.599069785788     1.007825032230
         H           -4.672440945413    -1.842457078021     0.477183214212     1.007825032230

  Basis Set: AUG-CC-PVTZ
    Blend: AUG-CC-PVTZ
  Basis Set: (AUG-CC-PVTZ AUX)
    Blend: AUG-CC-PVTZ-JKFIT
	 Reference Energy          =    -538.4938349598329523 [Eh]
	 Singles Energy            =      -0.0000000000000000 [Eh]
	 Same-Spin Energy          =      -0.6081939110688033 [Eh]
	 Opposite-Spin Energy      =      -1.9347391336672377 [Eh]
	 Correlation Energy        =      -2.5429330447360412 [Eh]
	 Total Energy              =    -541.0367680045690122 [Eh]

	 ================> DF-SCS-MP2 Energies <==================
	-----------------------------------------------------------
	 SCS Same-Spin Scale       =       0.3333333333333333 [-]
	 SCS Opposite-Spin Scale   =       1.2000000000000000 [-]
	 SCS Same-Spin Energy      =      -0.2027313036896011 [Eh]
	 SCS Opposite-Spin Energy  =      -2.3216869604006853 [Eh]
	 SCS Correlation Energy    =      -2.5244182640902864 [Eh]
	 SCS Total Energy          =    -541.0182532239232387 [Eh]
	-----------------------------------------------------------

  Dipole Moment: [D]
     X:     0.3628      Y:    -0.1297      Z:     0.0101     Total:     0.3854

*** Psi4 exiting successfully. Buy a developer a beer!
