                               Psi4 1.4a3.dev225

  ==> Input File <==

--------------------------------------------------------------------------
#psi4
#
memory 32 gb

molecule  {
0 1
  C       -0.5824800     1.6044310    -0.2213210
  C        0.7517090     0.8972820    -0.1584330
  C       -1.7393840     0.6486410    -0.0371650
  C        1.7237550     1.2518080     0.7820810
  C        1.0825608    -0.2893795    -1.1827161
  C        3.2457950    -0.4451680    -0.0684180
  C        2.9517370     0.5872480     0.8282550
  C        2.2676820    -0.7996710    -1.0091590
  C       -1.8261890    -0.1288690     1.1267200
  C       -2.7336970     0.5134260    -1.0120210
  C        4.5537390    -1.1898250     0.0022800
  C       -2.8866350    -1.0143110     1.3128170
  C       -3.7965280    -0.3760470    -0.8307700
  C       -3.8763200    -1.1410390     0.3331560
  H       -0.6887990     2.1194610    -1.1851540
  H       -0.6152960     2.3835930     0.5515720
  H        1.5214970     2.0586850     1.4854080
  H        0.2921320    -0.4400260    -1.7869590
  H        3.6942270     0.8828880     1.5683180
  H        2.4736480    -1.5998700    -1.7190670
  H       -1.0482340    -0.0434160     1.8839740
  H       -2.6776530     1.1110490    -1.9207770
  H        4.8944640    -1.4825890    -0.9952280
  H        5.3329890    -0.5734720     0.4595320
  H        4.4581780    -2.1030590     0.5999660
  H       -2.9412840    -1.6093450     2.2217140
  H       -4.5604750    -0.4701320    -1.5992930
  H       -4.7020430    -1.8337400     0.4769600
units angstrom
no_reorient  #important for SAPT in psi4, default
symmetry c1  #important for SAPT in psi4, default
}

set PROPERTIES_ORIGIN ["COM"]
properties('MP2/aug-cc-pvtz', properties = ['dipole'])
--------------------------------------------------------------------------

    Molecular point group: c1
  Charge       = 0
  Multiplicity = 1
  Basis Set: AUG-CC-PVTZ
    Blend: AUG-CC-PVTZ
  Basis Set: (AUG-CC-PVTZ AUX)
    Blend: AUG-CC-PVTZ-JKFIT

    Orbital Energies [Eh]
    ---------------------

    Doubly Occupied:

       1A    -11.251951     2A    -11.241809     3A    -11.238208
       4A    -11.236534     5A    -11.235777     6A    -11.235110
       7A    -11.232450     8A    -11.232058     9A    -11.231882
      10A    -11.230195    11A    -11.229928    12A    -11.227626
      13A    -11.222967    14A    -11.221952    15A     -1.156716
      16A     -1.143170    17A     -1.069216    18A     -1.024947
      19A     -1.018857    20A     -1.010726    21A     -0.957604
      22A     -0.889851    23A     -0.828021    24A     -0.822142
      25A     -0.802511    26A     -0.773677    27A     -0.693439
      28A     -0.677961    29A     -0.654315    30A     -0.635037
      31A     -0.629715    32A     -0.621311    33A     -0.587927
      34A     -0.583266    35A     -0.574635    36A     -0.569690
      37A     -0.556478    38A     -0.542341    39A     -0.526320
      40A     -0.509510    41A     -0.492888    42A     -0.490395
      43A     -0.478531    44A     -0.470875    45A     -0.441538
      46A     -0.352130    47A     -0.335295    48A     -0.329647
      49A     -0.293564

  @DF-RHF Final Energy:  -538.45294224398731

   => Energetics <=

    Nuclear Repulsion Energy =            783.5327026680151903
    One-Electron Energy =               -2282.3459008531440304
    Two-Electron Energy =                 960.3602559411415314
    Total Energy =                       -538.4529422439873088
  Basis Set: (AUG-CC-PVTZ AUX)
    Blend: AUG-CC-PVTZ-RI
    Molecular point group: c1

    Geometry (in Angstrom), charge = 0, multiplicity = 1:

       Center              X                  Y                   Z               Mass
    ------------   -----------------  -----------------  -----------------  -----------------
         C           -0.555599502842     1.605475288121    -0.212672125540    12.000000000000
         C            0.778589497158     0.898326288121    -0.149784125540    12.000000000000
         C           -1.712503502842     0.649685288121    -0.028516125540    12.000000000000
         C            1.750635497158     1.252852288121     0.790729874460    12.000000000000
         C            1.109441297158    -0.288335211879    -1.174067225540    12.000000000000
         C            3.272675497158    -0.444123711879    -0.059769125540    12.000000000000
         C            2.978617497158     0.588292288121     0.836903874460    12.000000000000
         C            2.294562497158    -0.798626711879    -1.000510125540    12.000000000000
         C           -1.799308502842    -0.127824711879     1.135368874460    12.000000000000
         C           -2.706816502842     0.514470288121    -1.003372125540    12.000000000000
         C            4.580619497158    -1.188780711879     0.010928874460    12.000000000000
         C           -2.859754502842    -1.013266711879     1.321465874460    12.000000000000
         C           -3.769647502842    -0.375002711879    -0.822121125540    12.000000000000
         C           -3.849439502842    -1.139994711879     0.341804874460    12.000000000000
         H           -0.661918502842     2.120505288121    -1.176505125540     1.007825032230
         H           -0.588415502842     2.384637288121     0.560220874460     1.007825032230
         H            1.548377497158     2.059729288121     1.494056874460     1.007825032230
         H            0.319012497158    -0.438981711879    -1.778310125540     1.007825032230
         H            3.721107497158     0.883932288121     1.576966874460     1.007825032230
         H            2.500528497158    -1.598825711879    -1.710418125540     1.007825032230
         H           -1.021353502842    -0.042371711879     1.892622874460     1.007825032230
         H           -2.650772502842     1.112093288121    -1.912128125540     1.007825032230
         H            4.921344497158    -1.481544711879    -0.986579125540     1.007825032230
         H            5.359869497158    -0.572427711879     0.468180874460     1.007825032230
         H            4.485058497158    -2.102014711879     0.608614874460     1.007825032230
         H           -2.914403502842    -1.608300711879     2.230362874460     1.007825032230
         H           -4.533594502842    -0.469087711879    -1.590644125540     1.007825032230
         H           -4.675162502842    -1.832695711879     0.485608874460     1.007825032230

  Basis Set: AUG-CC-PVTZ
    Blend: AUG-CC-PVTZ
  Basis Set: (AUG-CC-PVTZ AUX)
    Blend: AUG-CC-PVTZ-JKFIT
	 Reference Energy          =    -538.4529422439873088 [Eh]
	 Singles Energy            =      -0.0000000000000000 [Eh]
	 Same-Spin Energy          =      -0.6074827610969254 [Eh]
	 Opposite-Spin Energy      =      -1.9369547896875146 [Eh]
	 Correlation Energy        =      -2.5444375507844401 [Eh]
	 Total Energy              =    -540.9973797947717458 [Eh]

	 ================> DF-SCS-MP2 Energies <==================
	-----------------------------------------------------------
	 SCS Same-Spin Scale       =       0.3333333333333333 [-]
	 SCS Opposite-Spin Scale   =       1.2000000000000000 [-]
	 SCS Same-Spin Energy      =      -0.2024942536989751 [Eh]
	 SCS Opposite-Spin Energy  =      -2.3243457476250176 [Eh]
	 SCS Correlation Energy    =      -2.5268400013239929 [Eh]
	 SCS Total Energy          =    -540.9797822453112985 [Eh]
	-----------------------------------------------------------

  Dipole Moment: [D]
     X:     0.2995      Y:    -0.1085      Z:     0.0135     Total:     0.3189

*** Psi4 exiting successfully. Buy a developer a beer!
