                               Psi4 1.4a3.dev225

  ==> Input File <==

--------------------------------------------------------------------------
#psi4
#
memory 32 gb

molecule  {
0 1
  C       -0.6026611     1.6184003    -0.2680389
  C        0.7517090     0.8972820    -0.1584330
  C       -1.7393840     0.6486410    -0.0371650
  C        1.7237550     1.2518080     0.7820810
  C        1.0412590    -0.1412430    -1.0548500
  C        3.2457950    -0.4451680    -0.0684180
  C        2.9517370     0.5872480     0.8282550
  C        2.2676820    -0.7996710    -1.0091590
  C       -1.8261890    -0.1288690     1.1267200
  C       -2.7336970     0.5134260    -1.0120210
  C        4.5537390    -1.1898250     0.0022800
  C       -2.8866350    -1.0143110     1.3128170
  C       -3.7965280    -0.3760470    -0.8307700
  C       -3.8763200    -1.1410390     0.3331560
  H       -0.6887990     2.1194610    -1.1851540
  H       -0.6152960     2.3835930     0.5515720
  H        1.5214970     2.0586850     1.4854080
  H        0.2921320    -0.4400260    -1.7869590
  H        3.6942270     0.8828880     1.5683180
  H        2.4736480    -1.5998700    -1.7190670
  H       -1.0482340    -0.0434160     1.8839740
  H       -2.6776530     1.1110490    -1.9207770
  H        4.8944640    -1.4825890    -0.9952280
  H        5.3329890    -0.5734720     0.4595320
  H        4.4581780    -2.1030590     0.5999660
  H       -2.9412840    -1.6093450     2.2217140
  H       -4.5604750    -0.4701320    -1.5992930
  H       -4.7020430    -1.8337400     0.4769600
units angstrom
no_reorient  #important for SAPT in psi4, default
symmetry c1  #important for SAPT in psi4, default
}

set PROPERTIES_ORIGIN ["COM"]
properties('MP2/aug-cc-pvtz', properties = ['dipole'])
--------------------------------------------------------------------------

    Molecular point group: c1
  Charge       = 0
  Multiplicity = 1
  Basis Set: AUG-CC-PVTZ
    Blend: AUG-CC-PVTZ
  Basis Set: (AUG-CC-PVTZ AUX)
    Blend: AUG-CC-PVTZ-JKFIT

    Orbital Energies [Eh]
    ---------------------

    Doubly Occupied:

       1A    -11.241445     2A    -11.238389     3A    -11.237985
       4A    -11.235028     5A    -11.234928     6A    -11.234670
       7A    -11.231628     8A    -11.231062     9A    -11.230566
      10A    -11.230004    11A    -11.229510    12A    -11.229278
      13A    -11.228275    14A    -11.222963    15A     -1.159785
      16A     -1.145132    17A     -1.072148    18A     -1.024260
      19A     -1.010063    20A     -1.007943    21A     -0.956225
      22A     -0.897621    23A     -0.827524    24A     -0.822789
      25A     -0.802464    26A     -0.775292    27A     -0.693001
      28A     -0.667915    29A     -0.647432    30A     -0.637038
      31A     -0.628044    32A     -0.617122    33A     -0.583221
      34A     -0.578630    35A     -0.575857    36A     -0.570895
      37A     -0.557196    38A     -0.550018    39A     -0.529160
      40A     -0.502610    41A     -0.491717    42A     -0.488857
      43A     -0.477039    44A     -0.475001    45A     -0.469073
      46A     -0.337052    47A     -0.333544    48A     -0.329113
      49A     -0.307393

  @DF-RHF Final Energy:  -538.49103128242450

   => Energetics <=

    Nuclear Repulsion Energy =            785.5536834787820908
    One-Electron Energy =               -2286.4816202722458911
    Two-Electron Energy =                 962.4369055110391855
    Total Energy =                       -538.4910312824245011
  Basis Set: (AUG-CC-PVTZ AUX)
    Blend: AUG-CC-PVTZ-RI
    Molecular point group: c1

    Geometry (in Angstrom), charge = 0, multiplicity = 1:

       Center              X                  Y                   Z               Mass
    ------------   -----------------  -----------------  -----------------  -----------------
         C           -0.571729223888     1.608762723303    -0.264737237686    12.000000000000
         C            0.782640876112     0.887644423303    -0.155131337686    12.000000000000
         C           -1.708452123888     0.639003423303    -0.033863337686    12.000000000000
         C            1.754686876112     1.242170423303     0.785382662314    12.000000000000
         C            1.072190876112    -0.150880576697    -1.051548337686    12.000000000000
         C            3.276726876112    -0.454805576697    -0.065116337686    12.000000000000
         C            2.982668876112     0.577610423303     0.831556662314    12.000000000000
         C            2.298613876112    -0.809308576697    -1.005857337686    12.000000000000
         C           -1.795257123888    -0.138506576697     1.130021662314    12.000000000000
         C           -2.702765123888     0.503788423303    -1.008719337686    12.000000000000
         C            4.584670876112    -1.199462576697     0.005581662314    12.000000000000
         C           -2.855703123888    -1.023948576697     1.316118662314    12.000000000000
         C           -3.765596123888    -0.385684576697    -0.827468337686    12.000000000000
         C           -3.845388123888    -1.150676576697     0.336457662314    12.000000000000
         H           -0.657867123888     2.109823423303    -1.181852337686     1.007825032230
         H           -0.584364123888     2.373955423303     0.554873662314     1.007825032230
         H            1.552428876112     2.049047423303     1.488709662314     1.007825032230
         H            0.323063876112    -0.449663576697    -1.783657337686     1.007825032230
         H            3.725158876112     0.873250423303     1.571619662314     1.007825032230
         H            2.504579876112    -1.609507576697    -1.715765337686     1.007825032230
         H           -1.017302123888    -0.053053576697     1.887275662314     1.007825032230
         H           -2.646721123888     1.101411423303    -1.917475337686     1.007825032230
         H            4.925395876112    -1.492226576697    -0.991926337686     1.007825032230
         H            5.363920876112    -0.583109576697     0.462833662314     1.007825032230
         H            4.489109876112    -2.112696576697     0.603267662314     1.007825032230
         H           -2.910352123888    -1.618982576697     2.225015662314     1.007825032230
         H           -4.529543123888    -0.479769576697    -1.595991337686     1.007825032230
         H           -4.671111123888    -1.843377576697     0.480261662314     1.007825032230

  Basis Set: AUG-CC-PVTZ
    Blend: AUG-CC-PVTZ
  Basis Set: (AUG-CC-PVTZ AUX)
    Blend: AUG-CC-PVTZ-JKFIT
	 Reference Energy          =    -538.4910312824245011 [Eh]
	 Singles Energy            =      -0.0000000000000000 [Eh]
	 Same-Spin Energy          =      -0.6080551590871518 [Eh]
	 Opposite-Spin Energy      =      -1.9346880131819477 [Eh]
	 Correlation Energy        =      -2.5427431722690996 [Eh]
	 Total Energy              =    -541.0337744546935710 [Eh]

	 ================> DF-SCS-MP2 Energies <==================
	-----------------------------------------------------------
	 SCS Same-Spin Scale       =       0.3333333333333333 [-]
	 SCS Opposite-Spin Scale   =       1.2000000000000000 [-]
	 SCS Same-Spin Energy      =      -0.2026850530290506 [Eh]
	 SCS Opposite-Spin Energy  =      -2.3216256158183373 [Eh]
	 SCS Correlation Energy    =      -2.5243106688473880 [Eh]
	 SCS Total Energy          =    -541.0153419512719211 [Eh]
	-----------------------------------------------------------

  Dipole Moment: [D]
     X:     0.3804      Y:    -0.1183      Z:    -0.0207     Total:     0.3989

*** Psi4 exiting successfully. Buy a developer a beer!
