                               Psi4 1.4a3.dev225

  ==> Input File <==

--------------------------------------------------------------------------
#psi4
#
memory 32 gb

molecule  {
0 1
  C       -0.5824800     1.6044310    -0.2213210
  C        0.7517090     0.8972820    -0.1584330
  C       -1.7393840     0.6486410    -0.0371650
  C        1.7585141     1.2644854     0.8157126
  C        1.0412590    -0.1412430    -1.0548500
  C        3.2457950    -0.4451680    -0.0684180
  C        2.9517370     0.5872480     0.8282550
  C        2.2676820    -0.7996710    -1.0091590
  C       -1.8261890    -0.1288690     1.1267200
  C       -2.7336970     0.5134260    -1.0120210
  C        4.5537390    -1.1898250     0.0022800
  C       -2.8866350    -1.0143110     1.3128170
  C       -3.7965280    -0.3760470    -0.8307700
  C       -3.8763200    -1.1410390     0.3331560
  H       -0.6887990     2.1194610    -1.1851540
  H       -0.6152960     2.3835930     0.5515720
  H        1.5214970     2.0586850     1.4854080
  H        0.2921320    -0.4400260    -1.7869590
  H        3.6942270     0.8828880     1.5683180
  H        2.4736480    -1.5998700    -1.7190670
  H       -1.0482340    -0.0434160     1.8839740
  H       -2.6776530     1.1110490    -1.9207770
  H        4.8944640    -1.4825890    -0.9952280
  H        5.3329890    -0.5734720     0.4595320
  H        4.4581780    -2.1030590     0.5999660
  H       -2.9412840    -1.6093450     2.2217140
  H       -4.5604750    -0.4701320    -1.5992930
  H       -4.7020430    -1.8337400     0.4769600
units angstrom
no_reorient  #important for SAPT in psi4, default
symmetry c1  #important for SAPT in psi4, default
}

set PROPERTIES_ORIGIN ["COM"]
properties('MP2/aug-cc-pvtz', properties = ['dipole'])
--------------------------------------------------------------------------

    Molecular point group: c1
  Charge       = 0
  Multiplicity = 1
  Basis Set: AUG-CC-PVTZ
    Blend: AUG-CC-PVTZ
  Basis Set: (AUG-CC-PVTZ AUX)
    Blend: AUG-CC-PVTZ-JKFIT

    Orbital Energies [Eh]
    ---------------------

    Doubly Occupied:

       1A    -11.241828     2A    -11.241198     3A    -11.238248
       4A    -11.235761     5A    -11.235005     6A    -11.234505
       7A    -11.231920     8A    -11.231499     9A    -11.231232
      10A    -11.229729    11A    -11.229424    12A    -11.228190
      13A    -11.227443    14A    -11.222965    15A     -1.159051
      16A     -1.144479    17A     -1.072383    18A     -1.022214
      19A     -1.011958    20A     -1.010063    21A     -0.957603
      22A     -0.894089    23A     -0.826744    24A     -0.822440
      25A     -0.804393    26A     -0.774157    27A     -0.693195
      28A     -0.668700    29A     -0.648424    30A     -0.635881
      31A     -0.631475    32A     -0.615445    33A     -0.582716
      34A     -0.582095    35A     -0.575103    36A     -0.569529
      37A     -0.558627    38A     -0.547695    39A     -0.527221
      40A     -0.503441    41A     -0.492380    42A     -0.489457
      43A     -0.480810    44A     -0.471848    45A     -0.467249
      46A     -0.340109    47A     -0.334071    48A     -0.328075
      49A     -0.303602

  @DF-RHF Final Energy:  -538.49034263214321

   => Energetics <=

    Nuclear Repulsion Energy =            785.2590855737913671
    One-Electron Energy =               -2285.8875145720267028
    Two-Electron Energy =                 962.1380863660922387
    Total Energy =                       -538.4903426321432107
  Basis Set: (AUG-CC-PVTZ AUX)
    Blend: AUG-CC-PVTZ-RI
    Molecular point group: c1

    Geometry (in Angstrom), charge = 0, multiplicity = 1:

       Center              X                  Y                   Z               Mass
    ------------   -----------------  -----------------  -----------------  -----------------
         C           -0.555168375536     1.594878552282    -0.223313919972    12.000000000000
         C            0.779020624464     0.887729552282    -0.160425919972    12.000000000000
         C           -1.712072375536     0.639088552282    -0.039157919972    12.000000000000
         C            1.785825724464     1.254932952282     0.813719680028    12.000000000000
         C            1.068570624464    -0.150795447718    -1.056842919972    12.000000000000
         C            3.273106624464    -0.454720447718    -0.070410919972    12.000000000000
         C            2.979048624464     0.577695552282     0.826262080028    12.000000000000
         C            2.294993624464    -0.809223447718    -1.011151919972    12.000000000000
         C           -1.798877375536    -0.138421447718     1.124727080028    12.000000000000
         C           -2.706385375536     0.503873552282    -1.014013919972    12.000000000000
         C            4.581050624464    -1.199377447718     0.000287080028    12.000000000000
         C           -2.859323375536    -1.023863447718     1.310824080028    12.000000000000
         C           -3.769216375536    -0.385599447718    -0.832762919972    12.000000000000
         C           -3.849008375536    -1.150591447718     0.331163080028    12.000000000000
         H           -0.661487375536     2.109908552282    -1.187146919972     1.007825032230
         H           -0.587984375536     2.374040552282     0.549579080028     1.007825032230
         H            1.548808624464     2.049132552282     1.483415080028     1.007825032230
         H            0.319443624464    -0.449578447718    -1.788951919972     1.007825032230
         H            3.721538624464     0.873335552282     1.566325080028     1.007825032230
         H            2.500959624464    -1.609422447718    -1.721059919972     1.007825032230
         H           -1.020922375536    -0.052968447718     1.881981080028     1.007825032230
         H           -2.650341375536     1.101496552282    -1.922769919972     1.007825032230
         H            4.921775624464    -1.492141447718    -0.997220919972     1.007825032230
         H            5.360300624464    -0.583024447718     0.457539080028     1.007825032230
         H            4.485489624464    -2.112611447718     0.597973080028     1.007825032230
         H           -2.913972375536    -1.618897447718     2.219721080028     1.007825032230
         H           -4.533163375536    -0.479684447718    -1.601285919972     1.007825032230
         H           -4.674731375536    -1.843292447718     0.474967080028     1.007825032230

  Basis Set: AUG-CC-PVTZ
    Blend: AUG-CC-PVTZ
  Basis Set: (AUG-CC-PVTZ AUX)
    Blend: AUG-CC-PVTZ-JKFIT
	 Reference Energy          =    -538.4903426321432107 [Eh]
	 Singles Energy            =      -0.0000000000000000 [Eh]
	 Same-Spin Energy          =      -0.6082904637760944 [Eh]
	 Opposite-Spin Energy      =      -1.9350653789840613 [Eh]
	 Correlation Energy        =      -2.5433558427601559 [Eh]
	 Total Energy              =    -541.0336984749034173 [Eh]

	 ================> DF-SCS-MP2 Energies <==================
	-----------------------------------------------------------
	 SCS Same-Spin Scale       =       0.3333333333333333 [-]
	 SCS Opposite-Spin Scale   =       1.2000000000000000 [-]
	 SCS Same-Spin Energy      =      -0.2027634879253648 [Eh]
	 SCS Opposite-Spin Energy  =      -2.3220784547808733 [Eh]
	 SCS Correlation Energy    =      -2.5248419427062379 [Eh]
	 SCS Total Energy          =    -541.0151845748493997 [Eh]
	-----------------------------------------------------------

  Dipole Moment: [D]
     X:     0.3519      Y:    -0.1170      Z:     0.0116     Total:     0.3710

*** Psi4 exiting successfully. Buy a developer a beer!
