                               Psi4 1.4a3.dev225

  ==> Input File <==

--------------------------------------------------------------------------
#psi4
#
memory 32 gb

molecule  {
0 1
  C       -0.5824800     1.6044310    -0.2213210
  C        0.7517090     0.8972820    -0.1584330
  C       -1.7393840     0.6486410    -0.0371650
  C        1.7237550     1.2518080     0.7820810
  C        1.0412590    -0.1412430    -1.0548500
  C        3.2457950    -0.4451680    -0.0684180
  C        2.9517370     0.5872480     0.8282550
  C        2.2676820    -0.7996710    -1.0091590
  C       -1.8261890    -0.1288690     1.1267200
  C       -2.7336970     0.5134260    -1.0120210
  C        4.5537390    -1.1898250     0.0022800
  C       -2.8866350    -1.0143110     1.3128170
  C       -3.7965280    -0.3760470    -0.8307700
  C       -3.8763200    -1.1410390     0.3331560
  H       -0.6887990     2.1194610    -1.1851540
  H       -0.6152960     2.3835930     0.5515720
  H        1.5214970     2.0586850     1.4854080
  H        0.2921320    -0.4400260    -1.7869590
  H        3.6942270     0.8828880     1.5683180
  H        2.4736480    -1.5998700    -1.7190670
  H       -1.0482340    -0.0434160     1.8839740
  H       -2.6879448     1.0013025    -1.7538945
  H        4.8944640    -1.4825890    -0.9952280
  H        5.3329890    -0.5734720     0.4595320
  H        4.4581780    -2.1030590     0.5999660
  H       -2.9412840    -1.6093450     2.2217140
  H       -4.5604750    -0.4701320    -1.5992930
  H       -4.7020430    -1.8337400     0.4769600
units angstrom
no_reorient  #important for SAPT in psi4, default
symmetry c1  #important for SAPT in psi4, default
}

set PROPERTIES_ORIGIN ["COM"]
properties('MP2/aug-cc-pvtz', properties = ['dipole'])
--------------------------------------------------------------------------

    Molecular point group: c1
  Charge       = 0
  Multiplicity = 1
  Basis Set: AUG-CC-PVTZ
    Blend: AUG-CC-PVTZ
  Basis Set: (AUG-CC-PVTZ AUX)
    Blend: AUG-CC-PVTZ-JKFIT

    Orbital Energies [Eh]
    ---------------------

    Doubly Occupied:

       1A    -11.239552     2A    -11.238429     3A    -11.237090
       4A    -11.235525     5A    -11.233971     6A    -11.233455
       7A    -11.231254     8A    -11.230070     9A    -11.230016
      10A    -11.229222    11A    -11.228787    12A    -11.228047
      13A    -11.223015    14A    -11.207189    15A     -1.161284
      16A     -1.145903    17A     -1.073629    18A     -1.026444
      19A     -1.016037    20A     -1.008273    21A     -0.958452
      22A     -0.897350    23A     -0.838652    24A     -0.826882
      25A     -0.804563    26A     -0.774739    27A     -0.707573
      28A     -0.670028    29A     -0.650707    30A     -0.640871
      31A     -0.630352    32A     -0.618893    33A     -0.588997
      34A     -0.578830    35A     -0.576419    36A     -0.570667
      37A     -0.560341    38A     -0.549351    39A     -0.528282
      40A     -0.503205    41A     -0.496240    42A     -0.489853
      43A     -0.477564    44A     -0.473514    45A     -0.471091
      46A     -0.336647    47A     -0.333228    48A     -0.328901
      49A     -0.306999

  @DF-RHF Final Energy:  -538.45973476188078

   => Energetics <=

    Nuclear Repulsion Energy =            787.1287522508941947
    One-Electron Energy =               -2289.4842115302785714
    Two-Electron Energy =                 963.8957245175035951
    Total Energy =                       -538.4597347618807817
  Basis Set: (AUG-CC-PVTZ AUX)
    Blend: AUG-CC-PVTZ-RI
    Molecular point group: c1

    Geometry (in Angstrom), charge = 0, multiplicity = 1:

       Center              X                  Y                   Z               Mass
    ------------   -----------------  -----------------  -----------------  -----------------
         C           -0.552820988852     1.596321277659    -0.222021341750    12.000000000000
         C            0.781368011148     0.889172277659    -0.159133341750    12.000000000000
         C           -1.709724988852     0.640531277659    -0.037865341750    12.000000000000
         C            1.753414011148     1.243698277659     0.781380658250    12.000000000000
         C            1.070918011148    -0.149352722341    -1.055550341750    12.000000000000
         C            3.275454011148    -0.453277722341    -0.069118341750    12.000000000000
         C            2.981396011148     0.579138277659     0.827554658250    12.000000000000
         C            2.297341011148    -0.807780722341    -1.009859341750    12.000000000000
         C           -1.796529988852    -0.136978722341     1.126019658250    12.000000000000
         C           -2.704037988852     0.505316277659    -1.012721341750    12.000000000000
         C            4.583398011148    -1.197934722341     0.001579658250    12.000000000000
         C           -2.856975988852    -1.022420722341     1.312116658250    12.000000000000
         C           -3.766868988852    -0.384156722341    -0.831470341750    12.000000000000
         C           -3.846660988852    -1.149148722341     0.332455658250    12.000000000000
         H           -0.659139988852     2.111351277659    -1.185854341750     1.007825032230
         H           -0.585636988852     2.375483277659     0.550871658250     1.007825032230
         H            1.551156011148     2.050575277659     1.484707658250     1.007825032230
         H            0.321791011148    -0.448135722341    -1.787659341750     1.007825032230
         H            3.723886011148     0.874778277659     1.567617658250     1.007825032230
         H            2.503307011148    -1.607979722341    -1.719767341750     1.007825032230
         H           -1.018574988852    -0.051525722341     1.883273658250     1.007825032230
         H           -2.658285788852     0.993192777659    -1.754594841750     1.007825032230
         H            4.924123011148    -1.490698722341    -0.995928341750     1.007825032230
         H            5.362648011148    -0.581581722341     0.458831658250     1.007825032230
         H            4.487837011148    -2.111168722341     0.599265658250     1.007825032230
         H           -2.911624988852    -1.617454722341     2.221013658250     1.007825032230
         H           -4.530815988852    -0.478241722341    -1.599993341750     1.007825032230
         H           -4.672383988852    -1.841849722341     0.476259658250     1.007825032230

  Basis Set: AUG-CC-PVTZ
    Blend: AUG-CC-PVTZ
  Basis Set: (AUG-CC-PVTZ AUX)
    Blend: AUG-CC-PVTZ-JKFIT
	 Reference Energy          =    -538.4597347618807817 [Eh]
	 Singles Energy            =      -0.0000000000000000 [Eh]
	 Same-Spin Energy          =      -0.6079205203016377 [Eh]
	 Opposite-Spin Energy      =      -1.9340634715846137 [Eh]
	 Correlation Energy        =      -2.5419839918862515 [Eh]
	 Total Energy              =    -541.0017187537670225 [Eh]

	 ================> DF-SCS-MP2 Energies <==================
	-----------------------------------------------------------
	 SCS Same-Spin Scale       =       0.3333333333333333 [-]
	 SCS Opposite-Spin Scale   =       1.2000000000000000 [-]
	 SCS Same-Spin Energy      =      -0.2026401734338792 [Eh]
	 SCS Opposite-Spin Energy  =      -2.3208761659015362 [Eh]
	 SCS Correlation Energy    =      -2.5235163393354156 [Eh]
	 SCS Total Energy          =    -540.9832511012161831 [Eh]
	-----------------------------------------------------------

  Dipole Moment: [D]
     X:     0.3747      Y:    -0.0958      Z:    -0.0301     Total:     0.3879

*** Psi4 exiting successfully. Buy a developer a beer!
