                               Psi4 1.4a3.dev225

  ==> Input File <==

--------------------------------------------------------------------------
#psi4
#
memory 32 gb

molecule  {
0 1
  C       -0.5824800     1.6044310    -0.2213210
  C        0.7517090     0.8972820    -0.1584330
  C       -1.7393840     0.6486410    -0.0371650
  C        1.7237550     1.2518080     0.7820810
  C        1.0412590    -0.1412430    -1.0548500
  C        3.2457950    -0.4451680    -0.0684180
  C        2.9952250     0.5802053     0.8492964
  C        2.2676820    -0.7996710    -1.0091590
  C       -1.8261890    -0.1288690     1.1267200
  C       -2.7336970     0.5134260    -1.0120210
  C        4.5537390    -1.1898250     0.0022800
  C       -2.8866350    -1.0143110     1.3128170
  C       -3.7965280    -0.3760470    -0.8307700
  C       -3.8763200    -1.1410390     0.3331560
  H       -0.6887990     2.1194610    -1.1851540
  H       -0.6152960     2.3835930     0.5515720
  H        1.5214970     2.0586850     1.4854080
  H        0.2921320    -0.4400260    -1.7869590
  H        3.6942270     0.8828880     1.5683180
  H        2.4736480    -1.5998700    -1.7190670
  H       -1.0482340    -0.0434160     1.8839740
  H       -2.6776530     1.1110490    -1.9207770
  H        4.8944640    -1.4825890    -0.9952280
  H        5.3329890    -0.5734720     0.4595320
  H        4.4581780    -2.1030590     0.5999660
  H       -2.9412840    -1.6093450     2.2217140
  H       -4.5604750    -0.4701320    -1.5992930
  H       -4.7020430    -1.8337400     0.4769600
units angstrom
no_reorient  #important for SAPT in psi4, default
symmetry c1  #important for SAPT in psi4, default
}

set PROPERTIES_ORIGIN ["COM"]
properties('MP2/aug-cc-pvtz', properties = ['dipole'])
--------------------------------------------------------------------------

    Molecular point group: c1
  Charge       = 0
  Multiplicity = 1
  Basis Set: AUG-CC-PVTZ
    Blend: AUG-CC-PVTZ
  Basis Set: (AUG-CC-PVTZ AUX)
    Blend: AUG-CC-PVTZ-JKFIT

    Orbital Energies [Eh]
    ---------------------

    Doubly Occupied:

       1A    -11.241092     2A    -11.239179     3A    -11.237208
       4A    -11.235544     5A    -11.235260     6A    -11.235087
       7A    -11.234576     8A    -11.231609     9A    -11.231346
      10A    -11.231041    11A    -11.229998    12A    -11.229445
      13A    -11.229445    14A    -11.221644    15A     -1.159289
      16A     -1.143621    17A     -1.074264    18A     -1.023650
      19A     -1.010230    20A     -1.004996    21A     -0.955829
      22A     -0.896010    23A     -0.831339    24A     -0.823477
      25A     -0.801706    26A     -0.774607    27A     -0.693577
      28A     -0.667623    29A     -0.646341    30A     -0.635876
      31A     -0.632911    32A     -0.618196    33A     -0.582888
      34A     -0.580952    35A     -0.574594    36A     -0.569288
      37A     -0.560868    38A     -0.547568    39A     -0.527042
      40A     -0.501507    41A     -0.493120    42A     -0.490119
      43A     -0.479238    44A     -0.471275    45A     -0.469441
      46A     -0.336217    47A     -0.332881    48A     -0.327387
      49A     -0.308645

  @DF-RHF Final Energy:  -538.49042968053277

   => Energetics <=

    Nuclear Repulsion Energy =            785.1704568579431225
    One-Electron Energy =               -2285.7036864719852929
    Two-Electron Energy =                 962.0427999335095137
    Total Energy =                       -538.4904296805327704
  Basis Set: (AUG-CC-PVTZ AUX)
    Blend: AUG-CC-PVTZ-RI
    Molecular point group: c1

    Geometry (in Angstrom), charge = 0, multiplicity = 1:

       Center              X                  Y                   Z               Mass
    ------------   -----------------  -----------------  -----------------  -----------------
         C           -0.555743561185     1.596177996487    -0.222484296267    12.000000000000
         C            0.778445438815     0.889028996487    -0.159596296267    12.000000000000
         C           -1.712647561185     0.640387996487    -0.038328296267    12.000000000000
         C            1.750491438815     1.243554996487     0.780917703733    12.000000000000
         C            1.067995438815    -0.149496003513    -1.056013296267    12.000000000000
         C            3.272531438815    -0.453421003513    -0.069581296267    12.000000000000
         C            3.021961438815     0.571952296487     0.848133103733    12.000000000000
         C            2.294418438815    -0.807924003513    -1.010322296267    12.000000000000
         C           -1.799452561185    -0.137122003513     1.125556703733    12.000000000000
         C           -2.706960561185     0.505172996487    -1.013184296267    12.000000000000
         C            4.580475438815    -1.198078003513     0.001116703733    12.000000000000
         C           -2.859898561185    -1.022564003513     1.311653703733    12.000000000000
         C           -3.769791561185    -0.384300003513    -0.831933296267    12.000000000000
         C           -3.849583561185    -1.149292003513     0.331992703733    12.000000000000
         H           -0.662062561185     2.111207996487    -1.186317296267     1.007825032230
         H           -0.588559561185     2.375339996487     0.550408703733     1.007825032230
         H            1.548233438815     2.050431996487     1.484244703733     1.007825032230
         H            0.318868438815    -0.448279003513    -1.788122296267     1.007825032230
         H            3.720963438815     0.874634996487     1.567154703733     1.007825032230
         H            2.500384438815    -1.608123003513    -1.720230296267     1.007825032230
         H           -1.021497561185    -0.051669003513     1.882810703733     1.007825032230
         H           -2.650916561185     1.102795996487    -1.921940296267     1.007825032230
         H            4.921200438815    -1.490842003513    -0.996391296267     1.007825032230
         H            5.359725438815    -0.581725003513     0.458368703733     1.007825032230
         H            4.484914438815    -2.111312003513     0.598802703733     1.007825032230
         H           -2.914547561185    -1.617598003513     2.220550703733     1.007825032230
         H           -4.533738561185    -0.478385003513    -1.600456296267     1.007825032230
         H           -4.675306561185    -1.841993003513     0.475796703733     1.007825032230

  Basis Set: AUG-CC-PVTZ
    Blend: AUG-CC-PVTZ
  Basis Set: (AUG-CC-PVTZ AUX)
    Blend: AUG-CC-PVTZ-JKFIT
	 Reference Energy          =    -538.4904296805327704 [Eh]
	 Singles Energy            =      -0.0000000000000000 [Eh]
	 Same-Spin Energy          =      -0.6081060219428361 [Eh]
	 Opposite-Spin Energy      =      -1.9350740986202368 [Eh]
	 Correlation Energy        =      -2.5431801205630729 [Eh]
	 Total Energy              =    -541.0336098010958494 [Eh]

	 ================> DF-SCS-MP2 Energies <==================
	-----------------------------------------------------------
	 SCS Same-Spin Scale       =       0.3333333333333333 [-]
	 SCS Opposite-Spin Scale   =       1.2000000000000000 [-]
	 SCS Same-Spin Energy      =      -0.2027020073142787 [Eh]
	 SCS Opposite-Spin Energy  =      -2.3220889183442841 [Eh]
	 SCS Correlation Energy    =      -2.5247909256585630 [Eh]
	 SCS Total Energy          =    -541.0152206061912921 [Eh]
	-----------------------------------------------------------

  Dipole Moment: [D]
     X:     0.3479      Y:    -0.1182      Z:     0.0190     Total:     0.3679

*** Psi4 exiting successfully. Buy a developer a beer!
