                               Psi4 1.4a3.dev225

  ==> Input File <==

--------------------------------------------------------------------------
#psi4
#
memory 32 gb

molecule  {
0 1
  C       -0.5824800     1.6044310    -0.2213210
  C        0.7517090     0.8972820    -0.1584330
  C       -1.7393840     0.6486410    -0.0371650
  C        1.7237550     1.2518080     0.7820810
  C        1.0412590    -0.1412430    -1.0548500
  C        3.2457950    -0.4451680    -0.0684180
  C        2.9517370     0.5872480     0.8282550
  C        2.2676820    -0.7996710    -1.0091590
  C       -1.8261890    -0.1288690     1.1267200
  C       -2.7336970     0.5134260    -1.0120210
  C        4.5537390    -1.1898250     0.0022800
  C       -2.8866350    -1.0143110     1.3128170
  C       -3.7965280    -0.3760470    -0.8307700
  C       -3.8820394    -1.1958732     0.4165856
  H       -0.6887990     2.1194610    -1.1851540
  H       -0.6152960     2.3835930     0.5515720
  H        1.5214970     2.0586850     1.4854080
  H        0.2921320    -0.4400260    -1.7869590
  H        3.6942270     0.8828880     1.5683180
  H        2.4736480    -1.5998700    -1.7190670
  H       -1.0482340    -0.0434160     1.8839740
  H       -2.6776530     1.1110490    -1.9207770
  H        4.8944640    -1.4825890    -0.9952280
  H        5.3329890    -0.5734720     0.4595320
  H        4.4581780    -2.1030590     0.5999660
  H       -2.9412840    -1.6093450     2.2217140
  H       -4.5604750    -0.4701320    -1.5992930
  H       -4.7020430    -1.8337400     0.4769600
units angstrom
no_reorient  #important for SAPT in psi4, default
symmetry c1  #important for SAPT in psi4, default
}

set PROPERTIES_ORIGIN ["COM"]
properties('MP2/aug-cc-pvtz', properties = ['dipole'])
--------------------------------------------------------------------------

    Molecular point group: c1
  Charge       = 0
  Multiplicity = 1
  Basis Set: AUG-CC-PVTZ
    Blend: AUG-CC-PVTZ
  Basis Set: (AUG-CC-PVTZ AUX)
    Blend: AUG-CC-PVTZ-JKFIT

    Orbital Energies [Eh]
    ---------------------

    Doubly Occupied:

       1A    -11.244765     2A    -11.242270     3A    -11.238380
       4A    -11.237192     5A    -11.235641     6A    -11.232806
       7A    -11.232018     8A    -11.231227     9A    -11.230014
      10A    -11.229988    11A    -11.229187    12A    -11.228758
      13A    -11.228673    14A    -11.222981    15A     -1.159749
      16A     -1.143029    17A     -1.073224    18A     -1.026775
      19A     -1.008258    20A     -1.005143    21A     -0.957504
      22A     -0.897688    23A     -0.828437    24A     -0.820270
      25A     -0.803956    26A     -0.775245    27A     -0.696228
      28A     -0.668560    29A     -0.648241    30A     -0.639507
      31A     -0.628357    32A     -0.616534    33A     -0.584189
      34A     -0.578622    35A     -0.574708    36A     -0.568572
      37A     -0.559599    38A     -0.548943    39A     -0.530527
      40A     -0.507417    41A     -0.491358    42A     -0.481648
      43A     -0.476238    44A     -0.474365    45A     -0.467989
      46A     -0.341288    47A     -0.334436    48A     -0.326095
      49A     -0.303922

  @DF-RHF Final Energy:  -538.48190557809198

   => Energetics <=

    Nuclear Repulsion Energy =            785.0578003147085155
    One-Electron Energy =               -2285.4583706191647252
    Two-Electron Energy =                 961.9186647263643408
    Total Energy =                       -538.4819055780919825
  Basis Set: (AUG-CC-PVTZ AUX)
    Blend: AUG-CC-PVTZ-RI
    Molecular point group: c1

    Geometry (in Angstrom), charge = 0, multiplicity = 1:

       Center              X                  Y                   Z               Mass
    ------------   -----------------  -----------------  -----------------  -----------------
         C           -0.552501068968     1.599327188819    -0.226595329424    12.000000000000
         C            0.781687931032     0.892178188819    -0.163707329424    12.000000000000
         C           -1.709405068968     0.643537188819    -0.042439329424    12.000000000000
         C            1.753733931032     1.246704188819     0.776806670576    12.000000000000
         C            1.071237931032    -0.146346811181    -1.060124329424    12.000000000000
         C            3.275773931032    -0.450271811181    -0.073692329424    12.000000000000
         C            2.981715931032     0.582144188819     0.822980670576    12.000000000000
         C            2.297660931032    -0.804774811181    -1.014433329424    12.000000000000
         C           -1.796210068968    -0.133972811181     1.121445670576    12.000000000000
         C           -2.703718068968     0.508322188819    -1.017295329424    12.000000000000
         C            4.583717931032    -1.194928811181    -0.002994329424    12.000000000000
         C           -2.856656068968    -1.019414811181     1.307542670576    12.000000000000
         C           -3.766549068968    -0.381150811181    -0.836044329424    12.000000000000
         C           -3.852060468968    -1.200977011181     0.411311270576    12.000000000000
         H           -0.658820068968     2.114357188819    -1.190428329424     1.007825032230
         H           -0.585317068968     2.378489188819     0.546297670576     1.007825032230
         H            1.551475931032     2.053581188819     1.480133670576     1.007825032230
         H            0.322110931032    -0.445129811181    -1.792233329424     1.007825032230
         H            3.724205931032     0.877784188819     1.563043670576     1.007825032230
         H            2.503626931032    -1.604973811181    -1.724341329424     1.007825032230
         H           -1.018255068968    -0.048519811181     1.878699670576     1.007825032230
         H           -2.647674068968     1.105945188819    -1.926051329424     1.007825032230
         H            4.924442931032    -1.487692811181    -1.000502329424     1.007825032230
         H            5.362967931032    -0.578575811181     0.454257670576     1.007825032230
         H            4.488156931032    -2.108162811181     0.594691670576     1.007825032230
         H           -2.911305068968    -1.614448811181     2.216439670576     1.007825032230
         H           -4.530496068968    -0.475235811181    -1.604567329424     1.007825032230
         H           -4.672064068968    -1.838843811181     0.471685670576     1.007825032230

  Basis Set: AUG-CC-PVTZ
    Blend: AUG-CC-PVTZ
  Basis Set: (AUG-CC-PVTZ AUX)
    Blend: AUG-CC-PVTZ-JKFIT
	 Reference Energy          =    -538.4819055780919825 [Eh]
	 Singles Energy            =      -0.0000000000000000 [Eh]
	 Same-Spin Energy          =      -0.6081679372493785 [Eh]
	 Opposite-Spin Energy      =      -1.9356031509522953 [Eh]
	 Correlation Energy        =      -2.5437710882016740 [Eh]
	 Total Energy              =    -541.0256766662936343 [Eh]

	 ================> DF-SCS-MP2 Energies <==================
	-----------------------------------------------------------
	 SCS Same-Spin Scale       =       0.3333333333333333 [-]
	 SCS Opposite-Spin Scale   =       1.2000000000000000 [-]
	 SCS Same-Spin Energy      =      -0.2027226457497928 [Eh]
	 SCS Opposite-Spin Energy  =      -2.3227237811427544 [Eh]
	 SCS Correlation Energy    =      -2.5254464268925472 [Eh]
	 SCS Total Energy          =    -541.0073520049845683 [Eh]
	-----------------------------------------------------------

  Dipole Moment: [D]
     X:     0.3539      Y:    -0.1296      Z:    -0.0052     Total:     0.3769

*** Psi4 exiting successfully. Buy a developer a beer!
