                               Psi4 1.4a3.dev225

  ==> Input File <==

--------------------------------------------------------------------------
#psi4
#
memory 32 gb

molecule  {
0 1
  C       -0.5824800     1.6044310    -0.2213210
  C        0.7517090     0.8972820    -0.1584330
  C       -1.7393840     0.6486410    -0.0371650
  C        1.7237550     1.2518080     0.7820810
  C        1.0412590    -0.1412430    -1.0548500
  C        3.2457950    -0.4451680    -0.0684180
  C        2.9517370     0.5872480     0.8282550
  C        2.2676820    -0.7996710    -1.0091590
  C       -1.8261890    -0.1288690     1.1267200
  C       -2.7336970     0.5134260    -1.0120210
  C        4.5537390    -1.1898250     0.0022800
  C       -2.8866350    -1.0143110     1.3128170
  C       -3.7965280    -0.3760470    -0.8307700
  C       -3.8763200    -1.1410390     0.3331560
  H       -0.6887990     2.1194610    -1.1851540
  H       -0.6152960     2.3835930     0.5515720
  H        1.5214970     2.0586850     1.4854080
  H        0.2921320    -0.4400260    -1.7869590
  H        3.6942270     0.8828880     1.5683180
  H        2.4736480    -1.5998700    -1.7190670
  H       -1.0482340    -0.0434160     1.8839740
  H       -2.6776530     1.1110490    -1.9207770
  H        4.8933993    -1.5906337    -0.9573084
  H        5.3329890    -0.5734720     0.4595320
  H        4.4581780    -2.1030590     0.5999660
  H       -2.9412840    -1.6093450     2.2217140
  H       -4.5604750    -0.4701320    -1.5992930
  H       -4.7020430    -1.8337400     0.4769600
units angstrom
no_reorient  #important for SAPT in psi4, default
symmetry c1  #important for SAPT in psi4, default
}

set PROPERTIES_ORIGIN ["COM"]
properties('MP2/aug-cc-pvtz', properties = ['dipole'])
--------------------------------------------------------------------------

    Molecular point group: c1
  Charge       = 0
  Multiplicity = 1
  Basis Set: AUG-CC-PVTZ
    Blend: AUG-CC-PVTZ
  Basis Set: (AUG-CC-PVTZ AUX)
    Blend: AUG-CC-PVTZ-JKFIT

    Orbital Energies [Eh]
    ---------------------

    Doubly Occupied:

       1A    -11.241107     2A    -11.239286     3A    -11.237016
       4A    -11.235337     5A    -11.235052     6A    -11.234565
       7A    -11.231542     8A    -11.231463     9A    -11.231292
      10A    -11.229976    11A    -11.229566    12A    -11.229461
      13A    -11.228748    14A    -11.223061    15A     -1.160737
      16A     -1.145327    17A     -1.073788    18A     -1.023931
      19A     -1.010203    20A     -1.008284    21A     -0.957410
      22A     -0.896791    23A     -0.828210    24A     -0.822927
      25A     -0.803271    26A     -0.774952    27A     -0.693472
      28A     -0.668687    29A     -0.648770    30A     -0.635278
      31A     -0.629243    32A     -0.617943    33A     -0.582820
      34A     -0.578973    35A     -0.571806    36A     -0.566591
      37A     -0.559352    38A     -0.550542    39A     -0.530162
      40A     -0.502851    41A     -0.491615    42A     -0.490346
      43A     -0.478390    44A     -0.473483    45A     -0.470557
      46A     -0.337144    47A     -0.333760    48A     -0.329240
      49A     -0.307114

  @DF-RHF Final Energy:  -538.49261590917331

   => Energetics <=

    Nuclear Repulsion Energy =            785.8886809021176987
    One-Electron Energy =               -2287.1397101866837147
    Two-Electron Energy =                 962.7584133753925926
    Total Energy =                       -538.4926159091733098
  Basis Set: (AUG-CC-PVTZ AUX)
    Blend: AUG-CC-PVTZ-RI
    Molecular point group: c1

    Geometry (in Angstrom), charge = 0, multiplicity = 1:

       Center              X                  Y                   Z               Mass
    ------------   -----------------  -----------------  -----------------  -----------------
         C           -0.552872053183     1.596311859610    -0.221307639264    12.000000000000
         C            0.781316946817     0.889162859610    -0.158419639264    12.000000000000
         C           -1.709776053183     0.640521859610    -0.037151639264    12.000000000000
         C            1.753362946817     1.243688859610     0.782094360736    12.000000000000
         C            1.070866946817    -0.149362140390    -1.054836639264    12.000000000000
         C            3.275402946817    -0.453287140390    -0.068404639264    12.000000000000
         C            2.981344946817     0.579128859610     0.828268360736    12.000000000000
         C            2.297289946817    -0.807790140390    -1.009145639264    12.000000000000
         C           -1.796581053183    -0.136988140390     1.126733360736    12.000000000000
         C           -2.704089053183     0.505306859610    -1.012007639264    12.000000000000
         C            4.583346946817    -1.197944140390     0.002293360736    12.000000000000
         C           -2.857027053183    -1.022430140390     1.312830360736    12.000000000000
         C           -3.766920053183    -0.384166140390    -0.830756639264    12.000000000000
         C           -3.846712053183    -1.149158140390     0.333169360736    12.000000000000
         H           -0.659191053183     2.111341859610    -1.185140639264     1.007825032230
         H           -0.585688053183     2.375473859610     0.551585360736     1.007825032230
         H            1.551104946817     2.050565859610     1.485421360736     1.007825032230
         H            0.321739946817    -0.448145140390    -1.786945639264     1.007825032230
         H            3.723834946817     0.874768859610     1.568331360736     1.007825032230
         H            2.503255946817    -1.607989140390    -1.719053639264     1.007825032230
         H           -1.018626053183    -0.051535140390     1.883987360736     1.007825032230
         H           -2.648045053183     1.102929859610    -1.920763639264     1.007825032230
         H            4.923007246817    -1.598752840390    -0.957295039264     1.007825032230
         H            5.362596946817    -0.581591140390     0.459545360736     1.007825032230
         H            4.487785946817    -2.111178140390     0.599979360736     1.007825032230
         H           -2.911676053183    -1.617464140390     2.221727360736     1.007825032230
         H           -4.530867053183    -0.478251140390    -1.599279639264     1.007825032230
         H           -4.672435053183    -1.841859140390     0.476973360736     1.007825032230

  Basis Set: AUG-CC-PVTZ
    Blend: AUG-CC-PVTZ
  Basis Set: (AUG-CC-PVTZ AUX)
    Blend: AUG-CC-PVTZ-JKFIT
	 Reference Energy          =    -538.4926159091733098 [Eh]
	 Singles Energy            =      -0.0000000000000000 [Eh]
	 Same-Spin Energy          =      -0.6082445920189827 [Eh]
	 Opposite-Spin Energy      =      -1.9347416206099251 [Eh]
	 Correlation Energy        =      -2.5429862126289078 [Eh]
	 Total Energy              =    -541.0356021218021851 [Eh]

	 ================> DF-SCS-MP2 Energies <==================
	-----------------------------------------------------------
	 SCS Same-Spin Scale       =       0.3333333333333333 [-]
	 SCS Opposite-Spin Scale   =       1.2000000000000000 [-]
	 SCS Same-Spin Energy      =      -0.2027481973396609 [Eh]
	 SCS Opposite-Spin Energy  =      -2.3216899447319101 [Eh]
	 SCS Correlation Energy    =      -2.5244381420715709 [Eh]
	 SCS Total Energy          =    -541.0170540512448270 [Eh]
	-----------------------------------------------------------

  Dipole Moment: [D]
     X:     0.3565      Y:    -0.1682      Z:     0.0130     Total:     0.3945

*** Psi4 exiting successfully. Buy a developer a beer!
