                               Psi4 1.4a3.dev225

  ==> Input File <==

--------------------------------------------------------------------------
#psi4
#
memory 32 gb

molecule  {
0 1
  C       -0.5824800     1.6044310    -0.2213210
  C        0.7517090     0.8972820    -0.1584330
  C       -1.7393840     0.6486410    -0.0371650
  C        1.7237550     1.2518080     0.7820810
  C        1.0412590    -0.1412430    -1.0548500
  C        3.2457950    -0.4451680    -0.0684180
  C        2.9301241     0.5902981     0.8173230
  C        2.2676820    -0.7996710    -1.0091590
  C       -1.8261890    -0.1288690     1.1267200
  C       -2.7336970     0.5134260    -1.0120210
  C        4.5537390    -1.1898250     0.0022800
  C       -2.8866350    -1.0143110     1.3128170
  C       -3.7965280    -0.3760470    -0.8307700
  C       -3.8763200    -1.1410390     0.3331560
  H       -0.6887990     2.1194610    -1.1851540
  H       -0.6152960     2.3835930     0.5515720
  H        1.5214970     2.0586850     1.4854080
  H        0.2921320    -0.4400260    -1.7869590
  H        3.6942270     0.8828880     1.5683180
  H        2.4736480    -1.5998700    -1.7190670
  H       -1.0482340    -0.0434160     1.8839740
  H       -2.6776530     1.1110490    -1.9207770
  H        4.8944640    -1.4825890    -0.9952280
  H        5.3329890    -0.5734720     0.4595320
  H        4.4581780    -2.1030590     0.5999660
  H       -2.9412840    -1.6093450     2.2217140
  H       -4.5604750    -0.4701320    -1.5992930
  H       -4.7020430    -1.8337400     0.4769600
units angstrom
no_reorient  #important for SAPT in psi4, default
symmetry c1  #important for SAPT in psi4, default
}

set PROPERTIES_ORIGIN ["COM"]
properties('MP2/aug-cc-pvtz', properties = ['dipole'])
--------------------------------------------------------------------------

    Molecular point group: c1
  Charge       = 0
  Multiplicity = 1
  Basis Set: AUG-CC-PVTZ
    Blend: AUG-CC-PVTZ
  Basis Set: (AUG-CC-PVTZ AUX)
    Blend: AUG-CC-PVTZ-JKFIT

    Orbital Energies [Eh]
    ---------------------

    Doubly Occupied:

       1A    -11.241088     2A    -11.238112     3A    -11.236908
       4A    -11.235216     5A    -11.235014     6A    -11.234540
       7A    -11.231486     8A    -11.231243     9A    -11.229609
      10A    -11.229484    11A    -11.229446    12A    -11.228235
      13A    -11.228164    14A    -11.223664    15A     -1.161606
      16A     -1.146072    17A     -1.073628    18A     -1.024572
      19A     -1.010186    20A     -1.009593    21A     -0.957968
      22A     -0.896399    23A     -0.826926    24A     -0.822242
      25A     -0.803672    26A     -0.774703    27A     -0.693323
      28A     -0.668291    29A     -0.649447    30A     -0.635077
      31A     -0.627118    32A     -0.616773    33A     -0.582816
      34A     -0.577675    35A     -0.575592    36A     -0.569456
      37A     -0.559067    38A     -0.548927    39A     -0.528476
      40A     -0.503806    41A     -0.491925    42A     -0.489241
      43A     -0.478197    44A     -0.473710    45A     -0.470373
      46A     -0.338200    47A     -0.334125    48A     -0.329726
      49A     -0.306686

  @DF-RHF Final Energy:  -538.49313866484442

   => Energetics <=

    Nuclear Repulsion Energy =            786.3775225983633845
    One-Electron Energy =               -2288.1257136691260712
    Two-Electron Energy =                 963.2550524059182635
    Total Energy =                       -538.4931386648444231
  Basis Set: (AUG-CC-PVTZ AUX)
    Blend: AUG-CC-PVTZ-RI
    Molecular point group: c1

    Geometry (in Angstrom), charge = 0, multiplicity = 1:

       Center              X                  Y                   Z               Mass
    ------------   -----------------  -----------------  -----------------  -----------------
         C           -0.551453776283     1.595512937462    -0.220377428181    12.000000000000
         C            0.782735223717     0.888363937462    -0.157489428181    12.000000000000
         C           -1.708357776283     0.639722937462    -0.036221428181    12.000000000000
         C            1.754781223717     1.242889937462     0.783024571819    12.000000000000
         C            1.072285223717    -0.150161062538    -1.053906428181    12.000000000000
         C            3.276821223717    -0.454086062538    -0.067474428181    12.000000000000
         C            2.961150323717     0.581380037462     0.818266571819    12.000000000000
         C            2.298708223717    -0.808589062538    -1.008215428181    12.000000000000
         C           -1.795162776283    -0.137787062538     1.127663571819    12.000000000000
         C           -2.702670776283     0.504507937462    -1.011077428181    12.000000000000
         C            4.584765223717    -1.198743062538     0.003223571819    12.000000000000
         C           -2.855608776283    -1.023229062538     1.313760571819    12.000000000000
         C           -3.765501776283    -0.384965062538    -0.829826428181    12.000000000000
         C           -3.845293776283    -1.149957062538     0.334099571819    12.000000000000
         H           -0.657772776283     2.110542937462    -1.184210428181     1.007825032230
         H           -0.584269776283     2.374674937462     0.552515571819     1.007825032230
         H            1.552523223717     2.049766937462     1.486351571819     1.007825032230
         H            0.323158223717    -0.448944062538    -1.786015428181     1.007825032230
         H            3.725253223717     0.873969937462     1.569261571819     1.007825032230
         H            2.504674223717    -1.608788062538    -1.718123428181     1.007825032230
         H           -1.017207776283    -0.052334062538     1.884917571819     1.007825032230
         H           -2.646626776283     1.102130937462    -1.919833428181     1.007825032230
         H            4.925490223717    -1.491507062538    -0.994284428181     1.007825032230
         H            5.364015223717    -0.582390062538     0.460475571819     1.007825032230
         H            4.489204223717    -2.111977062538     0.600909571819     1.007825032230
         H           -2.910257776283    -1.618263062538     2.222657571819     1.007825032230
         H           -4.529448776283    -0.479050062538    -1.598349428181     1.007825032230
         H           -4.671016776283    -1.842658062538     0.477903571819     1.007825032230

  Basis Set: AUG-CC-PVTZ
    Blend: AUG-CC-PVTZ
  Basis Set: (AUG-CC-PVTZ AUX)
    Blend: AUG-CC-PVTZ-JKFIT
	 Reference Energy          =    -538.4931386648444231 [Eh]
	 Singles Energy            =      -0.0000000000000000 [Eh]
	 Same-Spin Energy          =      -0.6082652879351174 [Eh]
	 Opposite-Spin Energy      =      -1.9347073761733740 [Eh]
	 Correlation Energy        =      -2.5429726641084915 [Eh]
	 Total Energy              =    -541.0361113289528703 [Eh]

	 ================> DF-SCS-MP2 Energies <==================
	-----------------------------------------------------------
	 SCS Same-Spin Scale       =       0.3333333333333333 [-]
	 SCS Opposite-Spin Scale   =       1.2000000000000000 [-]
	 SCS Same-Spin Energy      =      -0.2027550959783724 [Eh]
	 SCS Opposite-Spin Energy  =      -2.3216488514080487 [Eh]
	 SCS Correlation Energy    =      -2.5244039473864213 [Eh]
	 SCS Total Energy          =    -541.0175426122308409 [Eh]
	-----------------------------------------------------------

  Dipole Moment: [D]
     X:     0.3667      Y:    -0.1367      Z:     0.0025     Total:     0.3914

*** Psi4 exiting successfully. Buy a developer a beer!
