                               Psi4 1.4a3.dev225

  ==> Input File <==

--------------------------------------------------------------------------
#psi4
#
memory 32 gb

molecule  {
0 1
  C       -0.5824800     1.6044310    -0.2213210
  C        0.7517090     0.8972820    -0.1584330
  C       -1.7393840     0.6486410    -0.0371650
  C        1.8627916     1.3025176     0.9166074
  C        1.0412590    -0.1412430    -1.0548500
  C        3.2457950    -0.4451680    -0.0684180
  C        2.9517370     0.5872480     0.8282550
  C        2.2676820    -0.7996710    -1.0091590
  C       -1.8261890    -0.1288690     1.1267200
  C       -2.7336970     0.5134260    -1.0120210
  C        4.5537390    -1.1898250     0.0022800
  C       -2.8866350    -1.0143110     1.3128170
  C       -3.7965280    -0.3760470    -0.8307700
  C       -3.8763200    -1.1410390     0.3331560
  H       -0.6887990     2.1194610    -1.1851540
  H       -0.6152960     2.3835930     0.5515720
  H        1.5214970     2.0586850     1.4854080
  H        0.2921320    -0.4400260    -1.7869590
  H        3.6942270     0.8828880     1.5683180
  H        2.4736480    -1.5998700    -1.7190670
  H       -1.0482340    -0.0434160     1.8839740
  H       -2.6776530     1.1110490    -1.9207770
  H        4.8944640    -1.4825890    -0.9952280
  H        5.3329890    -0.5734720     0.4595320
  H        4.4581780    -2.1030590     0.5999660
  H       -2.9412840    -1.6093450     2.2217140
  H       -4.5604750    -0.4701320    -1.5992930
  H       -4.7020430    -1.8337400     0.4769600
units angstrom
no_reorient  #important for SAPT in psi4, default
symmetry c1  #important for SAPT in psi4, default
}

set PROPERTIES_ORIGIN ["COM"]
properties('MP2/aug-cc-pvtz', properties = ['dipole'])
--------------------------------------------------------------------------

    Molecular point group: c1
  Charge       = 0
  Multiplicity = 1
  Basis Set: AUG-CC-PVTZ
    Blend: AUG-CC-PVTZ
  Basis Set: (AUG-CC-PVTZ AUX)
    Blend: AUG-CC-PVTZ-JKFIT

    Orbital Energies [Eh]
    ---------------------

    Doubly Occupied:

       1A    -11.251970     2A    -11.241481     3A    -11.237914
       4A    -11.236667     5A    -11.234915     6A    -11.234394
       7A    -11.233963     8A    -11.231407     9A    -11.231102
      10A    -11.230608    11A    -11.229391    12A    -11.226016
      13A    -11.223077    14A    -11.222857    15A     -1.156473
      16A     -1.142953    17A     -1.069637    18A     -1.024882
      19A     -1.017422    20A     -1.009980    21A     -0.957663
      22A     -0.889464    23A     -0.825663    24A     -0.823681
      25A     -0.806349    26A     -0.770553    27A     -0.692676
      28A     -0.677766    29A     -0.655720    30A     -0.639109
      31A     -0.633286    32A     -0.609368    33A     -0.587041
      34A     -0.582440    35A     -0.574597    36A     -0.569592
      37A     -0.556336    38A     -0.545123    39A     -0.525232
      40A     -0.507322    41A     -0.494139    42A     -0.488327
      43A     -0.484422    44A     -0.471156    45A     -0.439662
      46A     -0.352714    47A     -0.334181    48A     -0.326979
      49A     -0.292630

  @DF-RHF Final Energy:  -538.45124596939286

   => Energetics <=

    Nuclear Repulsion Energy =            783.3003295364363794
    One-Electron Energy =               -2281.9025540210750478
    Two-Electron Energy =                 960.1509785152456971
    Total Energy =                       -538.4512459693928577
  Basis Set: (AUG-CC-PVTZ AUX)
    Blend: AUG-CC-PVTZ-RI
    Molecular point group: c1

    Geometry (in Angstrom), charge = 0, multiplicity = 1:

       Center              X                  Y                   Z               Mass
    ------------   -----------------  -----------------  -----------------  -----------------
         C           -0.562039679083     1.592372443190    -0.229962322525    12.000000000000
         C            0.772149320917     0.885223443190    -0.167074322525    12.000000000000
         C           -1.718943679083     0.636582443190    -0.045806322525    12.000000000000
         C            1.883231920917     1.290459043190     0.907966077475    12.000000000000
         C            1.061699320917    -0.153301556810    -1.063491322525    12.000000000000
         C            3.266235320917    -0.457226556810    -0.077059322525    12.000000000000
         C            2.972177320917     0.575189443190     0.819613677475    12.000000000000
         C            2.288122320917    -0.811729556810    -1.017800322525    12.000000000000
         C           -1.805748679083    -0.140927556810     1.118078677475    12.000000000000
         C           -2.713256679083     0.501367443190    -1.020662322525    12.000000000000
         C            4.574179320917    -1.201883556810    -0.006361322525    12.000000000000
         C           -2.866194679083    -1.026369556810     1.304175677475    12.000000000000
         C           -3.776087679083    -0.388105556810    -0.839411322525    12.000000000000
         C           -3.855879679083    -1.153097556810     0.324514677475    12.000000000000
         H           -0.668358679083     2.107402443190    -1.193795322525     1.007825032230
         H           -0.594855679083     2.371534443190     0.542930677475     1.007825032230
         H            1.541937320917     2.046626443190     1.476766677475     1.007825032230
         H            0.312572320917    -0.452084556810    -1.795600322525     1.007825032230
         H            3.714667320917     0.870829443190     1.559676677475     1.007825032230
         H            2.494088320917    -1.611928556810    -1.727708322525     1.007825032230
         H           -1.027793679083    -0.055474556810     1.875332677475     1.007825032230
         H           -2.657212679083     1.098990443190    -1.929418322525     1.007825032230
         H            4.914904320917    -1.494647556810    -1.003869322525     1.007825032230
         H            5.353429320917    -0.585530556810     0.450890677475     1.007825032230
         H            4.478618320917    -2.115117556810     0.591324677475     1.007825032230
         H           -2.920843679083    -1.621403556810     2.213072677475     1.007825032230
         H           -4.540034679083    -0.482190556810    -1.607934322525     1.007825032230
         H           -4.681602679083    -1.845798556810     0.468318677475     1.007825032230

  Basis Set: AUG-CC-PVTZ
    Blend: AUG-CC-PVTZ
  Basis Set: (AUG-CC-PVTZ AUX)
    Blend: AUG-CC-PVTZ-JKFIT
	 Reference Energy          =    -538.4512459693928577 [Eh]
	 Singles Energy            =      -0.0000000000000000 [Eh]
	 Same-Spin Energy          =      -0.6083420173169007 [Eh]
	 Opposite-Spin Energy      =      -1.9375562633088372 [Eh]
	 Correlation Energy        =      -2.5458982806257380 [Eh]
	 Total Energy              =    -540.9971442500185503 [Eh]

	 ================> DF-SCS-MP2 Energies <==================
	-----------------------------------------------------------
	 SCS Same-Spin Scale       =       0.3333333333333333 [-]
	 SCS Opposite-Spin Scale   =       1.2000000000000000 [-]
	 SCS Same-Spin Energy      =      -0.2027806724389669 [Eh]
	 SCS Opposite-Spin Energy  =      -2.3250675159706047 [Eh]
	 SCS Correlation Energy    =      -2.5278481884095716 [Eh]
	 SCS Total Energy          =    -540.9790941578024785 [Eh]
	-----------------------------------------------------------

  Dipole Moment: [D]
     X:     0.3424      Y:    -0.0927      Z:     0.0138     Total:     0.3550

*** Psi4 exiting successfully. Buy a developer a beer!
