                               Psi4 1.4a3.dev225

  ==> Input File <==

--------------------------------------------------------------------------
#psi4
#
memory 32 gb

molecule  {
0 1
  C       -0.5824800     1.6044310    -0.2213210
  C        0.7517090     0.8972820    -0.1584330
  C       -1.7393840     0.6486410    -0.0371650
  C        1.7237550     1.2518080     0.7820810
  C        1.0412590    -0.1412430    -1.0548500
  C        3.2457950    -0.4451680    -0.0684180
  C        2.9517370     0.5872480     0.8282550
  C        2.2676820    -0.7996710    -1.0091590
  C       -1.8261890    -0.1288690     1.1267200
  C       -2.7336970     0.5134260    -1.0120210
  C        4.5537390    -1.1898250     0.0022800
  C       -2.8866350    -1.0143110     1.3128170
  C       -3.9486086    -0.5033218    -0.8048348
  C       -3.8763200    -1.1410390     0.3331560
  H       -0.6887990     2.1194610    -1.1851540
  H       -0.6152960     2.3835930     0.5515720
  H        1.5214970     2.0586850     1.4854080
  H        0.2921320    -0.4400260    -1.7869590
  H        3.6942270     0.8828880     1.5683180
  H        2.4736480    -1.5998700    -1.7190670
  H       -1.0482340    -0.0434160     1.8839740
  H       -2.6776530     1.1110490    -1.9207770
  H        4.8944640    -1.4825890    -0.9952280
  H        5.3329890    -0.5734720     0.4595320
  H        4.4581780    -2.1030590     0.5999660
  H       -2.9412840    -1.6093450     2.2217140
  H       -4.5604750    -0.4701320    -1.5992930
  H       -4.7020430    -1.8337400     0.4769600
units angstrom
no_reorient  #important for SAPT in psi4, default
symmetry c1  #important for SAPT in psi4, default
}

set PROPERTIES_ORIGIN ["COM"]
properties('MP2/aug-cc-pvtz', properties = ['dipole'])
--------------------------------------------------------------------------

    Molecular point group: c1
  Charge       = 0
  Multiplicity = 1
  Basis Set: AUG-CC-PVTZ
    Blend: AUG-CC-PVTZ
  Basis Set: (AUG-CC-PVTZ AUX)
    Blend: AUG-CC-PVTZ-JKFIT

    Orbital Energies [Eh]
    ---------------------

    Doubly Occupied:

       1A    -11.245233     2A    -11.239900     3A    -11.238467
       4A    -11.236626     5A    -11.236388     6A    -11.235650
       7A    -11.235021     8A    -11.233653     9A    -11.231277
      10A    -11.229736    11A    -11.229165    12A    -11.228501
      13A    -11.224739    14A    -11.223006    15A     -1.158617
      16A     -1.141628    17A     -1.077189    18A     -1.031464
      19A     -1.008229    20A     -0.997950    21A     -0.956625
      22A     -0.893349    23A     -0.838374    24A     -0.825842
      25A     -0.797227    26A     -0.775334    27A     -0.692028
      28A     -0.667235    29A     -0.658489    30A     -0.646992
      31A     -0.627717    32A     -0.614233    33A     -0.591621
      34A     -0.578659    35A     -0.573702    36A     -0.563321
      37A     -0.555723    38A     -0.546776    39A     -0.529076
      40A     -0.507136    41A     -0.496042    42A     -0.483104
      43A     -0.477508    44A     -0.474139    45A     -0.447024
      46A     -0.348971    47A     -0.332396    48A     -0.315228
      49A     -0.311224

  @DF-RHF Final Energy:  -538.45304298745282

   => Energetics <=

    Nuclear Repulsion Energy =            783.6598470740655102
    One-Electron Energy =               -2282.6107118965664995
    Two-Electron Energy =                 960.4978218350481711
    Total Energy =                       -538.4530429874528181
  Basis Set: (AUG-CC-PVTZ AUX)
    Blend: AUG-CC-PVTZ-RI
    Molecular point group: c1

    Geometry (in Angstrom), charge = 0, multiplicity = 1:

       Center              X                  Y                   Z               Mass
    ------------   -----------------  -----------------  -----------------  -----------------
         C           -0.542856685158     1.604100618866    -0.222806770294    12.000000000000
         C            0.791332314842     0.896951618866    -0.159918770294    12.000000000000
         C           -1.699760685158     0.648310618866    -0.038650770294    12.000000000000
         C            1.763378314842     1.251477618866     0.780595229706    12.000000000000
         C            1.080882314842    -0.141573381134    -1.056335770294    12.000000000000
         C            3.285418314842    -0.445498381134    -0.069903770294    12.000000000000
         C            2.991360314842     0.586917618866     0.826769229706    12.000000000000
         C            2.307305314842    -0.800001381134    -1.010644770294    12.000000000000
         C           -1.786565685158    -0.129199381134     1.125234229706    12.000000000000
         C           -2.694073685158     0.513095618866    -1.013506770294    12.000000000000
         C            4.593362314842    -1.190155381134     0.000794229706    12.000000000000
         C           -2.847011685158    -1.014641381134     1.311331229706    12.000000000000
         C           -3.908985285158    -0.503652181134    -0.806320570294    12.000000000000
         C           -3.836696685158    -1.141369381134     0.331670229706    12.000000000000
         H           -0.649175685158     2.119130618866    -1.186639770294     1.007825032230
         H           -0.575672685158     2.383262618866     0.550086229706     1.007825032230
         H            1.561120314842     2.058354618866     1.483922229706     1.007825032230
         H            0.331755314842    -0.440356381134    -1.788444770294     1.007825032230
         H            3.733850314842     0.882557618866     1.566832229706     1.007825032230
         H            2.513271314842    -1.600200381134    -1.720552770294     1.007825032230
         H           -1.008610685158    -0.043746381134     1.882488229706     1.007825032230
         H           -2.638029685158     1.110718618866    -1.922262770294     1.007825032230
         H            4.934087314842    -1.482919381134    -0.996713770294     1.007825032230
         H            5.372612314842    -0.573802381134     0.458046229706     1.007825032230
         H            4.497801314842    -2.103389381134     0.598480229706     1.007825032230
         H           -2.901660685158    -1.609675381134     2.220228229706     1.007825032230
         H           -4.520851685158    -0.470462381134    -1.600778770294     1.007825032230
         H           -4.662419685158    -1.834070381134     0.475474229706     1.007825032230

  Basis Set: AUG-CC-PVTZ
    Blend: AUG-CC-PVTZ
  Basis Set: (AUG-CC-PVTZ AUX)
    Blend: AUG-CC-PVTZ-JKFIT
	 Reference Energy          =    -538.4530429874528181 [Eh]
	 Singles Energy            =      -0.0000000000000000 [Eh]
	 Same-Spin Energy          =      -0.6075030799121551 [Eh]
	 Opposite-Spin Energy      =      -1.9370995114702150 [Eh]
	 Correlation Energy        =      -2.5446025913823700 [Eh]
	 Total Energy              =    -540.9976455788352041 [Eh]

	 ================> DF-SCS-MP2 Energies <==================
	-----------------------------------------------------------
	 SCS Same-Spin Scale       =       0.3333333333333333 [-]
	 SCS Opposite-Spin Scale   =       1.2000000000000000 [-]
	 SCS Same-Spin Energy      =      -0.2025010266373850 [Eh]
	 SCS Opposite-Spin Energy  =      -2.3245194137642580 [Eh]
	 SCS Correlation Energy    =      -2.5270204404016430 [Eh]
	 SCS Total Energy          =    -540.9800634278544749 [Eh]
	-----------------------------------------------------------

  Dipole Moment: [D]
     X:     0.3688      Y:    -0.1272      Z:    -0.0202     Total:     0.3907

*** Psi4 exiting successfully. Buy a developer a beer!
