                               Psi4 1.4a3.dev225

  ==> Input File <==

--------------------------------------------------------------------------
#psi4
#
memory 32 gb

molecule  {
0 1
  C       -0.5824800     1.6044310    -0.2213210
  C        0.7517090     0.8972820    -0.1584330
  C       -1.7393840     0.6486410    -0.0371650
  C        1.7237550     1.2518080     0.7820810
  C        1.0412590    -0.1412430    -1.0548500
  C        3.2457950    -0.4451680    -0.0684180
  C        2.9517370     0.5872480     0.8282550
  C        2.2676820    -0.7996710    -1.0091590
  C       -1.8261890    -0.1288690     1.1267200
  C       -2.7336970     0.5134260    -1.0120210
  C        4.5537390    -1.1898250     0.0022800
  C       -2.8866350    -1.0143110     1.3128170
  C       -3.7965280    -0.3760470    -0.8307700
  C       -3.8751761    -1.1300722     0.3164701
  H       -0.6887990     2.1194610    -1.1851540
  H       -0.6152960     2.3835930     0.5515720
  H        1.5214970     2.0586850     1.4854080
  H        0.2921320    -0.4400260    -1.7869590
  H        3.6942270     0.8828880     1.5683180
  H        2.4736480    -1.5998700    -1.7190670
  H       -1.0482340    -0.0434160     1.8839740
  H       -2.6776530     1.1110490    -1.9207770
  H        4.8944640    -1.4825890    -0.9952280
  H        5.3329890    -0.5734720     0.4595320
  H        4.4581780    -2.1030590     0.5999660
  H       -2.9412840    -1.6093450     2.2217140
  H       -4.5604750    -0.4701320    -1.5992930
  H       -4.7020430    -1.8337400     0.4769600
units angstrom
no_reorient  #important for SAPT in psi4, default
symmetry c1  #important for SAPT in psi4, default
}

set PROPERTIES_ORIGIN ["COM"]
properties('MP2/aug-cc-pvtz', properties = ['dipole'])
--------------------------------------------------------------------------

    Molecular point group: c1
  Charge       = 0
  Multiplicity = 1
  Basis Set: AUG-CC-PVTZ
    Blend: AUG-CC-PVTZ
  Basis Set: (AUG-CC-PVTZ AUX)
    Blend: AUG-CC-PVTZ-JKFIT

    Orbital Energies [Eh]
    ---------------------

    Doubly Occupied:

       1A    -11.240885     2A    -11.238386     3A    -11.236901
       4A    -11.235465     5A    -11.235232     6A    -11.232917
       7A    -11.231350     8A    -11.231191     9A    -11.230760
      10A    -11.229888    11A    -11.229541    12A    -11.229157
      13A    -11.228661    14A    -11.222987    15A     -1.160965
      16A     -1.145831    17A     -1.074135    18A     -1.024220
      19A     -1.010682    20A     -1.008100    21A     -0.957267
      22A     -0.896018    23A     -0.828090    24A     -0.823526
      25A     -0.802487    26A     -0.774440    27A     -0.692951
      28A     -0.667742    29A     -0.648438    30A     -0.634659
      31A     -0.628567    32A     -0.617997    33A     -0.584276
      34A     -0.578751    35A     -0.574921    36A     -0.568350
      37A     -0.559879    38A     -0.548254    39A     -0.527531
      40A     -0.502321    41A     -0.493031    42A     -0.489734
      43A     -0.477872    44A     -0.473522    45A     -0.470680
      46A     -0.338416    47A     -0.332981    48A     -0.328986
      49A     -0.307836

  @DF-RHF Final Energy:  -538.49346753231475

   => Energetics <=

    Nuclear Repulsion Energy =            786.1595545990629716
    One-Electron Energy =               -2287.6924874261499099
    Two-Electron Energy =                 963.0394652947720715
    Total Energy =                       -538.4934675323147530
  Basis Set: (AUG-CC-PVTZ AUX)
    Blend: AUG-CC-PVTZ-RI
    Molecular point group: c1

    Geometry (in Angstrom), charge = 0, multiplicity = 1:

       Center              X                  Y                   Z               Mass
    ------------   -----------------  -----------------  -----------------  -----------------
         C           -0.552953322020     1.594991271246    -0.219998278379    12.000000000000
         C            0.781235677980     0.887842271246    -0.157110278379    12.000000000000
         C           -1.709857322020     0.639201271246    -0.035842278379    12.000000000000
         C            1.753281677980     1.242368271246     0.783403721621    12.000000000000
         C            1.070785677980    -0.150682728754    -1.053527278379    12.000000000000
         C            3.275321677980    -0.454607728754    -0.067095278379    12.000000000000
         C            2.981263677980     0.577808271246     0.829577721621    12.000000000000
         C            2.297208677980    -0.809110728754    -1.007836278379    12.000000000000
         C           -1.796662322020    -0.138308728754     1.128042721621    12.000000000000
         C           -2.704170322020     0.503986271246    -1.010698278379    12.000000000000
         C            4.583265677980    -1.199264728754     0.003602721621    12.000000000000
         C           -2.857108322020    -1.023750728754     1.314139721621    12.000000000000
         C           -3.767001322020    -0.385486728754    -0.829447278379    12.000000000000
         C           -3.845649422020    -1.139511928754     0.317792821621    12.000000000000
         H           -0.659272322020     2.110021271246    -1.183831278379     1.007825032230
         H           -0.585769322020     2.374153271246     0.552894721621     1.007825032230
         H            1.551023677980     2.049245271246     1.486730721621     1.007825032230
         H            0.321658677980    -0.449465728754    -1.785636278379     1.007825032230
         H            3.723753677980     0.873448271246     1.569640721621     1.007825032230
         H            2.503174677980    -1.609309728754    -1.717744278379     1.007825032230
         H           -1.018707322020    -0.052855728754     1.885296721621     1.007825032230
         H           -2.648126322020     1.101609271246    -1.919454278379     1.007825032230
         H            4.923990677980    -1.492028728754    -0.993905278379     1.007825032230
         H            5.362515677980    -0.582911728754     0.460854721621     1.007825032230
         H            4.487704677980    -2.112498728754     0.601288721621     1.007825032230
         H           -2.911757322020    -1.618784728754     2.223036721621     1.007825032230
         H           -4.530948322020    -0.479571728754    -1.597970278379     1.007825032230
         H           -4.672516322020    -1.843179728754     0.478282721621     1.007825032230

  Basis Set: AUG-CC-PVTZ
    Blend: AUG-CC-PVTZ
  Basis Set: (AUG-CC-PVTZ AUX)
    Blend: AUG-CC-PVTZ-JKFIT
	 Reference Energy          =    -538.4934675323147530 [Eh]
	 Singles Energy            =      -0.0000000000000000 [Eh]
	 Same-Spin Energy          =      -0.6081631016800092 [Eh]
	 Opposite-Spin Energy      =      -1.9346904611541484 [Eh]
	 Correlation Energy        =      -2.5428535628341575 [Eh]
	 Total Energy              =    -541.0363210951488782 [Eh]

	 ================> DF-SCS-MP2 Energies <==================
	-----------------------------------------------------------
	 SCS Same-Spin Scale       =       0.3333333333333333 [-]
	 SCS Opposite-Spin Scale   =       1.2000000000000000 [-]
	 SCS Same-Spin Energy      =      -0.2027210338933364 [Eh]
	 SCS Opposite-Spin Energy  =      -2.3216285533849779 [Eh]
	 SCS Correlation Energy    =      -2.5243495872783144 [Eh]
	 SCS Total Energy          =    -541.0178171195930190 [Eh]
	-----------------------------------------------------------

  Dipole Moment: [D]
     X:     0.3663      Y:    -0.1289      Z:     0.0135     Total:     0.3885

*** Psi4 exiting successfully. Buy a developer a beer!
