                               Psi4 1.4a3.dev225

  ==> Input File <==

--------------------------------------------------------------------------
#psi4
#
memory 32 gb

molecule  {
0 1
  C       -0.5824800     1.6044310    -0.2213210
  C        0.7517090     0.8972820    -0.1584330
  C       -1.7393840     0.6486410    -0.0371650
  C        1.7237550     1.2518080     0.7820810
  C        1.0412590    -0.1412430    -1.0548500
  C        3.2457950    -0.4451680    -0.0684180
  C        2.9517370     0.5872480     0.8282550
  C        2.2676820    -0.7996710    -1.0091590
  C       -1.8261890    -0.1288690     1.1267200
  C       -2.7336970     0.5134260    -1.0120210
  C        4.5537390    -1.1898250     0.0022800
  C       -2.8866350    -1.0143110     1.3128170
  C       -3.7965280    -0.3760470    -0.8307700
  C       -3.8647735    -1.1243236     0.3196331
  H       -0.6887990     2.1194610    -1.1851540
  H       -0.6152960     2.3835930     0.5515720
  H        1.5214970     2.0586850     1.4854080
  H        0.2921320    -0.4400260    -1.7869590
  H        3.6942270     0.8828880     1.5683180
  H        2.4736480    -1.5998700    -1.7190670
  H       -1.0482340    -0.0434160     1.8839740
  H       -2.6776530     1.1110490    -1.9207770
  H        4.8944640    -1.4825890    -0.9952280
  H        5.3329890    -0.5734720     0.4595320
  H        4.4581780    -2.1030590     0.5999660
  H       -2.9412840    -1.6093450     2.2217140
  H       -4.5604750    -0.4701320    -1.5992930
  H       -4.7020430    -1.8337400     0.4769600
units angstrom
no_reorient  #important for SAPT in psi4, default
symmetry c1  #important for SAPT in psi4, default
}

set PROPERTIES_ORIGIN ["COM"]
properties('MP2/aug-cc-pvtz', properties = ['dipole'])
--------------------------------------------------------------------------

    Molecular point group: c1
  Charge       = 0
  Multiplicity = 1
  Basis Set: AUG-CC-PVTZ
    Blend: AUG-CC-PVTZ
  Basis Set: (AUG-CC-PVTZ AUX)
    Blend: AUG-CC-PVTZ-JKFIT

    Orbital Energies [Eh]
    ---------------------

    Doubly Occupied:

       1A    -11.240614     2A    -11.238352     3A    -11.236854
       4A    -11.235160     5A    -11.234399     6A    -11.232745
       7A    -11.231330     8A    -11.231150     9A    -11.230554
      10A    -11.229861    11A    -11.229556    12A    -11.229128
      13A    -11.228634    14A    -11.222969    15A     -1.161318
      16A     -1.146402    17A     -1.074368    18A     -1.024366
      19A     -1.011321    20A     -1.008098    21A     -0.957146
      22A     -0.895844    23A     -0.828400    24A     -0.823940
      25A     -0.802006    26A     -0.774387    27A     -0.692536
      28A     -0.667509    29A     -0.648353    30A     -0.634766
      31A     -0.628450    32A     -0.618328    33A     -0.584993
      34A     -0.578709    35A     -0.574821    36A     -0.567306
      37A     -0.559735    38A     -0.548304    39A     -0.527516
      40A     -0.501819    41A     -0.493250    42A     -0.490053
      43A     -0.478072    44A     -0.473727    45A     -0.470277
      46A     -0.338253    47A     -0.333324    48A     -0.329458
      49A     -0.307804

  @DF-RHF Final Energy:  -538.49323712218518

   => Energetics <=

    Nuclear Repulsion Energy =            786.3912217556807036
    One-Electron Energy =               -2288.1563907197546541
    Two-Electron Energy =                 963.2719318418886587
    Total Energy =                       -538.4932371221851781
  Basis Set: (AUG-CC-PVTZ AUX)
    Blend: AUG-CC-PVTZ-RI
    Molecular point group: c1

    Geometry (in Angstrom), charge = 0, multiplicity = 1:

       Center              X                  Y                   Z               Mass
    ------------   -----------------  -----------------  -----------------  -----------------
         C           -0.553638795130     1.594612470685    -0.220206702374    12.000000000000
         C            0.780550204870     0.887463470685    -0.157318702374    12.000000000000
         C           -1.710542795130     0.638822470685    -0.036050702374    12.000000000000
         C            1.752596204870     1.241989470685     0.783195297626    12.000000000000
         C            1.070100204870    -0.151061529315    -1.053735702374    12.000000000000
         C            3.274636204870    -0.454986529315    -0.067303702374    12.000000000000
         C            2.980578204870     0.577429470685     0.829369297626    12.000000000000
         C            2.296523204870    -0.809489529315    -1.008044702374    12.000000000000
         C           -1.797347795130    -0.138687529315     1.127834297626    12.000000000000
         C           -2.704855795130     0.503607470685    -1.010906702374    12.000000000000
         C            4.582580204870    -1.199643529315     0.003394297626    12.000000000000
         C           -2.857793795130    -1.024129529315     1.313931297626    12.000000000000
         C           -3.767686795130    -0.385865529315    -0.829655702374    12.000000000000
         C           -3.835932295130    -1.134142129315     0.320747397626    12.000000000000
         H           -0.659957795130     2.109642470685    -1.184039702374     1.007825032230
         H           -0.586454795130     2.373774470685     0.552686297626     1.007825032230
         H            1.550338204870     2.048866470685     1.486522297626     1.007825032230
         H            0.320973204870    -0.449844529315    -1.785844702374     1.007825032230
         H            3.723068204870     0.873069470685     1.569432297626     1.007825032230
         H            2.502489204870    -1.609688529315    -1.717952702374     1.007825032230
         H           -1.019392795130    -0.053234529315     1.885088297626     1.007825032230
         H           -2.648811795130     1.101230470685    -1.919662702374     1.007825032230
         H            4.923305204870    -1.492407529315    -0.994113702374     1.007825032230
         H            5.361830204870    -0.583290529315     0.460646297626     1.007825032230
         H            4.487019204870    -2.112877529315     0.601080297626     1.007825032230
         H           -2.912442795130    -1.619163529315     2.222828297626     1.007825032230
         H           -4.531633795130    -0.479950529315    -1.598178702374     1.007825032230
         H           -4.673201795130    -1.843558529315     0.478074297626     1.007825032230

  Basis Set: AUG-CC-PVTZ
    Blend: AUG-CC-PVTZ
  Basis Set: (AUG-CC-PVTZ AUX)
    Blend: AUG-CC-PVTZ-JKFIT
	 Reference Energy          =    -538.4932371221851781 [Eh]
	 Singles Energy            =      -0.0000000000000000 [Eh]
	 Same-Spin Energy          =      -0.6082044953484426 [Eh]
	 Opposite-Spin Energy      =      -1.9346739102554502 [Eh]
	 Correlation Energy        =      -2.5428784056038927 [Eh]
	 Total Energy              =    -541.0361155277890930 [Eh]

	 ================> DF-SCS-MP2 Energies <==================
	-----------------------------------------------------------
	 SCS Same-Spin Scale       =       0.3333333333333333 [-]
	 SCS Opposite-Spin Scale   =       1.2000000000000000 [-]
	 SCS Same-Spin Energy      =      -0.2027348317828142 [Eh]
	 SCS Opposite-Spin Energy  =      -2.3216086923065400 [Eh]
	 SCS Correlation Energy    =      -2.5243435240893541 [Eh]
	 SCS Total Energy          =    -541.0175806462744958 [Eh]
	-----------------------------------------------------------

  Dipole Moment: [D]
     X:     0.3672      Y:    -0.1254      Z:     0.0123     Total:     0.3882

*** Psi4 exiting successfully. Buy a developer a beer!
