                               Psi4 1.4a3.dev225

  ==> Input File <==

--------------------------------------------------------------------------
#psi4
#
memory 32 gb

molecule  {
0 1
  C       -0.5824800     1.6044310    -0.2213210
  C        0.7517090     0.8972820    -0.1584330
  C       -1.7393840     0.6486410    -0.0371650
  C        1.7237550     1.2518080     0.7820810
  C        1.0412590    -0.1412430    -1.0548500
  C        3.2457950    -0.4451680    -0.0684180
  C        2.9517370     0.5872480     0.8282550
  C        2.2676820    -0.7996710    -1.0091590
  C       -1.8261890    -0.1288690     1.1267200
  C       -2.7336970     0.5134260    -1.0120210
  C        4.5537390    -1.1898250     0.0022800
  C       -2.8866350    -1.0143110     1.3128170
  C       -3.7965280    -0.3760470    -0.8307700
  C       -3.8763200    -1.1410390     0.3331560
  H       -0.6887990     2.1194610    -1.1851540
  H       -0.6152960     2.3835930     0.5515720
  H        1.5214970     2.0586850     1.4854080
  H        0.2921320    -0.4400260    -1.7869590
  H        3.6942270     0.8828880     1.5683180
  H        2.4736480    -1.5998700    -1.7190670
  H       -1.0482340    -0.0434160     1.8839740
  H       -2.6776530     1.1110490    -1.9207770
  H        4.8944640    -1.4825890    -0.9952280
  H        5.3329890    -0.5734720     0.4595320
  H        4.4625391    -2.0613820     0.5726895
  H       -2.9412840    -1.6093450     2.2217140
  H       -4.5604750    -0.4701320    -1.5992930
  H       -4.7020430    -1.8337400     0.4769600
units angstrom
no_reorient  #important for SAPT in psi4, default
symmetry c1  #important for SAPT in psi4, default
}

set PROPERTIES_ORIGIN ["COM"]
properties('MP2/aug-cc-pvtz', properties = ['dipole'])
--------------------------------------------------------------------------

    Molecular point group: c1
  Charge       = 0
  Multiplicity = 1
  Basis Set: AUG-CC-PVTZ
    Blend: AUG-CC-PVTZ
  Basis Set: (AUG-CC-PVTZ AUX)
    Blend: AUG-CC-PVTZ-JKFIT

    Orbital Energies [Eh]
    ---------------------

    Doubly Occupied:

       1A    -11.241010     2A    -11.238059     3A    -11.236754
       4A    -11.235178     5A    -11.234978     6A    -11.234493
       7A    -11.231459     8A    -11.231215     9A    -11.231046
      10A    -11.229738    11A    -11.229376    12A    -11.228933
      13A    -11.228509    14A    -11.216881    15A     -1.160570
      16A     -1.145208    17A     -1.074091    18A     -1.024766
      19A     -1.010131    20A     -1.007975    21A     -0.959186
      22A     -0.898120    23A     -0.827975    24A     -0.822762
      25A     -0.803224    26A     -0.774782    27A     -0.693356
      28A     -0.668378    29A     -0.648182    30A     -0.635075
      31A     -0.628547    32A     -0.617605    33A     -0.583816
      34A     -0.581857    35A     -0.578457    36A     -0.570578
      37A     -0.559709    38A     -0.548173    39A     -0.527731
      40A     -0.503300    41A     -0.491293    42A     -0.490130
      43A     -0.477468    44A     -0.473628    45A     -0.471697
      46A     -0.337033    47A     -0.333634    48A     -0.329280
      49A     -0.307405

  @DF-RHF Final Energy:  -538.49286045978965

   => Energetics <=

    Nuclear Repulsion Energy =            786.1870512228342704
    One-Electron Energy =               -2287.7343204348203471
    Two-Electron Energy =                 963.0544087521964229
    Total Energy =                       -538.4928604597896538
  Basis Set: (AUG-CC-PVTZ AUX)
    Blend: AUG-CC-PVTZ-RI
    Molecular point group: c1

    Geometry (in Angstrom), charge = 0, multiplicity = 1:

       Center              X                  Y                   Z               Mass
    ------------   -----------------  -----------------  -----------------  -----------------
         C           -0.552902080477     1.595483274416    -0.220946833027    12.000000000000
         C            0.781286919523     0.888334274416    -0.158058833027    12.000000000000
         C           -1.709806080477     0.639693274416    -0.036790833027    12.000000000000
         C            1.753332919523     1.242860274416     0.782455166973    12.000000000000
         C            1.070836919523    -0.150190725584    -1.054475833027    12.000000000000
         C            3.275372919523    -0.454115725584    -0.068043833027    12.000000000000
         C            2.981314919523     0.578300274416     0.828629166973    12.000000000000
         C            2.297259919523    -0.808618725584    -1.008784833027    12.000000000000
         C           -1.796611080477    -0.137816725584     1.127094166973    12.000000000000
         C           -2.704119080477     0.504478274416    -1.011646833027    12.000000000000
         C            4.583316919523    -1.198772725584     0.002654166973    12.000000000000
         C           -2.857057080477    -1.023258725584     1.313191166973    12.000000000000
         C           -3.766950080477    -0.384994725584    -0.830395833027    12.000000000000
         C           -3.846742080477    -1.149986725584     0.333530166973    12.000000000000
         H           -0.659221080477     2.110513274416    -1.184779833027     1.007825032230
         H           -0.585718080477     2.374645274416     0.551946166973     1.007825032230
         H            1.551074919523     2.049737274416     1.485782166973     1.007825032230
         H            0.321709919523    -0.448973725584    -1.786584833027     1.007825032230
         H            3.723804919523     0.873940274416     1.568692166973     1.007825032230
         H            2.503225919523    -1.608817725584    -1.718692833027     1.007825032230
         H           -1.018656080477    -0.052363725584     1.884348166973     1.007825032230
         H           -2.648075080477     1.102101274416    -1.920402833027     1.007825032230
         H            4.924041919523    -1.491536725584    -0.994853833027     1.007825032230
         H            5.362566919523    -0.582419725584     0.459906166973     1.007825032230
         H            4.492117019523    -2.070329725584     0.573063666973     1.007825032230
         H           -2.911706080477    -1.618292725584     2.222088166973     1.007825032230
         H           -4.530897080477    -0.479079725584    -1.598918833027     1.007825032230
         H           -4.672465080477    -1.842687725584     0.477334166973     1.007825032230

  Basis Set: AUG-CC-PVTZ
    Blend: AUG-CC-PVTZ
  Basis Set: (AUG-CC-PVTZ AUX)
    Blend: AUG-CC-PVTZ-JKFIT
	 Reference Energy          =    -538.4928604597896538 [Eh]
	 Singles Energy            =      -0.0000000000000000 [Eh]
	 Same-Spin Energy          =      -0.6082075797155233 [Eh]
	 Opposite-Spin Energy      =      -1.9344756098021345 [Eh]
	 Correlation Energy        =      -2.5426831895176578 [Eh]
	 Total Energy              =    -541.0355436493073285 [Eh]

	 ================> DF-SCS-MP2 Energies <==================
	-----------------------------------------------------------
	 SCS Same-Spin Scale       =       0.3333333333333333 [-]
	 SCS Opposite-Spin Scale   =       1.2000000000000000 [-]
	 SCS Same-Spin Energy      =      -0.2027358599051744 [Eh]
	 SCS Opposite-Spin Energy  =      -2.3213707317625611 [Eh]
	 SCS Correlation Energy    =      -2.5241065916677354 [Eh]
	 SCS Total Energy          =    -541.0169670514574136 [Eh]
	-----------------------------------------------------------

  Dipole Moment: [D]
     X:     0.3763      Y:    -0.1505      Z:     0.0196     Total:     0.4058

*** Psi4 exiting successfully. Buy a developer a beer!
