                               Psi4 1.4a3.dev225

  ==> Input File <==

--------------------------------------------------------------------------
#psi4
#
memory 32 gb

molecule  {
0 1
  C       -0.5824800     1.6044310    -0.2213210
  C        0.7517090     0.8972820    -0.1584330
  C       -1.5863454     0.7750757    -0.0615257
  C        1.7237550     1.2518080     0.7820810
  C        1.0412590    -0.1412430    -1.0548500
  C        3.2457950    -0.4451680    -0.0684180
  C        2.9517370     0.5872480     0.8282550
  C        2.2676820    -0.7996710    -1.0091590
  C       -1.8261890    -0.1288690     1.1267200
  C       -2.7336970     0.5134260    -1.0120210
  C        4.5537390    -1.1898250     0.0022800
  C       -2.8866350    -1.0143110     1.3128170
  C       -3.7965280    -0.3760470    -0.8307700
  C       -3.8763200    -1.1410390     0.3331560
  H       -0.6887990     2.1194610    -1.1851540
  H       -0.6152960     2.3835930     0.5515720
  H        1.5214970     2.0586850     1.4854080
  H        0.2921320    -0.4400260    -1.7869590
  H        3.6942270     0.8828880     1.5683180
  H        2.4736480    -1.5998700    -1.7190670
  H       -1.0482340    -0.0434160     1.8839740
  H       -2.6776530     1.1110490    -1.9207770
  H        4.8944640    -1.4825890    -0.9952280
  H        5.3329890    -0.5734720     0.4595320
  H        4.4581780    -2.1030590     0.5999660
  H       -2.9412840    -1.6093450     2.2217140
  H       -4.5604750    -0.4701320    -1.5992930
  H       -4.7020430    -1.8337400     0.4769600
units angstrom
no_reorient  #important for SAPT in psi4, default
symmetry c1  #important for SAPT in psi4, default
}

set PROPERTIES_ORIGIN ["COM"]
properties('MP2/aug-cc-pvtz', properties = ['dipole'])
--------------------------------------------------------------------------

    Molecular point group: c1
  Charge       = 0
  Multiplicity = 1
  Basis Set: AUG-CC-PVTZ
    Blend: AUG-CC-PVTZ
  Basis Set: (AUG-CC-PVTZ AUX)
    Blend: AUG-CC-PVTZ-JKFIT

    Orbital Energies [Eh]
    ---------------------

    Doubly Occupied:

       1A    -11.255852     2A    -11.242173     3A    -11.241813
       4A    -11.240911     5A    -11.239377     6A    -11.234359
       7A    -11.234091     8A    -11.233563     9A    -11.232745
      10A    -11.231491    11A    -11.231241    12A    -11.231193
      13A    -11.228646    14A    -11.224555    15A     -1.168612
      16A     -1.137577    17A     -1.095096    18A     -1.031719
      19A     -1.010882    20A     -1.001006    21A     -0.951138
      22A     -0.908975    23A     -0.830598    24A     -0.811570
      25A     -0.802798    26A     -0.772137    27A     -0.691106
      28A     -0.675139    29A     -0.658470    30A     -0.650800
      31A     -0.632374    32A     -0.615692    33A     -0.583661
      34A     -0.581022    35A     -0.574926    36A     -0.571487
      37A     -0.569142    38A     -0.549179    39A     -0.531728
      40A     -0.513161    41A     -0.494400    42A     -0.485606
      43A     -0.482810    44A     -0.471800    45A     -0.439909
      46A     -0.337047    47A     -0.331824    48A     -0.324915
      49A     -0.295126

  @DF-RHF Final Energy:  -538.43053618883300

   => Energetics <=

    Nuclear Repulsion Energy =            785.9533514502484195
    One-Electron Energy =               -2286.9968919769212334
    Two-Electron Energy =                 962.6130043378398113
    Total Energy =                       -538.4305361888330026
  Basis Set: (AUG-CC-PVTZ AUX)
    Blend: AUG-CC-PVTZ-RI
    Molecular point group: c1

    Geometry (in Angstrom), charge = 0, multiplicity = 1:

       Center              X                  Y                   Z               Mass
    ------------   -----------------  -----------------  -----------------  -----------------
         C           -0.562962332505     1.587382582978    -0.219492552020    12.000000000000
         C            0.771226667495     0.880233582978    -0.156604552020    12.000000000000
         C           -1.566827732505     0.758027282978    -0.059697252020    12.000000000000
         C            1.743272667495     1.234759582978     0.783909447980    12.000000000000
         C            1.060776667495    -0.158291417022    -1.053021552020    12.000000000000
         C            3.265312667495    -0.462216417022    -0.066589552020    12.000000000000
         C            2.971254667495     0.570199582978     0.830083447980    12.000000000000
         C            2.287199667495    -0.816719417022    -1.007330552020    12.000000000000
         C           -1.806671332505    -0.145917417022     1.128548447980    12.000000000000
         C           -2.714179332505     0.496377582978    -1.010192552020    12.000000000000
         C            4.573256667495    -1.206873417022     0.004108447980    12.000000000000
         C           -2.867117332505    -1.031359417022     1.314645447980    12.000000000000
         C           -3.777010332505    -0.393095417022    -0.828941552020    12.000000000000
         C           -3.856802332505    -1.158087417022     0.334984447980    12.000000000000
         H           -0.669281332505     2.102412582978    -1.183325552020     1.007825032230
         H           -0.595778332505     2.366544582978     0.553400447980     1.007825032230
         H            1.541014667495     2.041636582978     1.487236447980     1.007825032230
         H            0.311649667495    -0.457074417022    -1.785130552020     1.007825032230
         H            3.713744667495     0.865839582978     1.570146447980     1.007825032230
         H            2.493165667495    -1.616918417022    -1.717238552020     1.007825032230
         H           -1.028716332505    -0.060464417022     1.885802447980     1.007825032230
         H           -2.658135332505     1.094000582978    -1.918948552020     1.007825032230
         H            4.913981667495    -1.499637417022    -0.993399552020     1.007825032230
         H            5.352506667495    -0.590520417022     0.461360447980     1.007825032230
         H            4.477695667495    -2.120107417022     0.601794447980     1.007825032230
         H           -2.921766332505    -1.626393417022     2.223542447980     1.007825032230
         H           -4.540957332505    -0.487180417022    -1.597464552020     1.007825032230
         H           -4.682525332505    -1.850788417022     0.478788447980     1.007825032230

  Basis Set: AUG-CC-PVTZ
    Blend: AUG-CC-PVTZ
  Basis Set: (AUG-CC-PVTZ AUX)
    Blend: AUG-CC-PVTZ-JKFIT
	 Reference Energy          =    -538.4305361888330026 [Eh]
	 Singles Energy            =      -0.0000000000000000 [Eh]
	 Same-Spin Energy          =      -0.6127545285897958 [Eh]
	 Opposite-Spin Energy      =      -1.9421180882695661 [Eh]
	 Correlation Energy        =      -2.5548726168593618 [Eh]
	 Total Energy              =    -540.9854088056923729 [Eh]

	 ================> DF-SCS-MP2 Energies <==================
	-----------------------------------------------------------
	 SCS Same-Spin Scale       =       0.3333333333333333 [-]
	 SCS Opposite-Spin Scale   =       1.2000000000000000 [-]
	 SCS Same-Spin Energy      =      -0.2042515095299319 [Eh]
	 SCS Opposite-Spin Energy  =      -2.3305417059234794 [Eh]
	 SCS Correlation Energy    =      -2.5347932154534112 [Eh]
	 SCS Total Energy          =    -540.9653294042864218 [Eh]
	-----------------------------------------------------------

  Dipole Moment: [D]
     X:     0.7433      Y:    -0.0090      Z:     0.0101     Total:     0.7434

*** Psi4 exiting successfully. Buy a developer a beer!
