                               Psi4 1.4a3.dev225

  ==> Input File <==

--------------------------------------------------------------------------
#psi4
#
memory 32 gb

molecule  {
0 1
  C       -0.5824800     1.6044310    -0.2213210
  C        0.7517090     0.8972820    -0.1584330
  C       -1.7393840     0.6486410    -0.0371650
  C        1.7237550     1.2518080     0.7820810
  C        1.0412590    -0.1412430    -1.0548500
  C        3.2457950    -0.4451680    -0.0684180
  C        2.9517370     0.5872480     0.8282550
  C        2.2676820    -0.7996710    -1.0091590
  C       -1.8261890    -0.1288690     1.1267200
  C       -2.8758402     0.4940962    -1.1513827
  C        4.5537390    -1.1898250     0.0022800
  C       -2.8866350    -1.0143110     1.3128170
  C       -3.7965280    -0.3760470    -0.8307700
  C       -3.8763200    -1.1410390     0.3331560
  H       -0.6887990     2.1194610    -1.1851540
  H       -0.6152960     2.3835930     0.5515720
  H        1.5214970     2.0586850     1.4854080
  H        0.2921320    -0.4400260    -1.7869590
  H        3.6942270     0.8828880     1.5683180
  H        2.4736480    -1.5998700    -1.7190670
  H       -1.0482340    -0.0434160     1.8839740
  H       -2.6776530     1.1110490    -1.9207770
  H        4.8944640    -1.4825890    -0.9952280
  H        5.3329890    -0.5734720     0.4595320
  H        4.4581780    -2.1030590     0.5999660
  H       -2.9412840    -1.6093450     2.2217140
  H       -4.5604750    -0.4701320    -1.5992930
  H       -4.7020430    -1.8337400     0.4769600
units angstrom
no_reorient  #important for SAPT in psi4, default
symmetry c1  #important for SAPT in psi4, default
}

set PROPERTIES_ORIGIN ["COM"]
properties('MP2/aug-cc-pvtz', properties = ['dipole'])
--------------------------------------------------------------------------

    Molecular point group: c1
  Charge       = 0
  Multiplicity = 1
  Basis Set: AUG-CC-PVTZ
    Blend: AUG-CC-PVTZ
  Basis Set: (AUG-CC-PVTZ AUX)
    Blend: AUG-CC-PVTZ-JKFIT

    Orbital Energies [Eh]
    ---------------------

    Doubly Occupied:

       1A    -11.256952     2A    -11.238446     3A    -11.237756
       4A    -11.237280     5A    -11.236948     6A    -11.234090
       7A    -11.231377     8A    -11.230480     9A    -11.230073
      10A    -11.229288    11A    -11.228837    12A    -11.226660
      13A    -11.226417    14A    -11.223059    15A     -1.157450
      16A     -1.140775    17A     -1.074210    18A     -1.027262
      19A     -1.014300    20A     -1.008162    21A     -0.952555
      22A     -0.898159    23A     -0.827102    24A     -0.824799
      25A     -0.800059    26A     -0.770869    27A     -0.700007
      28A     -0.669545    29A     -0.652073    30A     -0.648128
      31A     -0.627850    32A     -0.607220    33A     -0.590723
      34A     -0.578766    35A     -0.575696    36A     -0.567431
      37A     -0.559568    38A     -0.548726    39A     -0.528040
      40A     -0.511472    41A     -0.494412    42A     -0.484587
      43A     -0.478387    44A     -0.474284    45A     -0.441941
      46A     -0.353009    47A     -0.333689    48A     -0.321063
      49A     -0.298633

  @DF-RHF Final Energy:  -538.45197444745156

   => Energetics <=

    Nuclear Repulsion Energy =            783.1645998477669082
    One-Electron Energy =               -2281.6159158834288974
    Two-Electron Energy =                 959.9993415882103136
    Total Energy =                       -538.4519744474515619
  Basis Set: (AUG-CC-PVTZ AUX)
    Blend: AUG-CC-PVTZ-RI
    Molecular point group: c1

    Geometry (in Angstrom), charge = 0, multiplicity = 1:

       Center              X                  Y                   Z               Mass
    ------------   -----------------  -----------------  -----------------  -----------------
         C           -0.543511504192     1.596987647598    -0.211914629848    12.000000000000
         C            0.790677495808     0.889838647598    -0.149026629848    12.000000000000
         C           -1.700415504192     0.641197647598    -0.027758629848    12.000000000000
         C            1.762723495808     1.244364647598     0.791487370152    12.000000000000
         C            1.080227495808    -0.148686352402    -1.045443629848    12.000000000000
         C            3.284763495808    -0.452611352402    -0.059011629848    12.000000000000
         C            2.990705495808     0.579804647598     0.837661370152    12.000000000000
         C            2.306650495808    -0.807114352402    -0.999752629848    12.000000000000
         C           -1.787220504192    -0.136312352402     1.136126370152    12.000000000000
         C           -2.836871704192     0.486652847598    -1.141976329848    12.000000000000
         C            4.592707495808    -1.197268352402     0.011686370152    12.000000000000
         C           -2.847666504192    -1.021754352402     1.322223370152    12.000000000000
         C           -3.757559504192    -0.383490352402    -0.821363629848    12.000000000000
         C           -3.837351504192    -1.148482352402     0.342562370152    12.000000000000
         H           -0.649830504192     2.112017647598    -1.175747629848     1.007825032230
         H           -0.576327504192     2.376149647598     0.560978370152     1.007825032230
         H            1.560465495808     2.051241647598     1.494814370152     1.007825032230
         H            0.331100495808    -0.447469352402    -1.777552629848     1.007825032230
         H            3.733195495808     0.875444647598     1.577724370152     1.007825032230
         H            2.512616495808    -1.607313352402    -1.709660629848     1.007825032230
         H           -1.009265504192    -0.050859352402     1.893380370152     1.007825032230
         H           -2.638684504192     1.103605647598    -1.911370629848     1.007825032230
         H            4.933432495808    -1.490032352402    -0.985821629848     1.007825032230
         H            5.371957495808    -0.580915352402     0.468938370152     1.007825032230
         H            4.497146495808    -2.110502352402     0.609372370152     1.007825032230
         H           -2.902315504192    -1.616788352402     2.231120370152     1.007825032230
         H           -4.521506504192    -0.477575352402    -1.589886629848     1.007825032230
         H           -4.663074504192    -1.841183352402     0.486366370152     1.007825032230

  Basis Set: AUG-CC-PVTZ
    Blend: AUG-CC-PVTZ
  Basis Set: (AUG-CC-PVTZ AUX)
    Blend: AUG-CC-PVTZ-JKFIT
	 Reference Energy          =    -538.4519744474515619 [Eh]
	 Singles Energy            =      -0.0000000000000000 [Eh]
	 Same-Spin Energy          =      -0.6081061933336609 [Eh]
	 Opposite-Spin Energy      =      -1.9370451799107666 [Eh]
	 Correlation Energy        =      -2.5451513732444275 [Eh]
	 Total Energy              =    -540.9971258206959419 [Eh]

	 ================> DF-SCS-MP2 Energies <==================
	-----------------------------------------------------------
	 SCS Same-Spin Scale       =       0.3333333333333333 [-]
	 SCS Opposite-Spin Scale   =       1.2000000000000000 [-]
	 SCS Same-Spin Energy      =      -0.2027020644445536 [Eh]
	 SCS Opposite-Spin Energy  =      -2.3244542158929198 [Eh]
	 SCS Correlation Energy    =      -2.5271562803374734 [Eh]
	 SCS Total Energy          =    -540.9791307277890837 [Eh]
	-----------------------------------------------------------

  Dipole Moment: [D]
     X:     0.3990      Y:    -0.0846      Z:     0.0026     Total:     0.4079

*** Psi4 exiting successfully. Buy a developer a beer!
