                               Psi4 1.4a3.dev225

  ==> Input File <==

--------------------------------------------------------------------------
#psi4
#
memory 32 gb

molecule  {
0 1
  C       -0.5824800     1.6044310    -0.2213210
  C        0.7517090     0.8972820    -0.1584330
  C       -1.7393840     0.6486410    -0.0371650
  C        1.7237550     1.2518080     0.7820810
  C        1.0412590    -0.1412430    -1.0548500
  C        3.2457950    -0.4451680    -0.0684180
  C        2.9517370     0.5872480     0.8282550
  C        2.2676820    -0.7996710    -1.0091590
  C       -1.8261890    -0.1288690     1.1267200
  C       -2.7336970     0.5134260    -1.0120210
  C        4.5537390    -1.1898250     0.0022800
  C       -2.8866350    -1.0143110     1.3128170
  C       -3.7965280    -0.3760470    -0.8307700
  C       -3.8529291    -1.1075748     0.3064126
  H       -0.6887990     2.1194610    -1.1851540
  H       -0.6152960     2.3835930     0.5515720
  H        1.5214970     2.0586850     1.4854080
  H        0.2921320    -0.4400260    -1.7869590
  H        3.6942270     0.8828880     1.5683180
  H        2.4736480    -1.5998700    -1.7190670
  H       -1.0482340    -0.0434160     1.8839740
  H       -2.6776530     1.1110490    -1.9207770
  H        4.8944640    -1.4825890    -0.9952280
  H        5.3329890    -0.5734720     0.4595320
  H        4.4581780    -2.1030590     0.5999660
  H       -2.9412840    -1.6093450     2.2217140
  H       -4.5604750    -0.4701320    -1.5992930
  H       -4.7020430    -1.8337400     0.4769600
units angstrom
no_reorient  #important for SAPT in psi4, default
symmetry c1  #important for SAPT in psi4, default
}

set PROPERTIES_ORIGIN ["COM"]
properties('MP2/aug-cc-pvtz', properties = ['dipole'])
--------------------------------------------------------------------------

    Molecular point group: c1
  Charge       = 0
  Multiplicity = 1
  Basis Set: AUG-CC-PVTZ
    Blend: AUG-CC-PVTZ
  Basis Set: (AUG-CC-PVTZ AUX)
    Blend: AUG-CC-PVTZ-JKFIT

    Orbital Energies [Eh]
    ---------------------

    Doubly Occupied:

       1A    -11.240184     2A    -11.238335     3A    -11.236781
       4A    -11.235054     5A    -11.234315     6A    -11.231718
       7A    -11.231120     8A    -11.230748     9A    -11.229835
      10A    -11.229716    11A    -11.229109    12A    -11.229055
      13A    -11.228607    14A    -11.222962    15A     -1.162189
      16A     -1.147534    17A     -1.074969    18A     -1.024920
      19A     -1.012409    20A     -1.008073    21A     -0.957017
      22A     -0.895486    23A     -0.828971    24A     -0.824835
      25A     -0.801140    26A     -0.774211    27A     -0.691875
      28A     -0.667171    29A     -0.648390    30A     -0.634641
      31A     -0.628307    32A     -0.618995    33A     -0.587266
      34A     -0.578673    35A     -0.574596    36A     -0.565175
      37A     -0.559468    38A     -0.548168    39A     -0.527091
      40A     -0.501360    41A     -0.495318    42A     -0.489001
      43A     -0.478489    44A     -0.473941    45A     -0.468652
      46A     -0.339667    47A     -0.333094    48A     -0.329413
      49A     -0.308249

  @DF-RHF Final Energy:  -538.49101888262226

   => Energetics <=

    Nuclear Repulsion Energy =            786.8270914765653288
    One-Electron Energy =               -2289.0236366559888666
    Two-Electron Energy =                 963.7055262968012812
    Total Energy =                       -538.4910188826222566
  Basis Set: (AUG-CC-PVTZ AUX)
    Blend: AUG-CC-PVTZ-RI
    Molecular point group: c1

    Geometry (in Angstrom), charge = 0, multiplicity = 1:

       Center              X                  Y                   Z               Mass
    ------------   -----------------  -----------------  -----------------  -----------------
         C           -0.554419274790     1.593508818518    -0.219335545427    12.000000000000
         C            0.779769725210     0.886359818518    -0.156447545427    12.000000000000
         C           -1.711323274790     0.637718818518    -0.035179545427    12.000000000000
         C            1.751815725210     1.240885818518     0.784066454573    12.000000000000
         C            1.069319725210    -0.152165181482    -1.052864545427    12.000000000000
         C            3.273855725210    -0.456090181482    -0.066432545427    12.000000000000
         C            2.979797725210     0.576325818518     0.830240454573    12.000000000000
         C            2.295742725210    -0.810593181482    -1.007173545427    12.000000000000
         C           -1.798128274790    -0.139791181482     1.128705454573    12.000000000000
         C           -2.705636274790     0.502503818518    -1.010035545427    12.000000000000
         C            4.581799725210    -1.200747181482     0.004265454573    12.000000000000
         C           -2.858574274790    -1.025233181482     1.314802454573    12.000000000000
         C           -3.768467274790    -0.386969181482    -0.828784545427    12.000000000000
         C           -3.824868374790    -1.118496981482     0.308398054573    12.000000000000
         H           -0.660738274790     2.108538818518    -1.183168545427     1.007825032230
         H           -0.587235274790     2.372670818518     0.553557454573     1.007825032230
         H            1.549557725210     2.047762818518     1.487393454573     1.007825032230
         H            0.320192725210    -0.450948181482    -1.784973545427     1.007825032230
         H            3.722287725210     0.871965818518     1.570303454573     1.007825032230
         H            2.501708725210    -1.610792181482    -1.717081545427     1.007825032230
         H           -1.020173274790    -0.054338181482     1.885959454573     1.007825032230
         H           -2.649592274790     1.100126818518    -1.918791545427     1.007825032230
         H            4.922524725210    -1.493511181482    -0.993242545427     1.007825032230
         H            5.361049725210    -0.584394181482     0.461517454573     1.007825032230
         H            4.486238725210    -2.113981181482     0.601951454573     1.007825032230
         H           -2.913223274790    -1.620267181482     2.223699454573     1.007825032230
         H           -4.532414274790    -0.481054181482    -1.597307545427     1.007825032230
         H           -4.673982274790    -1.844662181482     0.478945454573     1.007825032230

  Basis Set: AUG-CC-PVTZ
    Blend: AUG-CC-PVTZ
  Basis Set: (AUG-CC-PVTZ AUX)
    Blend: AUG-CC-PVTZ-JKFIT
	 Reference Energy          =    -538.4910188826222566 [Eh]
	 Singles Energy            =      -0.0000000000000000 [Eh]
	 Same-Spin Energy          =      -0.6082300601380888 [Eh]
	 Opposite-Spin Energy      =      -1.9346886188397943 [Eh]
	 Correlation Energy        =      -2.5429186789778830 [Eh]
	 Total Energy              =    -541.0339375616001689 [Eh]

	 ================> DF-SCS-MP2 Energies <==================
	-----------------------------------------------------------
	 SCS Same-Spin Scale       =       0.3333333333333333 [-]
	 SCS Opposite-Spin Scale   =       1.2000000000000000 [-]
	 SCS Same-Spin Energy      =      -0.2027433533793629 [Eh]
	 SCS Opposite-Spin Energy  =      -2.3216263426077530 [Eh]
	 SCS Correlation Energy    =      -2.5243696959871160 [Eh]
	 SCS Total Energy          =    -541.0153885786094179 [Eh]
	-----------------------------------------------------------

  Dipole Moment: [D]
     X:     0.3745      Y:    -0.1189      Z:     0.0142     Total:     0.3932

*** Psi4 exiting successfully. Buy a developer a beer!
