                               Psi4 1.4a3.dev225

  ==> Input File <==

--------------------------------------------------------------------------
#psi4
#
memory 32 gb

molecule  {
0 1
  C       -0.5824800     1.6044310    -0.2213210
  C        0.7517090     0.8972820    -0.1584330
  C       -1.7393840     0.6486410    -0.0371650
  C        1.7237550     1.2518080     0.7820810
  C        1.0412590    -0.1412430    -1.0548500
  C        3.2457950    -0.4451680    -0.0684180
  C        2.9517370     0.5872480     0.8282550
  C        2.2676820    -0.7996710    -1.0091590
  C       -1.8261890    -0.1288690     1.1267200
  C       -2.7336970     0.5134260    -1.0120210
  C        4.5537390    -1.1898250     0.0022800
  C       -2.8866350    -1.0143110     1.3128170
  C       -3.7965280    -0.3760470    -0.8307700
  C       -3.8763200    -1.1410390     0.3331560
  H       -0.6887990     2.1194610    -1.1851540
  H       -0.6152960     2.3835930     0.5515720
  H        1.5214970     2.0586850     1.4854080
  H        0.2921320    -0.4400260    -1.7869590
  H        3.6942270     0.8828880     1.5683180
  H        2.4736480    -1.5998700    -1.7190670
  H       -1.0482340    -0.0434160     1.8839740
  H       -2.6776530     1.1110490    -1.9207770
  H        4.9006930    -1.4879412    -1.0134641
  H        5.3329890    -0.5734720     0.4595320
  H        4.4581780    -2.1030590     0.5999660
  H       -2.9412840    -1.6093450     2.2217140
  H       -4.5604750    -0.4701320    -1.5992930
  H       -4.7020430    -1.8337400     0.4769600
units angstrom
no_reorient  #important for SAPT in psi4, default
symmetry c1  #important for SAPT in psi4, default
}

set PROPERTIES_ORIGIN ["COM"]
properties('MP2/aug-cc-pvtz', properties = ['dipole'])
--------------------------------------------------------------------------

    Molecular point group: c1
  Charge       = 0
  Multiplicity = 1
  Basis Set: AUG-CC-PVTZ
    Blend: AUG-CC-PVTZ
  Basis Set: (AUG-CC-PVTZ AUX)
    Blend: AUG-CC-PVTZ-JKFIT

    Orbital Energies [Eh]
    ---------------------

    Doubly Occupied:

       1A    -11.241110     2A    -11.238553     3A    -11.237017
       4A    -11.235334     5A    -11.235054     6A    -11.234569
       7A    -11.231545     8A    -11.231294     9A    -11.231276
      10A    -11.229941    11A    -11.229466    12A    -11.229304
      13A    -11.228714    14A    -11.225402    15A     -1.160703
      16A     -1.145293    17A     -1.073738    18A     -1.023763
      19A     -1.010202    20A     -1.008202    21A     -0.956648
      22A     -0.895558    23A     -0.828157    24A     -0.822864
      25A     -0.802832    26A     -0.774544    27A     -0.693402
      28A     -0.667783    29A     -0.648230    30A     -0.635116
      31A     -0.628469    32A     -0.617661    33A     -0.582840
      34A     -0.578832    35A     -0.574407    36A     -0.569461
      37A     -0.559907    38A     -0.547173    39A     -0.526980
      40A     -0.502997    41A     -0.491260    42A     -0.490262
      43A     -0.477559    44A     -0.473530    45A     -0.471320
      46A     -0.337153    47A     -0.333742    48A     -0.329307
      49A     -0.307360

  @DF-RHF Final Energy:  -538.49330993748561

   => Energetics <=

    Nuclear Repulsion Energy =            785.8788866148437364
    One-Electron Energy =               -2287.1327253489439499
    Two-Electron Energy =                 962.7605287966144942
    Total Energy =                       -538.4933099374856056
  Basis Set: (AUG-CC-PVTZ AUX)
    Blend: AUG-CC-PVTZ-RI
    Molecular point group: c1

    Geometry (in Angstrom), charge = 0, multiplicity = 1:

       Center              X                  Y                   Z               Mass
    ------------   -----------------  -----------------  -----------------  -----------------
         C           -0.552912417752     1.595743541958    -0.220996864129    12.000000000000
         C            0.781276582248     0.888594541958    -0.158108864129    12.000000000000
         C           -1.709816417752     0.639953541958    -0.036840864129    12.000000000000
         C            1.753322582248     1.243120541958     0.782405135871    12.000000000000
         C            1.070826582248    -0.149930458042    -1.054525864129    12.000000000000
         C            3.275362582248    -0.453855458042    -0.068093864129    12.000000000000
         C            2.981304582248     0.578560541958     0.828579135871    12.000000000000
         C            2.297249582248    -0.808358458042    -1.008834864129    12.000000000000
         C           -1.796621417752    -0.137556458042     1.127044135871    12.000000000000
         C           -2.704129417752     0.504738541958    -1.011696864129    12.000000000000
         C            4.583306582248    -1.198512458042     0.002604135871    12.000000000000
         C           -2.857067417752    -1.022998458042     1.313141135871    12.000000000000
         C           -3.766960417752    -0.384734458042    -0.830445864129    12.000000000000
         C           -3.846752417752    -1.149726458042     0.333480135871    12.000000000000
         H           -0.659231417752     2.110773541958    -1.184829864129     1.007825032230
         H           -0.585728417752     2.374905541958     0.551896135871     1.007825032230
         H            1.551064582248     2.049997541958     1.485732135871     1.007825032230
         H            0.321699582248    -0.448713458042    -1.786634864129     1.007825032230
         H            3.723794582248     0.874200541958     1.568642135871     1.007825032230
         H            2.503215582248    -1.608557458042    -1.718742864129     1.007825032230
         H           -1.018666417752    -0.052103458042     1.884298135871     1.007825032230
         H           -2.648085417752     1.102361541958    -1.920452864129     1.007825032230
         H            4.930260582248    -1.496628658042    -1.013139964129     1.007825032230
         H            5.362556582248    -0.582159458042     0.459856135871     1.007825032230
         H            4.487745582248    -2.111746458042     0.600290135871     1.007825032230
         H           -2.911716417752    -1.618032458042     2.222038135871     1.007825032230
         H           -4.530907417752    -0.478819458042    -1.598968864129     1.007825032230
         H           -4.672475417752    -1.842427458042     0.477284135871     1.007825032230

  Basis Set: AUG-CC-PVTZ
    Blend: AUG-CC-PVTZ
  Basis Set: (AUG-CC-PVTZ AUX)
    Blend: AUG-CC-PVTZ-JKFIT
	 Reference Energy          =    -538.4933099374856056 [Eh]
	 Singles Energy            =      -0.0000000000000000 [Eh]
	 Same-Spin Energy          =      -0.6081948609144903 [Eh]
	 Opposite-Spin Energy      =      -1.9348715009613862 [Eh]
	 Correlation Energy        =      -2.5430663618758764 [Eh]
	 Total Energy              =    -541.0363762993614500 [Eh]

	 ================> DF-SCS-MP2 Energies <==================
	-----------------------------------------------------------
	 SCS Same-Spin Scale       =       0.3333333333333333 [-]
	 SCS Opposite-Spin Scale   =       1.2000000000000000 [-]
	 SCS Same-Spin Energy      =      -0.2027316203048301 [Eh]
	 SCS Opposite-Spin Energy  =      -2.3218458011536631 [Eh]
	 SCS Correlation Energy    =      -2.5245774214584933 [Eh]
	 SCS Total Energy          =    -541.0178873589441082 [Eh]
	-----------------------------------------------------------

  Dipole Moment: [D]
     X:     0.3538      Y:    -0.1244      Z:     0.0175     Total:     0.3755

*** Psi4 exiting successfully. Buy a developer a beer!
