                               Psi4 1.4a3.dev225

  ==> Input File <==

--------------------------------------------------------------------------
#psi4
#
memory 32 gb

molecule  {
0 1
  C       -0.5824800     1.6044310    -0.2213210
  C        0.7517090     0.8972820    -0.1584330
  C       -1.7393840     0.6486410    -0.0371650
  C        1.7237550     1.2518080     0.7820810
  C        1.0412590    -0.1412430    -1.0548500
  C        3.2457950    -0.4451680    -0.0684180
  C        2.9517370     0.5872480     0.8282550
  C        2.2676820    -0.7996710    -1.0091590
  C       -1.7019264    -0.0638968     1.1701345
  C       -2.7336970     0.5134260    -1.0120210
  C        4.5537390    -1.1898250     0.0022800
  C       -2.8866350    -1.0143110     1.3128170
  C       -3.7965280    -0.3760470    -0.8307700
  C       -3.8763200    -1.1410390     0.3331560
  H       -0.6887990     2.1194610    -1.1851540
  H       -0.6152960     2.3835930     0.5515720
  H        1.5214970     2.0586850     1.4854080
  H        0.2921320    -0.4400260    -1.7869590
  H        3.6942270     0.8828880     1.5683180
  H        2.4736480    -1.5998700    -1.7190670
  H       -1.0482340    -0.0434160     1.8839740
  H       -2.6776530     1.1110490    -1.9207770
  H        4.8944640    -1.4825890    -0.9952280
  H        5.3329890    -0.5734720     0.4595320
  H        4.4581780    -2.1030590     0.5999660
  H       -2.9412840    -1.6093450     2.2217140
  H       -4.5604750    -0.4701320    -1.5992930
  H       -4.7020430    -1.8337400     0.4769600
units angstrom
no_reorient  #important for SAPT in psi4, default
symmetry c1  #important for SAPT in psi4, default
}

set PROPERTIES_ORIGIN ["COM"]
properties('MP2/aug-cc-pvtz', properties = ['dipole'])
--------------------------------------------------------------------------

    Molecular point group: c1
  Charge       = 0
  Multiplicity = 1
  Basis Set: AUG-CC-PVTZ
    Blend: AUG-CC-PVTZ
  Basis Set: (AUG-CC-PVTZ AUX)
    Blend: AUG-CC-PVTZ-JKFIT

    Orbital Energies [Eh]
    ---------------------

    Doubly Occupied:

       1A    -11.248469     2A    -11.244121     3A    -11.239123
       4A    -11.237860     5A    -11.236139     6A    -11.233349
       7A    -11.233143     8A    -11.232292     9A    -11.231448
      10A    -11.230622    11A    -11.229436    12A    -11.228782
      13A    -11.228198    14A    -11.222689    15A     -1.158605
      16A     -1.139507    17A     -1.073391    18A     -1.025614
      19A     -1.007826    20A     -1.000531    21A     -0.956230
      22A     -0.894945    23A     -0.838244    24A     -0.825238
      25A     -0.797707    26A     -0.772981    27A     -0.699151
      28A     -0.667891    29A     -0.652693    30A     -0.644782
      31A     -0.628518    32A     -0.617553    33A     -0.586645
      34A     -0.578389    35A     -0.573621    36A     -0.568983
      37A     -0.558557    38A     -0.545857    39A     -0.527579
      40A     -0.507219    41A     -0.494197    42A     -0.483762
      43A     -0.476144    44A     -0.473850    45A     -0.459253
      46A     -0.338960    47A     -0.330854    48A     -0.323530
      49A     -0.306196

  @DF-RHF Final Energy:  -538.46318563779505

   => Energetics <=

    Nuclear Repulsion Energy =            785.2314174400941056
    One-Electron Energy =               -2285.7678601402753884
    Two-Electron Energy =                 962.0732570623863467
    Total Energy =                       -538.4631856377950498
  Basis Set: (AUG-CC-PVTZ AUX)
    Blend: AUG-CC-PVTZ-RI
    Molecular point group: c1

    Geometry (in Angstrom), charge = 0, multiplicity = 1:

       Center              X                  Y                   Z               Mass
    ------------   -----------------  -----------------  -----------------  -----------------
         C           -0.561066155182     1.591432617686    -0.223958558322    12.000000000000
         C            0.773122844818     0.884283617686    -0.161070558322    12.000000000000
         C           -1.717970155182     0.635642617686    -0.039802558322    12.000000000000
         C            1.745168844818     1.238809617686     0.779443441678    12.000000000000
         C            1.062672844818    -0.154241382314    -1.057487558322    12.000000000000
         C            3.267208844818    -0.458166382314    -0.071055558322    12.000000000000
         C            2.973150844818     0.574249617686     0.825617441678    12.000000000000
         C            2.289095844818    -0.812669382314    -1.011796558322    12.000000000000
         C           -1.680512555182    -0.076895182314     1.167496941678    12.000000000000
         C           -2.712283155182     0.500427617686    -1.014658558322    12.000000000000
         C            4.575152844818    -1.202823382314    -0.000357558322    12.000000000000
         C           -2.865221155182    -1.027309382314     1.310179441678    12.000000000000
         C           -3.775114155182    -0.389045382314    -0.833407558322    12.000000000000
         C           -3.854906155182    -1.154037382314     0.330518441678    12.000000000000
         H           -0.667385155182     2.106462617686    -1.187791558322     1.007825032230
         H           -0.593882155182     2.370594617686     0.548934441678     1.007825032230
         H            1.542910844818     2.045686617686     1.482770441678     1.007825032230
         H            0.313545844818    -0.453024382314    -1.789596558322     1.007825032230
         H            3.715640844818     0.869889617686     1.565680441678     1.007825032230
         H            2.495061844818    -1.612868382314    -1.721704558322     1.007825032230
         H           -1.026820155182    -0.056414382314     1.881336441678     1.007825032230
         H           -2.656239155182     1.098050617686    -1.923414558322     1.007825032230
         H            4.915877844818    -1.495587382314    -0.997865558322     1.007825032230
         H            5.354402844818    -0.586470382314     0.456894441678     1.007825032230
         H            4.479591844818    -2.116057382314     0.597328441678     1.007825032230
         H           -2.919870155182    -1.622343382314     2.219076441678     1.007825032230
         H           -4.539061155182    -0.483130382314    -1.601930558322     1.007825032230
         H           -4.680629155182    -1.846738382314     0.474322441678     1.007825032230

  Basis Set: AUG-CC-PVTZ
    Blend: AUG-CC-PVTZ
  Basis Set: (AUG-CC-PVTZ AUX)
    Blend: AUG-CC-PVTZ-JKFIT
	 Reference Energy          =    -538.4631856377950498 [Eh]
	 Singles Energy            =      -0.0000000000000000 [Eh]
	 Same-Spin Energy          =      -0.6087178380220239 [Eh]
	 Opposite-Spin Energy      =      -1.9372847180925972 [Eh]
	 Correlation Energy        =      -2.5460025561146211 [Eh]
	 Total Energy              =    -541.0091881939097220 [Eh]

	 ================> DF-SCS-MP2 Energies <==================
	-----------------------------------------------------------
	 SCS Same-Spin Scale       =       0.3333333333333333 [-]
	 SCS Opposite-Spin Scale   =       1.2000000000000000 [-]
	 SCS Same-Spin Energy      =      -0.2029059460073413 [Eh]
	 SCS Opposite-Spin Energy  =      -2.3247416617111165 [Eh]
	 SCS Correlation Energy    =      -2.5276476077184578 [Eh]
	 SCS Total Energy          =    -540.9908332455134996 [Eh]
	-----------------------------------------------------------

  Dipole Moment: [D]
     X:     0.2891      Y:    -0.1568      Z:     0.0041     Total:     0.3289

*** Psi4 exiting successfully. Buy a developer a beer!
