                               Psi4 1.4a3.dev225

  ==> Input File <==

--------------------------------------------------------------------------
#psi4
#
memory 32 gb

molecule  {
0 1
  C       -0.5824800     1.6044310    -0.2213210
  C        0.7517090     0.8972820    -0.1584330
  C       -1.7393840     0.6486410    -0.0371650
  C        1.7237550     1.2518080     0.7820810
  C        1.0412590    -0.1412430    -1.0548500
  C        3.2457950    -0.4451680    -0.0684180
  C        2.9517370     0.5872480     0.8282550
  C        2.2676820    -0.7996710    -1.0091590
  C       -1.8055079    -0.1186138     1.1348559
  C       -2.7336970     0.5134260    -1.0120210
  C        4.5537390    -1.1898250     0.0022800
  C       -2.8866350    -1.0143110     1.3128170
  C       -3.7965280    -0.3760470    -0.8307700
  C       -3.8763200    -1.1410390     0.3331560
  H       -0.6887990     2.1194610    -1.1851540
  H       -0.6152960     2.3835930     0.5515720
  H        1.5214970     2.0586850     1.4854080
  H        0.2921320    -0.4400260    -1.7869590
  H        3.6942270     0.8828880     1.5683180
  H        2.4736480    -1.5998700    -1.7190670
  H       -1.0482340    -0.0434160     1.8839740
  H       -2.6776530     1.1110490    -1.9207770
  H        4.8944640    -1.4825890    -0.9952280
  H        5.3329890    -0.5734720     0.4595320
  H        4.4581780    -2.1030590     0.5999660
  H       -2.9412840    -1.6093450     2.2217140
  H       -4.5604750    -0.4701320    -1.5992930
  H       -4.7020430    -1.8337400     0.4769600
units angstrom
no_reorient  #important for SAPT in psi4, default
symmetry c1  #important for SAPT in psi4, default
}

set PROPERTIES_ORIGIN ["COM"]
properties('MP2/aug-cc-pvtz', properties = ['dipole'])
--------------------------------------------------------------------------

    Molecular point group: c1
  Charge       = 0
  Multiplicity = 1
  Basis Set: AUG-CC-PVTZ
    Blend: AUG-CC-PVTZ
  Basis Set: (AUG-CC-PVTZ AUX)
    Blend: AUG-CC-PVTZ-JKFIT

    Orbital Energies [Eh]
    ---------------------

    Doubly Occupied:

       1A    -11.241365     2A    -11.238300     3A    -11.237018
       4A    -11.236806     5A    -11.235616     6A    -11.234624
       7A    -11.231716     8A    -11.231439     9A    -11.231106
      10A    -11.230018    11A    -11.229827    12A    -11.229107
      13A    -11.228599    14A    -11.222941    15A     -1.160110
      16A     -1.144144    17A     -1.073615    18A     -1.024095
      19A     -1.008659    20A     -1.007832    21A     -0.957118
      22A     -0.895990    23A     -0.828915    24A     -0.823896
      25A     -0.801815    26A     -0.774238    27A     -0.693863
      28A     -0.667724    29A     -0.648150    30A     -0.636339
      31A     -0.628974    32A     -0.617948    33A     -0.584042
      34A     -0.578723    35A     -0.574893    36A     -0.569375
      37A     -0.559599    38A     -0.548092    39A     -0.527910
      40A     -0.502114    41A     -0.492835    42A     -0.489650
      43A     -0.477175    44A     -0.474342    45A     -0.470201
      46A     -0.337025    47A     -0.332024    48A     -0.329534
      49A     -0.307239

  @DF-RHF Final Energy:  -538.49273465514887

   => Energetics <=

    Nuclear Repulsion Energy =            785.8141447050010129
    One-Electron Energy =               -2287.0003951022099500
    Two-Electron Energy =                 962.6935157420599580
    Total Energy =                       -538.4927346551488654
  Basis Set: (AUG-CC-PVTZ AUX)
    Blend: AUG-CC-PVTZ-RI
    Molecular point group: c1

    Geometry (in Angstrom), charge = 0, multiplicity = 1:

       Center              X                  Y                   Z               Mass
    ------------   -----------------  -----------------  -----------------  -----------------
         C           -0.554240714138     1.595038161703    -0.221633896057    12.000000000000
         C            0.779948285862     0.887889161703    -0.158745896057    12.000000000000
         C           -1.711144714138     0.639248161703    -0.037477896057    12.000000000000
         C            1.751994285862     1.242415161703     0.781768103943    12.000000000000
         C            1.069498285862    -0.150635838297    -1.055162896057    12.000000000000
         C            3.274034285862    -0.454560838297    -0.068730896057    12.000000000000
         C            2.979976285862     0.577855161703     0.827942103943    12.000000000000
         C            2.295921285862    -0.809063838297    -1.009471896057    12.000000000000
         C           -1.777268614138    -0.128006638297     1.134543003943    12.000000000000
         C           -2.705457714138     0.504033161703    -1.012333896057    12.000000000000
         C            4.581978285862    -1.199217838297     0.001967103943    12.000000000000
         C           -2.858395714138    -1.023703838297     1.312504103943    12.000000000000
         C           -3.768288714138    -0.385439838297    -0.831082896057    12.000000000000
         C           -3.848080714138    -1.150431838297     0.332843103943    12.000000000000
         H           -0.660559714138     2.110068161703    -1.185466896057     1.007825032230
         H           -0.587056714138     2.374200161703     0.551259103943     1.007825032230
         H            1.549736285862     2.049292161703     1.485095103943     1.007825032230
         H            0.320371285862    -0.449418838297    -1.787271896057     1.007825032230
         H            3.722466285862     0.873495161703     1.568005103943     1.007825032230
         H            2.501887285862    -1.609262838297    -1.719379896057     1.007825032230
         H           -1.019994714138    -0.052808838297     1.883661103943     1.007825032230
         H           -2.649413714138     1.101656161703    -1.921089896057     1.007825032230
         H            4.922703285862    -1.491981838297    -0.995540896057     1.007825032230
         H            5.361228285862    -0.582864838297     0.459219103943     1.007825032230
         H            4.486417285862    -2.112451838297     0.599653103943     1.007825032230
         H           -2.913044714138    -1.618737838297     2.221401103943     1.007825032230
         H           -4.532235714138    -0.479524838297    -1.599605896057     1.007825032230
         H           -4.673803714138    -1.843132838297     0.476647103943     1.007825032230

  Basis Set: AUG-CC-PVTZ
    Blend: AUG-CC-PVTZ
  Basis Set: (AUG-CC-PVTZ AUX)
    Blend: AUG-CC-PVTZ-JKFIT
	 Reference Energy          =    -538.4927346551488654 [Eh]
	 Singles Energy            =      -0.0000000000000000 [Eh]
	 Same-Spin Energy          =      -0.6082264051153498 [Eh]
	 Opposite-Spin Energy      =      -1.9349380560830987 [Eh]
	 Correlation Energy        =      -2.5431644611984483 [Eh]
	 Total Energy              =    -541.0358991163473092 [Eh]

	 ================> DF-SCS-MP2 Energies <==================
	-----------------------------------------------------------
	 SCS Same-Spin Scale       =       0.3333333333333333 [-]
	 SCS Opposite-Spin Scale   =       1.2000000000000000 [-]
	 SCS Same-Spin Energy      =      -0.2027421350384499 [Eh]
	 SCS Opposite-Spin Energy  =      -2.3219256672997184 [Eh]
	 SCS Correlation Energy    =      -2.5246678023381683 [Eh]
	 SCS Total Energy          =    -541.0174024574870373 [Eh]
	-----------------------------------------------------------

  Dipole Moment: [D]
     X:     0.3534      Y:    -0.1341      Z:     0.0133     Total:     0.3782

*** Psi4 exiting successfully. Buy a developer a beer!
