                               Psi4 1.4a3.dev225

  ==> Input File <==

--------------------------------------------------------------------------
#psi4
#
memory 32 gb

molecule  {
0 1
  C       -0.5824800     1.6044310    -0.2213210
  C        0.7517090     0.8972820    -0.1584330
  C       -1.7393840     0.6486410    -0.0371650
  C        1.7237550     1.2518080     0.7820810
  C        1.0412590    -0.1412430    -1.0548500
  C        3.2457950    -0.4451680    -0.0684180
  C        2.9517370     0.5872480     0.8282550
  C        2.2676820    -0.7996710    -1.0091590
  C       -1.8261890    -0.1288690     1.1267200
  C       -2.7336970     0.5134260    -1.0120210
  C        4.5537390    -1.1898250     0.0022800
  C       -2.8866350    -1.0143110     1.3128170
  C       -3.7965280    -0.3760470    -0.8307700
  C       -3.8763200    -1.1410390     0.3331560
  H       -0.6887990     2.1194610    -1.1851540
  H       -0.6152960     2.3835930     0.5515720
  H        1.5214970     2.0586850     1.4854080
  H        0.2921320    -0.4400260    -1.7869590
  H        3.6942270     0.8828880     1.5683180
  H        2.4736480    -1.5998700    -1.7190670
  H       -1.0482340    -0.0434160     1.8839740
  H       -2.6725071     1.1659223    -2.0042183
  H        4.8944640    -1.4825890    -0.9952280
  H        5.3329890    -0.5734720     0.4595320
  H        4.4581780    -2.1030590     0.5999660
  H       -2.9412840    -1.6093450     2.2217140
  H       -4.5604750    -0.4701320    -1.5992930
  H       -4.7020430    -1.8337400     0.4769600
units angstrom
no_reorient  #important for SAPT in psi4, default
symmetry c1  #important for SAPT in psi4, default
}

set PROPERTIES_ORIGIN ["COM"]
properties('MP2/aug-cc-pvtz', properties = ['dipole'])
--------------------------------------------------------------------------

    Molecular point group: c1
  Charge       = 0
  Multiplicity = 1
  Basis Set: AUG-CC-PVTZ
    Blend: AUG-CC-PVTZ
  Basis Set: (AUG-CC-PVTZ AUX)
    Blend: AUG-CC-PVTZ-JKFIT

    Orbital Energies [Eh]
    ---------------------

    Doubly Occupied:

       1A    -11.243444     2A    -11.241965     3A    -11.238378
       4A    -11.236900     5A    -11.236050     6A    -11.235208
       7A    -11.235144     8A    -11.232205     9A    -11.231189
      10A    -11.230388    11A    -11.229858    12A    -11.229148
      13A    -11.228630    14A    -11.222983    15A     -1.160733
      16A     -1.145425    17A     -1.073998    18A     -1.024041
      19A     -1.008808    20A     -1.007903    21A     -0.957100
      22A     -0.896085    23A     -0.827743    24A     -0.819962
      25A     -0.802023    26A     -0.774610    27A     -0.689611
      28A     -0.667047    29A     -0.647970    30A     -0.633837
      31A     -0.626739    32A     -0.616748    33A     -0.580674
      34A     -0.578745    35A     -0.574007    36A     -0.567089
      37A     -0.559278    38A     -0.547397    39A     -0.527841
      40A     -0.503107    41A     -0.491218    42A     -0.486429
      43A     -0.477627    44A     -0.473527    45A     -0.471134
      46A     -0.337510    47A     -0.334248    48A     -0.329602
      49A     -0.307555

  @DF-RHF Final Energy:  -538.48646056353334

   => Energetics <=

    Nuclear Repulsion Energy =            785.4779706465875506
    One-Electron Energy =               -2286.3311506250825005
    Two-Electron Energy =                 962.3667194149617217
    Total Energy =                       -538.4864605635333419
  Basis Set: (AUG-CC-PVTZ AUX)
    Blend: AUG-CC-PVTZ-RI
    Molecular point group: c1

    Geometry (in Angstrom), charge = 0, multiplicity = 1:

       Center              X                  Y                   Z               Mass
    ------------   -----------------  -----------------  -----------------  -----------------
         C           -0.552906423693     1.595410243862    -0.220636007531    12.000000000000
         C            0.781282576307     0.888261243862    -0.157748007531    12.000000000000
         C           -1.709810423693     0.639620243862    -0.036480007531    12.000000000000
         C            1.753328576307     1.242787243862     0.782765992469    12.000000000000
         C            1.070832576307    -0.150263756138    -1.054165007531    12.000000000000
         C            3.275368576307    -0.454188756138    -0.067733007531    12.000000000000
         C            2.981310576307     0.578227243862     0.828939992469    12.000000000000
         C            2.297255576307    -0.808691756138    -1.008474007531    12.000000000000
         C           -1.796615423693    -0.137889756138     1.127404992469    12.000000000000
         C           -2.704123423693     0.504405243862    -1.011336007531    12.000000000000
         C            4.583312576307    -1.198845756138     0.002964992469    12.000000000000
         C           -2.857061423693    -1.023331756138     1.313501992469    12.000000000000
         C           -3.766954423693    -0.385067756138    -0.830085007531    12.000000000000
         C           -3.846746423693    -1.150059756138     0.333840992469    12.000000000000
         H           -0.659225423693     2.110440243862    -1.184469007531     1.007825032230
         H           -0.585722423693     2.374572243862     0.552256992469     1.007825032230
         H            1.551070576307     2.049664243862     1.486092992469     1.007825032230
         H            0.321705576307    -0.449046756138    -1.786274007531     1.007825032230
         H            3.723800576307     0.873867243862     1.569002992469     1.007825032230
         H            2.503221576307    -1.608890756138    -1.718382007531     1.007825032230
         H           -1.018660423693    -0.052436756138     1.884658992469     1.007825032230
         H           -2.642933523693     1.156901543862    -2.003533307531     1.007825032230
         H            4.924037576307    -1.491609756138    -0.994543007531     1.007825032230
         H            5.362562576307    -0.582492756138     0.460216992469     1.007825032230
         H            4.487751576307    -2.112079756138     0.600650992469     1.007825032230
         H           -2.911710423693    -1.618365756138     2.222398992469     1.007825032230
         H           -4.530901423693    -0.479152756138    -1.598608007531     1.007825032230
         H           -4.672469423693    -1.842760756138     0.477644992469     1.007825032230

  Basis Set: AUG-CC-PVTZ
    Blend: AUG-CC-PVTZ
  Basis Set: (AUG-CC-PVTZ AUX)
    Blend: AUG-CC-PVTZ-JKFIT
	 Reference Energy          =    -538.4864605635333419 [Eh]
	 Singles Energy            =      -0.0000000000000000 [Eh]
	 Same-Spin Energy          =      -0.6084587308917458 [Eh]
	 Opposite-Spin Energy      =      -1.9357066594102073 [Eh]
	 Correlation Energy        =      -2.5441653903019530 [Eh]
	 Total Energy              =    -541.0306259538352833 [Eh]

	 ================> DF-SCS-MP2 Energies <==================
	-----------------------------------------------------------
	 SCS Same-Spin Scale       =       0.3333333333333333 [-]
	 SCS Opposite-Spin Scale   =       1.2000000000000000 [-]
	 SCS Same-Spin Energy      =      -0.2028195769639153 [Eh]
	 SCS Opposite-Spin Energy  =      -2.3228479912922486 [Eh]
	 SCS Correlation Energy    =      -2.5256675682561638 [Eh]
	 SCS Total Energy          =    -541.0121281317894955 [Eh]
	-----------------------------------------------------------

  Dipole Moment: [D]
     X:     0.3573      Y:    -0.1598      Z:     0.0501     Total:     0.3946

*** Psi4 exiting successfully. Buy a developer a beer!
