                               Psi4 1.4a3.dev225

  ==> Input File <==

--------------------------------------------------------------------------
#psi4
#
memory 32 gb

molecule  {
0 1
  C       -0.5824800     1.6044310    -0.2213210
  C        0.7820029     0.8630732    -0.1755813
  C       -1.7393840     0.6486410    -0.0371650
  C        1.7237550     1.2518080     0.7820810
  C        1.0412590    -0.1412430    -1.0548500
  C        3.2457950    -0.4451680    -0.0684180
  C        2.9517370     0.5872480     0.8282550
  C        2.2676820    -0.7996710    -1.0091590
  C       -1.8261890    -0.1288690     1.1267200
  C       -2.7336970     0.5134260    -1.0120210
  C        4.5537390    -1.1898250     0.0022800
  C       -2.8866350    -1.0143110     1.3128170
  C       -3.7965280    -0.3760470    -0.8307700
  C       -3.8763200    -1.1410390     0.3331560
  H       -0.6887990     2.1194610    -1.1851540
  H       -0.6152960     2.3835930     0.5515720
  H        1.5214970     2.0586850     1.4854080
  H        0.2921320    -0.4400260    -1.7869590
  H        3.6942270     0.8828880     1.5683180
  H        2.4736480    -1.5998700    -1.7190670
  H       -1.0482340    -0.0434160     1.8839740
  H       -2.6776530     1.1110490    -1.9207770
  H        4.8944640    -1.4825890    -0.9952280
  H        5.3329890    -0.5734720     0.4595320
  H        4.4581780    -2.1030590     0.5999660
  H       -2.9412840    -1.6093450     2.2217140
  H       -4.5604750    -0.4701320    -1.5992930
  H       -4.7020430    -1.8337400     0.4769600
units angstrom
no_reorient  #important for SAPT in psi4, default
symmetry c1  #important for SAPT in psi4, default
}

set PROPERTIES_ORIGIN ["COM"]
properties('MP2/aug-cc-pvtz', properties = ['dipole'])
--------------------------------------------------------------------------

    Molecular point group: c1
  Charge       = 0
  Multiplicity = 1
  Basis Set: AUG-CC-PVTZ
    Blend: AUG-CC-PVTZ
  Basis Set: (AUG-CC-PVTZ AUX)
    Blend: AUG-CC-PVTZ-JKFIT

    Orbital Energies [Eh]
    ---------------------

    Doubly Occupied:

       1A    -11.240237     2A    -11.237893     3A    -11.236128
       4A    -11.234559     5A    -11.234417     6A    -11.234113
       7A    -11.231353     8A    -11.230898     9A    -11.230699
      10A    -11.229618    11A    -11.229532    12A    -11.228844
      13A    -11.224531    14A    -11.222911    15A     -1.161977
      16A     -1.146438    17A     -1.070678    18A     -1.025129
      19A     -1.010912    20A     -1.009459    21A     -0.953716
      22A     -0.896702    23A     -0.830221    24A     -0.822861
      25A     -0.801304    26A     -0.775514    27A     -0.692294
      28A     -0.668346    29A     -0.647932    30A     -0.633998
      31A     -0.627767    32A     -0.617782    33A     -0.583700
      34A     -0.582129    35A     -0.575077    36A     -0.568332
      37A     -0.557171    38A     -0.545179    39A     -0.528688
      40A     -0.503040    41A     -0.491730    42A     -0.489737
      43A     -0.481646    44A     -0.474781    45A     -0.464801
      46A     -0.338681    47A     -0.333433    48A     -0.328001
      49A     -0.309888

  @DF-RHF Final Energy:  -538.49197568601562

   => Energetics <=

    Nuclear Repulsion Energy =            786.1978766517488566
    One-Electron Energy =               -2287.7901511184172705
    Two-Electron Energy =                 963.1002987806527926
    Total Energy =                       -538.4919756860156212
  Basis Set: (AUG-CC-PVTZ AUX)
    Blend: AUG-CC-PVTZ-RI
    Molecular point group: c1

    Geometry (in Angstrom), charge = 0, multiplicity = 1:

       Center              X                  Y                   Z               Mass
    ------------   -----------------  -----------------  -----------------  -----------------
         C           -0.554874143850     1.597968090412    -0.219967808808    12.000000000000
         C            0.809608756150     0.856610290412    -0.174228108808    12.000000000000
         C           -1.711778143850     0.642178090412    -0.035811808808    12.000000000000
         C            1.751360856150     1.245345090412     0.783434191192    12.000000000000
         C            1.068864856150    -0.147705909588    -1.053496808808    12.000000000000
         C            3.273400856150    -0.451630909588    -0.067064808808    12.000000000000
         C            2.979342856150     0.580785090412     0.829608191192    12.000000000000
         C            2.295287856150    -0.806133909588    -1.007805808808    12.000000000000
         C           -1.798583143850    -0.135331909588     1.128073191192    12.000000000000
         C           -2.706091143850     0.506963090412    -1.010667808808    12.000000000000
         C            4.581344856150    -1.196287909588     0.003633191192    12.000000000000
         C           -2.859029143850    -1.020773909588     1.314170191192    12.000000000000
         C           -3.768922143850    -0.382509909588    -0.829416808808    12.000000000000
         C           -3.848714143850    -1.147501909588     0.334509191192    12.000000000000
         H           -0.661193143850     2.112998090412    -1.183800808808     1.007825032230
         H           -0.587690143850     2.377130090412     0.552925191192     1.007825032230
         H            1.549102856150     2.052222090412     1.486761191192     1.007825032230
         H            0.319737856150    -0.446488909588    -1.785605808808     1.007825032230
         H            3.721832856150     0.876425090412     1.569671191192     1.007825032230
         H            2.501253856150    -1.606332909588    -1.717713808808     1.007825032230
         H           -1.020628143850    -0.049878909588     1.885327191192     1.007825032230
         H           -2.650047143850     1.104586090412    -1.919423808808     1.007825032230
         H            4.922069856150    -1.489051909588    -0.993874808808     1.007825032230
         H            5.360594856150    -0.579934909588     0.460885191192     1.007825032230
         H            4.485783856150    -2.109521909588     0.601319191192     1.007825032230
         H           -2.913678143850    -1.615807909588     2.223067191192     1.007825032230
         H           -4.532869143850    -0.476594909588    -1.597939808808     1.007825032230
         H           -4.674437143850    -1.840202909588     0.478313191192     1.007825032230

  Basis Set: AUG-CC-PVTZ
    Blend: AUG-CC-PVTZ
  Basis Set: (AUG-CC-PVTZ AUX)
    Blend: AUG-CC-PVTZ-JKFIT
	 Reference Energy          =    -538.4919756860156212 [Eh]
	 Singles Energy            =      -0.0000000000000000 [Eh]
	 Same-Spin Energy          =      -0.6079162471022854 [Eh]
	 Opposite-Spin Energy      =      -1.9342948201637371 [Eh]
	 Correlation Energy        =      -2.5422110672660225 [Eh]
	 Total Energy              =    -541.0341867532816877 [Eh]

	 ================> DF-SCS-MP2 Energies <==================
	-----------------------------------------------------------
	 SCS Same-Spin Scale       =       0.3333333333333333 [-]
	 SCS Opposite-Spin Scale   =       1.2000000000000000 [-]
	 SCS Same-Spin Energy      =      -0.2026387490340951 [Eh]
	 SCS Opposite-Spin Energy  =      -2.3211537841964844 [Eh]
	 SCS Correlation Energy    =      -2.5237925332305795 [Eh]
	 SCS Total Energy          =    -541.0157682192461834 [Eh]
	-----------------------------------------------------------

  Dipole Moment: [D]
     X:     0.4269      Y:    -0.1255      Z:     0.0180     Total:     0.4454

*** Psi4 exiting successfully. Buy a developer a beer!
