                               Psi4 1.4a3.dev225

  ==> Input File <==

--------------------------------------------------------------------------
#psi4
#
memory 32 gb

molecule  {
0 1
  C       -0.5824800     1.6044310    -0.2213210
  C        0.7517090     0.8972820    -0.1584330
  C       -1.7393840     0.6486410    -0.0371650
  C        1.7237550     1.2518080     0.7820810
  C        1.0412590    -0.1412430    -1.0548500
  C        3.2692287    -0.4086918    -0.0981884
  C        2.9517370     0.5872480     0.8282550
  C        2.2676820    -0.7996710    -1.0091590
  C       -1.8261890    -0.1288690     1.1267200
  C       -2.7336970     0.5134260    -1.0120210
  C        4.5537390    -1.1898250     0.0022800
  C       -2.8866350    -1.0143110     1.3128170
  C       -3.7965280    -0.3760470    -0.8307700
  C       -3.8763200    -1.1410390     0.3331560
  H       -0.6887990     2.1194610    -1.1851540
  H       -0.6152960     2.3835930     0.5515720
  H        1.5214970     2.0586850     1.4854080
  H        0.2921320    -0.4400260    -1.7869590
  H        3.6942270     0.8828880     1.5683180
  H        2.4736480    -1.5998700    -1.7190670
  H       -1.0482340    -0.0434160     1.8839740
  H       -2.6776530     1.1110490    -1.9207770
  H        4.8944640    -1.4825890    -0.9952280
  H        5.3329890    -0.5734720     0.4595320
  H        4.4581780    -2.1030590     0.5999660
  H       -2.9412840    -1.6093450     2.2217140
  H       -4.5604750    -0.4701320    -1.5992930
  H       -4.7020430    -1.8337400     0.4769600
units angstrom
no_reorient  #important for SAPT in psi4, default
symmetry c1  #important for SAPT in psi4, default
}

set PROPERTIES_ORIGIN ["COM"]
properties('MP2/aug-cc-pvtz', properties = ['dipole'])
--------------------------------------------------------------------------

    Molecular point group: c1
  Charge       = 0
  Multiplicity = 1
  Basis Set: AUG-CC-PVTZ
    Blend: AUG-CC-PVTZ
  Basis Set: (AUG-CC-PVTZ AUX)
    Blend: AUG-CC-PVTZ-JKFIT

    Orbital Energies [Eh]
    ---------------------

    Doubly Occupied:

       1A    -11.241199     2A    -11.238561     3A    -11.237403
       4A    -11.235490     5A    -11.235116     6A    -11.234628
       7A    -11.231625     8A    -11.231367     9A    -11.231201
      10A    -11.230535    11A    -11.229533    12A    -11.229218
      13A    -11.228981    14A    -11.222880    15A     -1.160624
      16A     -1.145159    17A     -1.073769    18A     -1.024011
      19A     -1.010271    20A     -1.008087    21A     -0.957284
      22A     -0.896142    23A     -0.827841    24A     -0.822879
      25A     -0.803107    26A     -0.774563    27A     -0.693481
      28A     -0.667868    29A     -0.648309    30A     -0.635237
      31A     -0.628602    32A     -0.617721    33A     -0.582901
      34A     -0.578678    35A     -0.575187    36A     -0.569627
      37A     -0.559698    38A     -0.547861    39A     -0.527708
      40A     -0.504109    41A     -0.491140    42A     -0.489677
      43A     -0.477858    44A     -0.472120    45A     -0.471889
      46A     -0.337346    47A     -0.333804    48A     -0.328890
      49A     -0.307654

  @DF-RHF Final Energy:  -538.49247772688125

   => Energetics <=

    Nuclear Repulsion Energy =            785.8127138960339835
    One-Electron Energy =               -2286.9927057323916415
    Two-Electron Energy =                 962.6875141094764103
    Total Energy =                       -538.4924777268812477
  Basis Set: (AUG-CC-PVTZ AUX)
    Blend: AUG-CC-PVTZ-RI
    Molecular point group: c1

    Geometry (in Angstrom), charge = 0, multiplicity = 1:

       Center              X                  Y                   Z               Mass
    ------------   -----------------  -----------------  -----------------  -----------------
         C           -0.554422095071     1.593310344578    -0.219136083071    12.000000000000
         C            0.779766904929     0.886161344578    -0.156248083071    12.000000000000
         C           -1.711326095071     0.637520344578    -0.034980083071    12.000000000000
         C            1.751812904929     1.240687344578     0.784265916929    12.000000000000
         C            1.069316904929    -0.152363655422    -1.052665083071    12.000000000000
         C            3.297286604929    -0.419812455422    -0.096003483071    12.000000000000
         C            2.979794904929     0.576127344578     0.830439916929    12.000000000000
         C            2.295739904929    -0.810791655422    -1.006974083071    12.000000000000
         C           -1.798131095071    -0.139989655422     1.128904916929    12.000000000000
         C           -2.705639095071     0.502305344578    -1.009836083071    12.000000000000
         C            4.581796904929    -1.200945655422     0.004464916929    12.000000000000
         C           -2.858577095071    -1.025431655422     1.315001916929    12.000000000000
         C           -3.768470095071    -0.387167655422    -0.828585083071    12.000000000000
         C           -3.848262095071    -1.152159655422     0.335340916929    12.000000000000
         H           -0.660741095071     2.108340344578    -1.182969083071     1.007825032230
         H           -0.587238095071     2.372472344578     0.553756916929     1.007825032230
         H            1.549554904929     2.047564344578     1.487592916929     1.007825032230
         H            0.320189904929    -0.451146655422    -1.784774083071     1.007825032230
         H            3.722284904929     0.871767344578     1.570502916929     1.007825032230
         H            2.501705904929    -1.610990655422    -1.716882083071     1.007825032230
         H           -1.020176095071    -0.054536655422     1.886158916929     1.007825032230
         H           -2.649595095071     1.099928344578    -1.918592083071     1.007825032230
         H            4.922521904929    -1.493709655422    -0.993043083071     1.007825032230
         H            5.361046904929    -0.584592655422     0.461716916929     1.007825032230
         H            4.486235904929    -2.114179655422     0.602150916929     1.007825032230
         H           -2.913226095071    -1.620465655422     2.223898916929     1.007825032230
         H           -4.532417095071    -0.481252655422    -1.597108083071     1.007825032230
         H           -4.673985095071    -1.844860655422     0.479144916929     1.007825032230

  Basis Set: AUG-CC-PVTZ
    Blend: AUG-CC-PVTZ
  Basis Set: (AUG-CC-PVTZ AUX)
    Blend: AUG-CC-PVTZ-JKFIT
	 Reference Energy          =    -538.4924777268812477 [Eh]
	 Singles Energy            =      -0.0000000000000000 [Eh]
	 Same-Spin Energy          =      -0.6082514185876564 [Eh]
	 Opposite-Spin Energy      =      -1.9349343573679791 [Eh]
	 Correlation Energy        =      -2.5431857759556356 [Eh]
	 Total Energy              =    -541.0356635028368828 [Eh]

	 ================> DF-SCS-MP2 Energies <==================
	-----------------------------------------------------------
	 SCS Same-Spin Scale       =       0.3333333333333333 [-]
	 SCS Opposite-Spin Scale   =       1.2000000000000000 [-]
	 SCS Same-Spin Energy      =      -0.2027504728625521 [Eh]
	 SCS Opposite-Spin Energy  =      -2.3219212288415747 [Eh]
	 SCS Correlation Energy    =      -2.5246717017041269 [Eh]
	 SCS Total Energy          =    -541.0171494285854124 [Eh]
	-----------------------------------------------------------

  Dipole Moment: [D]
     X:     0.3284      Y:    -0.1367      Z:     0.0238     Total:     0.3565

*** Psi4 exiting successfully. Buy a developer a beer!
