                               Psi4 1.4a3.dev225

  ==> Input File <==

--------------------------------------------------------------------------
#psi4
#
memory 32 gb

molecule  {
0 1
  C       -0.5824800     1.6044310    -0.2213210
  C        0.7517090     0.8972820    -0.1584330
  C       -1.7393840     0.6486410    -0.0371650
  C        1.7237550     1.2518080     0.7820810
  C        1.0412590    -0.1412430    -1.0548500
  C        3.2239549    -0.4825514    -0.0385615
  C        2.9517370     0.5872480     0.8282550
  C        2.2676820    -0.7996710    -1.0091590
  C       -1.8261890    -0.1288690     1.1267200
  C       -2.7336970     0.5134260    -1.0120210
  C        4.5537390    -1.1898250     0.0022800
  C       -2.8866350    -1.0143110     1.3128170
  C       -3.7965280    -0.3760470    -0.8307700
  C       -3.8763200    -1.1410390     0.3331560
  H       -0.6887990     2.1194610    -1.1851540
  H       -0.6152960     2.3835930     0.5515720
  H        1.5214970     2.0586850     1.4854080
  H        0.2921320    -0.4400260    -1.7869590
  H        3.6942270     0.8828880     1.5683180
  H        2.4736480    -1.5998700    -1.7190670
  H       -1.0482340    -0.0434160     1.8839740
  H       -2.6776530     1.1110490    -1.9207770
  H        4.8944640    -1.4825890    -0.9952280
  H        5.3329890    -0.5734720     0.4595320
  H        4.4581780    -2.1030590     0.5999660
  H       -2.9412840    -1.6093450     2.2217140
  H       -4.5604750    -0.4701320    -1.5992930
  H       -4.7020430    -1.8337400     0.4769600
units angstrom
no_reorient  #important for SAPT in psi4, default
symmetry c1  #important for SAPT in psi4, default
}

set PROPERTIES_ORIGIN ["COM"]
properties('MP2/aug-cc-pvtz', properties = ['dipole'])
--------------------------------------------------------------------------

    Molecular point group: c1
  Charge       = 0
  Multiplicity = 1
  Basis Set: AUG-CC-PVTZ
    Blend: AUG-CC-PVTZ
  Basis Set: (AUG-CC-PVTZ AUX)
    Blend: AUG-CC-PVTZ-JKFIT

    Orbital Energies [Eh]
    ---------------------

    Doubly Occupied:

       1A    -11.241027     2A    -11.238708     3A    -11.236768
       4A    -11.235195     5A    -11.234987     6A    -11.234501
       7A    -11.231462     8A    -11.231217     9A    -11.231206
      10A    -11.229684    11A    -11.229609    12A    -11.229392
      13A    -11.228414    14A    -11.223043    15A     -1.160589
      16A     -1.145197    17A     -1.073751    18A     -1.024032
      19A     -1.010126    20A     -1.008034    21A     -0.957295
      22A     -0.896188    23A     -0.828090    24A     -0.822720
      25A     -0.802763    26A     -0.774602    27A     -0.693328
      28A     -0.667811    29A     -0.648193    30A     -0.635042
      31A     -0.628661    32A     -0.617629    33A     -0.582763
      34A     -0.578680    35A     -0.575422    36A     -0.569544
      37A     -0.559657    38A     -0.548746    39A     -0.528224
      40A     -0.501731    41A     -0.491714    42A     -0.490547
      43A     -0.477415    44A     -0.474511    45A     -0.470229
      46A     -0.336773    47A     -0.333591    48A     -0.329568
      49A     -0.306908

  @DF-RHF Final Energy:  -538.49302835641333

   => Energetics <=

    Nuclear Repulsion Energy =            786.0266319407701303
    One-Electron Energy =               -2287.4287415670196424
    Two-Electron Energy =                 962.9090812698361788
    Total Energy =                       -538.4930283564133333
  Basis Set: (AUG-CC-PVTZ AUX)
    Blend: AUG-CC-PVTZ-RI
    Molecular point group: c1

    Geometry (in Angstrom), charge = 0, multiplicity = 1:

       Center              X                  Y                   Z               Mass
    ------------   -----------------  -----------------  -----------------  -----------------
         C           -0.551438805075     1.598177278782    -0.223065162014    12.000000000000
         C            0.782750194925     0.891028278782    -0.160177162014    12.000000000000
         C           -1.708342805075     0.642387278782    -0.038909162014    12.000000000000
         C            1.754796194925     1.245554278782     0.780336837986    12.000000000000
         C            1.072300194925    -0.147496721218    -1.056594162014    12.000000000000
         C            3.254996094925    -0.488805121218    -0.040305662014    12.000000000000
         C            2.982778194925     0.580994278782     0.826510837986    12.000000000000
         C            2.298723194925    -0.805924721218    -1.010903162014    12.000000000000
         C           -1.795147805075    -0.135122721218     1.124975837986    12.000000000000
         C           -2.702655805075     0.507172278782    -1.013765162014    12.000000000000
         C            4.584780194925    -1.196078721218     0.000535837986    12.000000000000
         C           -2.855593805075    -1.020564721218     1.311072837986    12.000000000000
         C           -3.765486805075    -0.382300721218    -0.832514162014    12.000000000000
         C           -3.845278805075    -1.147292721218     0.331411837986    12.000000000000
         H           -0.657757805075     2.113207278782    -1.186898162014     1.007825032230
         H           -0.584254805075     2.377339278782     0.549827837986     1.007825032230
         H            1.552538194925     2.052431278782     1.483663837986     1.007825032230
         H            0.323173194925    -0.446279721218    -1.788703162014     1.007825032230
         H            3.725268194925     0.876634278782     1.566573837986     1.007825032230
         H            2.504689194925    -1.606123721218    -1.720811162014     1.007825032230
         H           -1.017192805075    -0.049669721218     1.882229837986     1.007825032230
         H           -2.646611805075     1.104795278782    -1.922521162014     1.007825032230
         H            4.925505194925    -1.488842721218    -0.996972162014     1.007825032230
         H            5.364030194925    -0.579725721218     0.457787837986     1.007825032230
         H            4.489219194925    -2.109312721218     0.598221837986     1.007825032230
         H           -2.910242805075    -1.615598721218     2.219969837986     1.007825032230
         H           -4.529433805075    -0.476385721218    -1.601037162014     1.007825032230
         H           -4.671001805075    -1.839993721218     0.475215837986     1.007825032230

  Basis Set: AUG-CC-PVTZ
    Blend: AUG-CC-PVTZ
  Basis Set: (AUG-CC-PVTZ AUX)
    Blend: AUG-CC-PVTZ-JKFIT
	 Reference Energy          =    -538.4930283564133333 [Eh]
	 Singles Energy            =      -0.0000000000000000 [Eh]
	 Same-Spin Energy          =      -0.6082385564888236 [Eh]
	 Opposite-Spin Energy      =      -1.9348382965420017 [Eh]
	 Correlation Energy        =      -2.5430768530308252 [Eh]
	 Total Energy              =    -541.0361052094441447 [Eh]

	 ================> DF-SCS-MP2 Energies <==================
	-----------------------------------------------------------
	 SCS Same-Spin Scale       =       0.3333333333333333 [-]
	 SCS Opposite-Spin Scale   =       1.2000000000000000 [-]
	 SCS Same-Spin Energy      =      -0.2027461854962745 [Eh]
	 SCS Opposite-Spin Energy  =      -2.3218059558504018 [Eh]
	 SCS Correlation Energy    =      -2.5245521413466765 [Eh]
	 SCS Total Energy          =    -541.0175804977600365 [Eh]
	-----------------------------------------------------------

  Dipole Moment: [D]
     X:     0.3848      Y:    -0.1178      Z:    -0.0034     Total:     0.4025

*** Psi4 exiting successfully. Buy a developer a beer!
