                               Psi4 1.4a3.dev225

  ==> Input File <==

--------------------------------------------------------------------------
#psi4
#
memory 32 gb

molecule  {
0 1
  C       -0.5824800     1.6044310    -0.2213210
  C        0.7517090     0.8972820    -0.1584330
  C       -1.7393840     0.6486410    -0.0371650
  C        1.7237550     1.2518080     0.7820810
  C        1.0412590    -0.1412430    -1.0548500
  C        3.2457950    -0.4451680    -0.0684180
  C        2.9517370     0.5872480     0.8282550
  C        2.2676820    -0.7996710    -1.0091590
  C       -1.8261890    -0.1288690     1.1267200
  C       -2.7336970     0.5134260    -1.0120210
  C        4.5537390    -1.1898250     0.0022800
  C       -2.8866350    -1.0143110     1.3128170
  C       -3.7965280    -0.3760470    -0.8307700
  C       -3.8763200    -1.1410390     0.3331560
  H       -0.6887990     2.1194610    -1.1851540
  H       -0.6152960     2.3835930     0.5515720
  H        1.5214970     2.0586850     1.4854080
  H        0.2921320    -0.4400260    -1.7869590
  H        3.6942270     0.8828880     1.5683180
  H        2.4736480    -1.5998700    -1.7190670
  H       -1.0482340    -0.0434160     1.8839740
  H       -2.6827989     1.0561757    -1.8373357
  H        4.8944640    -1.4825890    -0.9952280
  H        5.3329890    -0.5734720     0.4595320
  H        4.4581780    -2.1030590     0.5999660
  H       -2.9412840    -1.6093450     2.2217140
  H       -4.5604750    -0.4701320    -1.5992930
  H       -4.7020430    -1.8337400     0.4769600
units angstrom
no_reorient  #important for SAPT in psi4, default
symmetry c1  #important for SAPT in psi4, default
}

set PROPERTIES_ORIGIN ["COM"]
properties('MP2/aug-cc-pvtz', properties = ['dipole'])
--------------------------------------------------------------------------

    Molecular point group: c1
  Charge       = 0
  Multiplicity = 1
  Basis Set: AUG-CC-PVTZ
    Blend: AUG-CC-PVTZ
  Basis Set: (AUG-CC-PVTZ AUX)
    Blend: AUG-CC-PVTZ-JKFIT

    Orbital Energies [Eh]
    ---------------------

    Doubly Occupied:

       1A    -11.240140     2A    -11.238398     3A    -11.237007
       4A    -11.235396     5A    -11.234220     6A    -11.233990
       7A    -11.231214     8A    -11.230609     9A    -11.229954
      10A    -11.229183    11A    -11.228726    12A    -11.228656
      13A    -11.222994    14A    -11.219363    15A     -1.160816
      16A     -1.145394    17A     -1.073691    18A     -1.024515
      19A     -1.012734    20A     -1.008213    21A     -0.957733
      22A     -0.896626    23A     -0.830684    24A     -0.826043
      25A     -0.803838    26A     -0.774643    27A     -0.699389
      28A     -0.668915    29A     -0.649238    30A     -0.637926
      31A     -0.629807    32A     -0.618403    33A     -0.586116
      34A     -0.578790    35A     -0.576066    36A     -0.570331
      37A     -0.560162    38A     -0.548995    39A     -0.528150
      40A     -0.502935    41A     -0.494224    42A     -0.490096
      43A     -0.477580    44A     -0.473507    45A     -0.471202
      46A     -0.336821    47A     -0.333365    48A     -0.329047
      49A     -0.307127

  @DF-RHF Final Energy:  -538.48814943096534

   => Energetics <=

    Nuclear Repulsion Energy =            786.5098142000665575
    One-Electron Energy =               -2288.3499843533659259
    Two-Electron Energy =                 963.3520207223340321
    Total Energy =                       -538.4881494309653363
  Basis Set: (AUG-CC-PVTZ AUX)
    Blend: AUG-CC-PVTZ-RI
    Molecular point group: c1

    Geometry (in Angstrom), charge = 0, multiplicity = 1:

       Center              X                  Y                   Z               Mass
    ------------   -----------------  -----------------  -----------------  -----------------
         C           -0.552849467132     1.596017600096    -0.221559564046    12.000000000000
         C            0.781339532868     0.888868600096    -0.158671564046    12.000000000000
         C           -1.709753467132     0.640227600096    -0.037403564046    12.000000000000
         C            1.753385532868     1.243394600096     0.781842435954    12.000000000000
         C            1.070889532868    -0.149656399904    -1.055088564046    12.000000000000
         C            3.275425532868    -0.453581399904    -0.068656564046    12.000000000000
         C            2.981367532868     0.578834600096     0.828016435954    12.000000000000
         C            2.297312532868    -0.808084399904    -1.009397564046    12.000000000000
         C           -1.796558467132    -0.137282399904     1.126481435954    12.000000000000
         C           -2.704066467132     0.505012600096    -1.012259564046    12.000000000000
         C            4.583369532868    -1.198238399904     0.002041435954    12.000000000000
         C           -2.857004467132    -1.022724399904     1.312578435954    12.000000000000
         C           -3.766897467132    -0.384460399904    -0.831008564046    12.000000000000
         C           -3.846689467132    -1.149452399904     0.332917435954    12.000000000000
         H           -0.659168467132     2.111047600096    -1.185392564046     1.007825032230
         H           -0.585665467132     2.375179600096     0.551333435954     1.007825032230
         H            1.551127532868     2.050271600096     1.485169435954     1.007825032230
         H            0.321762532868    -0.448439399904    -1.787197564046     1.007825032230
         H            3.723857532868     0.874474600096     1.568079435954     1.007825032230
         H            2.503278532868    -1.608283399904    -1.719305564046     1.007825032230
         H           -1.018603467132    -0.051829399904     1.883735435954     1.007825032230
         H           -2.653168367132     1.047762300096    -1.837574264046     1.007825032230
         H            4.924094532868    -1.491002399904    -0.995466564046     1.007825032230
         H            5.362619532868    -0.581885399904     0.459293435954     1.007825032230
         H            4.487808532868    -2.111472399904     0.599727435954     1.007825032230
         H           -2.911653467132    -1.617758399904     2.221475435954     1.007825032230
         H           -4.530844467132    -0.478545399904    -1.599531564046     1.007825032230
         H           -4.672412467132    -1.842153399904     0.476721435954     1.007825032230

  Basis Set: AUG-CC-PVTZ
    Blend: AUG-CC-PVTZ
  Basis Set: (AUG-CC-PVTZ AUX)
    Blend: AUG-CC-PVTZ-JKFIT
	 Reference Energy          =    -538.4881494309653363 [Eh]
	 Singles Energy            =      -0.0000000000000000 [Eh]
	 Same-Spin Energy          =      -0.6080034586858587 [Eh]
	 Opposite-Spin Energy      =      -1.9341719701586655 [Eh]
	 Correlation Energy        =      -2.5421754288445242 [Eh]
	 Total Energy              =    -541.0303248598098662 [Eh]

	 ================> DF-SCS-MP2 Energies <==================
	-----------------------------------------------------------
	 SCS Same-Spin Scale       =       0.3333333333333333 [-]
	 SCS Opposite-Spin Scale   =       1.2000000000000000 [-]
	 SCS Same-Spin Energy      =      -0.2026678195619529 [Eh]
	 SCS Opposite-Spin Energy  =      -2.3210063641903984 [Eh]
	 SCS Correlation Energy    =      -2.5236741837523513 [Eh]
	 SCS Total Energy          =    -541.0118236147177413 [Eh]
	-----------------------------------------------------------

  Dipole Moment: [D]
     X:     0.3687      Y:    -0.1083      Z:    -0.0165     Total:     0.3847

*** Psi4 exiting successfully. Buy a developer a beer!
