                               Psi4 1.4a3.dev225

  ==> Input File <==

--------------------------------------------------------------------------
#psi4
#
memory 32 gb

molecule  {
0 1
  C       -0.5824800     1.6044310    -0.2213210
  C        0.7517090     0.8972820    -0.1584330
  C       -1.7393840     0.6486410    -0.0371650
  C        1.7237550     1.2518080     0.7820810
  C        1.0412590    -0.1412430    -1.0548500
  C        3.2457950    -0.4451680    -0.0684180
  C        2.9517370     0.5872480     0.8282550
  C        2.2676820    -0.7996710    -1.0091590
  C       -1.8261890    -0.1288690     1.1267200
  C       -2.7336970     0.5134260    -1.0120210
  C        4.5537390    -1.1898250     0.0022800
  C       -2.8866350    -1.0143110     1.3128170
  C       -3.7965280    -0.3760470    -0.8307700
  C       -3.8283608    -1.0739969     0.2808954
  H       -0.6887990     2.1194610    -1.1851540
  H       -0.6152960     2.3835930     0.5515720
  H        1.5214970     2.0586850     1.4854080
  H        0.2921320    -0.4400260    -1.7869590
  H        3.6942270     0.8828880     1.5683180
  H        2.4736480    -1.5998700    -1.7190670
  H       -1.0482340    -0.0434160     1.8839740
  H       -2.6776530     1.1110490    -1.9207770
  H        4.8944640    -1.4825890    -0.9952280
  H        5.3329890    -0.5734720     0.4595320
  H        4.4581780    -2.1030590     0.5999660
  H       -2.9412840    -1.6093450     2.2217140
  H       -4.5604750    -0.4701320    -1.5992930
  H       -4.7020430    -1.8337400     0.4769600
units angstrom
no_reorient  #important for SAPT in psi4, default
symmetry c1  #important for SAPT in psi4, default
}

set PROPERTIES_ORIGIN ["COM"]
properties('MP2/aug-cc-pvtz', properties = ['dipole'])
--------------------------------------------------------------------------

    Molecular point group: c1
  Charge       = 0
  Multiplicity = 1
  Basis Set: AUG-CC-PVTZ
    Blend: AUG-CC-PVTZ
  Basis Set: (AUG-CC-PVTZ AUX)
    Blend: AUG-CC-PVTZ-JKFIT

    Orbital Energies [Eh]
    ---------------------

    Doubly Occupied:

       1A    -11.239438     2A    -11.238335     3A    -11.236681
       4A    -11.234913     5A    -11.234430     6A    -11.231672
       7A    -11.231101     8A    -11.230159     9A    -11.229821
      10A    -11.229697    11A    -11.229107    12A    -11.228592
      13A    -11.224203    14A    -11.222975    15A     -1.164753
      16A     -1.149614    17A     -1.076312    18A     -1.026727
      19A     -1.014276    20A     -1.008058    21A     -0.956804
      22A     -0.894889    23A     -0.831061    24A     -0.825818
      25A     -0.799612    26A     -0.773970    27A     -0.691093
      28A     -0.666594    29A     -0.648668    30A     -0.635004
      31A     -0.627919    32A     -0.620376    33A     -0.591851
      34A     -0.578650    35A     -0.574396    36A     -0.562278
      37A     -0.557913    38A     -0.547849    39A     -0.526474
      40A     -0.502453    41A     -0.499102    42A     -0.485880
      43A     -0.479180    44A     -0.474315    45A     -0.462923
      46A     -0.343139    47A     -0.332963    48A     -0.328921
      49A     -0.309018

  @DF-RHF Final Energy:  -538.48167460245020

   => Energetics <=

    Nuclear Repulsion Energy =            787.7277078732089421
    One-Electron Energy =               -2290.7988162142792135
    Two-Electron Energy =                 964.5894337386199595
    Total Energy =                       -538.4816746024501981
  Basis Set: (AUG-CC-PVTZ AUX)
    Blend: AUG-CC-PVTZ-RI
    Molecular point group: c1

    Geometry (in Angstrom), charge = 0, multiplicity = 1:

       Center              X                  Y                   Z               Mass
    ------------   -----------------  -----------------  -----------------  -----------------
         C           -0.556038188237     1.591296222863    -0.217654104782    12.000000000000
         C            0.778150811763     0.884147222863    -0.154766104782    12.000000000000
         C           -1.712942188237     0.635506222863    -0.033498104782    12.000000000000
         C            1.750196811763     1.238673222863     0.785747895218    12.000000000000
         C            1.067700811763    -0.154377777137    -1.051183104782    12.000000000000
         C            3.272236811763    -0.458302777137    -0.064751104782    12.000000000000
         C            2.978178811763     0.574113222863     0.831921895218    12.000000000000
         C            2.294123811763    -0.812805777137    -1.005492104782    12.000000000000
         C           -1.799747188237    -0.142003777137     1.130386895218    12.000000000000
         C           -2.707255188237     0.500291222863    -1.008354104782    12.000000000000
         C            4.580180811763    -1.202959777137     0.005946895218    12.000000000000
         C           -2.860193188237    -1.027445777137     1.316483895218    12.000000000000
         C           -3.770086188237    -0.389181777137    -0.827103104782    12.000000000000
         C           -3.801918988237    -1.087131677137     0.284562295218    12.000000000000
         H           -0.662357188237     2.106326222863    -1.181487104782     1.007825032230
         H           -0.588854188237     2.370458222863     0.555238895218     1.007825032230
         H            1.547938811763     2.045550222863     1.489074895218     1.007825032230
         H            0.318573811763    -0.453160777137    -1.783292104782     1.007825032230
         H            3.720668811763     0.869753222863     1.571984895218     1.007825032230
         H            2.500089811763    -1.613004777137    -1.715400104782     1.007825032230
         H           -1.021792188237    -0.056550777137     1.887640895218     1.007825032230
         H           -2.651211188237     1.097914222863    -1.917110104782     1.007825032230
         H            4.920905811763    -1.495723777137    -0.991561104782     1.007825032230
         H            5.359430811763    -0.586606777137     0.463198895218     1.007825032230
         H            4.484619811763    -2.116193777137     0.603632895218     1.007825032230
         H           -2.914842188237    -1.622479777137     2.225380895218     1.007825032230
         H           -4.534033188237    -0.483266777137    -1.595626104782     1.007825032230
         H           -4.675601188237    -1.846874777137     0.480626895218     1.007825032230

  Basis Set: AUG-CC-PVTZ
    Blend: AUG-CC-PVTZ
  Basis Set: (AUG-CC-PVTZ AUX)
    Blend: AUG-CC-PVTZ-JKFIT
	 Reference Energy          =    -538.4816746024501981 [Eh]
	 Singles Energy            =      -0.0000000000000000 [Eh]
	 Same-Spin Energy          =      -0.6083288985619256 [Eh]
	 Opposite-Spin Energy      =      -1.9349436130497810 [Eh]
	 Correlation Energy        =      -2.5432725116117068 [Eh]
	 Total Energy              =    -541.0249471140618880 [Eh]

	 ================> DF-SCS-MP2 Energies <==================
	-----------------------------------------------------------
	 SCS Same-Spin Scale       =       0.3333333333333333 [-]
	 SCS Opposite-Spin Scale   =       1.2000000000000000 [-]
	 SCS Same-Spin Energy      =      -0.2027762995206419 [Eh]
	 SCS Opposite-Spin Energy  =      -2.3219323356597372 [Eh]
	 SCS Correlation Energy    =      -2.5247086351803789 [Eh]
	 SCS Total Energy          =    -541.0063832376305299 [Eh]
	-----------------------------------------------------------

  Dipole Moment: [D]
     X:     0.3990      Y:    -0.0987      Z:     0.0160     Total:     0.4114

*** Psi4 exiting successfully. Buy a developer a beer!
