                               Psi4 1.4a3.dev225

  ==> Input File <==

--------------------------------------------------------------------------
#psi4
#
memory 32 gb

molecule  {
0 1
  C       -0.5824800     1.6044310    -0.2213210
  C        0.7517090     0.8972820    -0.1584330
  C       -1.7393840     0.6486410    -0.0371650
  C        1.7237550     1.2518080     0.7820810
  C        1.0412590    -0.1412430    -1.0548500
  C        3.2457950    -0.4451680    -0.0684180
  C        2.9517370     0.5872480     0.8282550
  C        2.2676820    -0.7996710    -1.0091590
  C       -1.9085862    -0.1674915     1.0906575
  C       -2.7336970     0.5134260    -1.0120210
  C        4.5537390    -1.1898250     0.0022800
  C       -2.8866350    -1.0143110     1.3128170
  C       -3.7965280    -0.3760470    -0.8307700
  C       -3.8763200    -1.1410390     0.3331560
  H       -0.6887990     2.1194610    -1.1851540
  H       -0.6152960     2.3835930     0.5515720
  H        1.5214970     2.0586850     1.4854080
  H        0.2921320    -0.4400260    -1.7869590
  H        3.6942270     0.8828880     1.5683180
  H        2.4736480    -1.5998700    -1.7190670
  H       -1.0482340    -0.0434160     1.8839740
  H       -2.6776530     1.1110490    -1.9207770
  H        4.8944640    -1.4825890    -0.9952280
  H        5.3329890    -0.5734720     0.4595320
  H        4.4581780    -2.1030590     0.5999660
  H       -2.9412840    -1.6093450     2.2217140
  H       -4.5604750    -0.4701320    -1.5992930
  H       -4.7020430    -1.8337400     0.4769600
units angstrom
no_reorient  #important for SAPT in psi4, default
symmetry c1  #important for SAPT in psi4, default
}

set PROPERTIES_ORIGIN ["COM"]
properties('MP2/aug-cc-pvtz', properties = ['dipole'])
--------------------------------------------------------------------------

    Molecular point group: c1
  Charge       = 0
  Multiplicity = 1
  Basis Set: AUG-CC-PVTZ
    Blend: AUG-CC-PVTZ
  Basis Set: (AUG-CC-PVTZ AUX)
    Blend: AUG-CC-PVTZ-JKFIT

    Orbital Energies [Eh]
    ---------------------

    Doubly Occupied:

       1A    -11.240836     2A    -11.238619     3A    -11.238240
       4A    -11.237161     5A    -11.233049     6A    -11.231438
       7A    -11.231429     8A    -11.230841     9A    -11.230128
      10A    -11.229263    11A    -11.228890    12A    -11.227955
      13A    -11.223802    14A    -11.223086    15A     -1.164672
      16A     -1.149645    17A     -1.075169    18A     -1.026247
      19A     -1.015577    20A     -1.008350    21A     -0.957979
      22A     -0.897235    23A     -0.827277    24A     -0.817930
      25A     -0.807486    26A     -0.776003    27A     -0.693013
      28A     -0.668828    29A     -0.649917    30A     -0.635103
      31A     -0.626374    32A     -0.615210    33A     -0.580236
      34A     -0.578490    35A     -0.575667    36A     -0.568740
      37A     -0.561076    38A     -0.548602    39A     -0.528243
      40A     -0.507669    41A     -0.497425    42A     -0.483173
      43A     -0.478878    44A     -0.474807    45A     -0.461235
      46A     -0.343913    47A     -0.335287    48A     -0.328135
      49A     -0.307366

  @DF-RHF Final Energy:  -538.48179638088891

   => Energetics <=

    Nuclear Repulsion Energy =            786.6807868950671718
    One-Electron Energy =               -2288.6937803416767565
    Two-Electron Energy =                 963.5311970657205620
    Total Energy =                       -538.4817963808889090
  Basis Set: (AUG-CC-PVTZ AUX)
    Blend: AUG-CC-PVTZ-RI
    Molecular point group: c1

    Geometry (in Angstrom), charge = 0, multiplicity = 1:

       Center              X                  Y                   Z               Mass
    ------------   -----------------  -----------------  -----------------  -----------------
         C           -0.547448431159     1.598258928536    -0.218721468902    12.000000000000
         C            0.786740568841     0.891109928536    -0.155833468902    12.000000000000
         C           -1.704352431159     0.642468928536    -0.034565468902    12.000000000000
         C            1.758786568841     1.245635928536     0.784680531098    12.000000000000
         C            1.076290568841    -0.147415071464    -1.052250468902    12.000000000000
         C            3.280826568841    -0.451340071464    -0.065818468902    12.000000000000
         C            2.986768568841     0.581075928536     0.830854531098    12.000000000000
         C            2.302713568841    -0.805843071464    -1.006559468902    12.000000000000
         C           -1.873554631159    -0.173663571464     1.093257031098    12.000000000000
         C           -2.698665431159     0.507253928536    -1.009421468902    12.000000000000
         C            4.588770568841    -1.195997071464     0.004879531098    12.000000000000
         C           -2.851603431159    -1.020483071464     1.315416531098    12.000000000000
         C           -3.761496431159    -0.382219071464    -0.828170468902    12.000000000000
         C           -3.841288431159    -1.147211071464     0.335755531098    12.000000000000
         H           -0.653767431159     2.113288928536    -1.182554468902     1.007825032230
         H           -0.580264431159     2.377420928536     0.554171531098     1.007825032230
         H            1.556528568841     2.052512928536     1.488007531098     1.007825032230
         H            0.327163568841    -0.446198071464    -1.784359468902     1.007825032230
         H            3.729258568841     0.876715928536     1.570917531098     1.007825032230
         H            2.508679568841    -1.606042071464    -1.716467468902     1.007825032230
         H           -1.013202431159    -0.049588071464     1.886573531098     1.007825032230
         H           -2.642621431159     1.104876928536    -1.918177468902     1.007825032230
         H            4.929495568841    -1.488761071464    -0.992628468902     1.007825032230
         H            5.368020568841    -0.579644071464     0.462131531098     1.007825032230
         H            4.493209568841    -2.109231071464     0.602565531098     1.007825032230
         H           -2.906252431159    -1.615517071464     2.224313531098     1.007825032230
         H           -4.525443431159    -0.476304071464    -1.596693468902     1.007825032230
         H           -4.667011431159    -1.839912071464     0.479559531098     1.007825032230

  Basis Set: AUG-CC-PVTZ
    Blend: AUG-CC-PVTZ
  Basis Set: (AUG-CC-PVTZ AUX)
    Blend: AUG-CC-PVTZ-JKFIT
	 Reference Energy          =    -538.4817963808889090 [Eh]
	 Singles Energy            =      -0.0000000000000000 [Eh]
	 Same-Spin Energy          =      -0.6082828795401171 [Eh]
	 Opposite-Spin Energy      =      -1.9348229381755693 [Eh]
	 Correlation Energy        =      -2.5431058177156864 [Eh]
	 Total Energy              =    -541.0249021986046500 [Eh]

	 ================> DF-SCS-MP2 Energies <==================
	-----------------------------------------------------------
	 SCS Same-Spin Scale       =       0.3333333333333333 [-]
	 SCS Opposite-Spin Scale   =       1.2000000000000000 [-]
	 SCS Same-Spin Energy      =      -0.2027609598467057 [Eh]
	 SCS Opposite-Spin Energy  =      -2.3217875258106830 [Eh]
	 SCS Correlation Energy    =      -2.5245484856573888 [Eh]
	 SCS Total Energy          =    -541.0063448665463284 [Eh]
	-----------------------------------------------------------

  Dipole Moment: [D]
     X:     0.3802      Y:    -0.1148      Z:    -0.0227     Total:     0.3978

*** Psi4 exiting successfully. Buy a developer a beer!
