                               Psi4 1.4a3.dev225

  ==> Input File <==

--------------------------------------------------------------------------
#psi4
#
memory 32 gb

molecule  {
0 1
  C       -0.5824800     1.6044310    -0.2213210
  C        0.7517090     0.8972820    -0.1584330
  C       -1.7393840     0.6486410    -0.0371650
  C        1.7237550     1.2518080     0.7820810
  C        1.0412590    -0.1412430    -1.0548500
  C        3.2457950    -0.4451680    -0.0684180
  C        2.9517370     0.5872480     0.8282550
  C        2.2676820    -0.7996710    -1.0091590
  C       -1.8261890    -0.1288690     1.1267200
  C       -2.7336970     0.5134260    -1.0120210
  C        4.5537390    -1.1898250     0.0022800
  C       -2.9100250    -1.0477766     1.3395595
  C       -3.7965280    -0.3760470    -0.8307700
  C       -3.8763200    -1.1410390     0.3331560
  H       -0.6887990     2.1194610    -1.1851540
  H       -0.6152960     2.3835930     0.5515720
  H        1.5214970     2.0586850     1.4854080
  H        0.2921320    -0.4400260    -1.7869590
  H        3.6942270     0.8828880     1.5683180
  H        2.4736480    -1.5998700    -1.7190670
  H       -1.0482340    -0.0434160     1.8839740
  H       -2.6776530     1.1110490    -1.9207770
  H        4.8944640    -1.4825890    -0.9952280
  H        5.3329890    -0.5734720     0.4595320
  H        4.4581780    -2.1030590     0.5999660
  H       -2.9412840    -1.6093450     2.2217140
  H       -4.5604750    -0.4701320    -1.5992930
  H       -4.7020430    -1.8337400     0.4769600
units angstrom
no_reorient  #important for SAPT in psi4, default
symmetry c1  #important for SAPT in psi4, default
}

set PROPERTIES_ORIGIN ["COM"]
properties('MP2/aug-cc-pvtz', properties = ['dipole'])
--------------------------------------------------------------------------

    Molecular point group: c1
  Charge       = 0
  Multiplicity = 1
  Basis Set: AUG-CC-PVTZ
    Blend: AUG-CC-PVTZ
  Basis Set: (AUG-CC-PVTZ AUX)
    Blend: AUG-CC-PVTZ-JKFIT

    Orbital Energies [Eh]
    ---------------------

    Doubly Occupied:

       1A    -11.240876     2A    -11.238218     3A    -11.236798
       4A    -11.236004     5A    -11.235343     6A    -11.235255
       7A    -11.234097     8A    -11.232725     9A    -11.232175
      10A    -11.231012    11A    -11.229759    12A    -11.229002
      13A    -11.228531    14A    -11.222881    15A     -1.159392
      16A     -1.142987    17A     -1.073564    18A     -1.024455
      19A     -1.008064    20A     -1.006533    21A     -0.956836
      22A     -0.895542    23A     -0.829732    24A     -0.825100
      25A     -0.801901    26A     -0.774394    27A     -0.692607
      28A     -0.667482    29A     -0.648262    30A     -0.638629
      31A     -0.629437    32A     -0.618488    33A     -0.583950
      34A     -0.578563    35A     -0.575491    36A     -0.569117
      37A     -0.559665    38A     -0.547421    39A     -0.526910
      40A     -0.499920    41A     -0.496823    42A     -0.488015
      43A     -0.477069    44A     -0.474213    45A     -0.469546
      46A     -0.336677    47A     -0.330752    48A     -0.329692
      49A     -0.307037

  @DF-RHF Final Energy:  -538.49019502518968

   => Energetics <=

    Nuclear Repulsion Energy =            785.0600991136141147
    One-Electron Energy =               -2285.4867058915738198
    Two-Electron Energy =                 961.9364117527700273
    Total Energy =                       -538.4901950251896778
  Basis Set: (AUG-CC-PVTZ AUX)
    Blend: AUG-CC-PVTZ-RI
    Molecular point group: c1

    Geometry (in Angstrom), charge = 0, multiplicity = 1:

       Center              X                  Y                   Z               Mass
    ------------   -----------------  -----------------  -----------------  -----------------
         C           -0.551336675340     1.597919117692    -0.222859966845    12.000000000000
         C            0.782852324660     0.890770117692    -0.159971966845    12.000000000000
         C           -1.708240675340     0.642129117692    -0.038703966845    12.000000000000
         C            1.754898324660     1.245296117692     0.780542033155    12.000000000000
         C            1.072402324660    -0.147754882308    -1.056388966845    12.000000000000
         C            3.276938324660    -0.451679882308    -0.069956966845    12.000000000000
         C            2.982880324660     0.580736117692     0.826716033155    12.000000000000
         C            2.298825324660    -0.806182882308    -1.010697966845    12.000000000000
         C           -1.795045675340    -0.135380882308     1.125181033155    12.000000000000
         C           -2.702553675340     0.506914117692    -1.013559966845    12.000000000000
         C            4.584882324660    -1.196336882308     0.000741033155    12.000000000000
         C           -2.878881675340    -1.054288482308     1.338020533155    12.000000000000
         C           -3.765384675340    -0.382558882308    -0.832308966845    12.000000000000
         C           -3.845176675340    -1.147550882308     0.331617033155    12.000000000000
         H           -0.657655675340     2.112949117692    -1.186692966845     1.007825032230
         H           -0.584152675340     2.377081117692     0.550033033155     1.007825032230
         H            1.552640324660     2.052173117692     1.483869033155     1.007825032230
         H            0.323275324660    -0.446537882308    -1.788497966845     1.007825032230
         H            3.725370324660     0.876376117692     1.566779033155     1.007825032230
         H            2.504791324660    -1.606381882308    -1.720605966845     1.007825032230
         H           -1.017090675340    -0.049927882308     1.882435033155     1.007825032230
         H           -2.646509675340     1.104537117692    -1.922315966845     1.007825032230
         H            4.925607324660    -1.489100882308    -0.996766966845     1.007825032230
         H            5.364132324660    -0.579983882308     0.457993033155     1.007825032230
         H            4.489321324660    -2.109570882308     0.598427033155     1.007825032230
         H           -2.910140675340    -1.615856882308     2.220175033155     1.007825032230
         H           -4.529331675340    -0.476643882308    -1.600831966845     1.007825032230
         H           -4.670899675340    -1.840251882308     0.475421033155     1.007825032230

  Basis Set: AUG-CC-PVTZ
    Blend: AUG-CC-PVTZ
  Basis Set: (AUG-CC-PVTZ AUX)
    Blend: AUG-CC-PVTZ-JKFIT
	 Reference Energy          =    -538.4901950251896778 [Eh]
	 Singles Energy            =      -0.0000000000000000 [Eh]
	 Same-Spin Energy          =      -0.6082413475645024 [Eh]
	 Opposite-Spin Energy      =      -1.9351911774929629 [Eh]
	 Correlation Energy        =      -2.5434325250574652 [Eh]
	 Total Energy              =    -541.0336275502471608 [Eh]

	 ================> DF-SCS-MP2 Energies <==================
	-----------------------------------------------------------
	 SCS Same-Spin Scale       =       0.3333333333333333 [-]
	 SCS Opposite-Spin Scale   =       1.2000000000000000 [-]
	 SCS Same-Spin Energy      =      -0.2027471158548341 [Eh]
	 SCS Opposite-Spin Energy  =      -2.3222294129915553 [Eh]
	 SCS Correlation Energy    =      -2.5249765288463895 [Eh]
	 SCS Total Energy          =    -541.0151715540361010 [Eh]
	-----------------------------------------------------------

  Dipole Moment: [D]
     X:     0.3642      Y:    -0.1344      Z:     0.0240     Total:     0.3889

*** Psi4 exiting successfully. Buy a developer a beer!
