                               Psi4 1.4a3.dev225

  ==> Input File <==

--------------------------------------------------------------------------
#psi4
#
memory 32 gb

molecule  {
0 1
  C       -0.5824800     1.6044310    -0.2213210
  C        0.7517090     0.8972820    -0.1584330
  C       -1.7393840     0.6486410    -0.0371650
  C        1.7932733     1.2771628     0.8493442
  C        1.0412590    -0.1412430    -1.0548500
  C        3.2457950    -0.4451680    -0.0684180
  C        2.9517370     0.5872480     0.8282550
  C        2.2676820    -0.7996710    -1.0091590
  C       -1.8261890    -0.1288690     1.1267200
  C       -2.7336970     0.5134260    -1.0120210
  C        4.5537390    -1.1898250     0.0022800
  C       -2.8866350    -1.0143110     1.3128170
  C       -3.7965280    -0.3760470    -0.8307700
  C       -3.8763200    -1.1410390     0.3331560
  H       -0.6887990     2.1194610    -1.1851540
  H       -0.6152960     2.3835930     0.5515720
  H        1.5214970     2.0586850     1.4854080
  H        0.2921320    -0.4400260    -1.7869590
  H        3.6942270     0.8828880     1.5683180
  H        2.4736480    -1.5998700    -1.7190670
  H       -1.0482340    -0.0434160     1.8839740
  H       -2.6776530     1.1110490    -1.9207770
  H        4.8944640    -1.4825890    -0.9952280
  H        5.3329890    -0.5734720     0.4595320
  H        4.4581780    -2.1030590     0.5999660
  H       -2.9412840    -1.6093450     2.2217140
  H       -4.5604750    -0.4701320    -1.5992930
  H       -4.7020430    -1.8337400     0.4769600
units angstrom
no_reorient  #important for SAPT in psi4, default
symmetry c1  #important for SAPT in psi4, default
}

set PROPERTIES_ORIGIN ["COM"]
properties('MP2/aug-cc-pvtz', properties = ['dipole'])
--------------------------------------------------------------------------

    Molecular point group: c1
  Charge       = 0
  Multiplicity = 1
  Basis Set: AUG-CC-PVTZ
    Blend: AUG-CC-PVTZ
  Basis Set: (AUG-CC-PVTZ AUX)
    Blend: AUG-CC-PVTZ-JKFIT

    Orbital Energies [Eh]
    ---------------------

    Doubly Occupied:

       1A    -11.245999     2A    -11.241316     3A    -11.238133
       4A    -11.236149     5A    -11.234985     6A    -11.234474
       7A    -11.232530     8A    -11.231483     9A    -11.231200
      10A    -11.229847    11A    -11.229421    12A    -11.227531
      13A    -11.225761    14A    -11.222940    15A     -1.157915
      16A     -1.143815    17A     -1.071249    18A     -1.020769
      19A     -1.015780    20A     -1.010063    21A     -0.957740
      22A     -0.892255    23A     -0.826014    24A     -0.822357
      25A     -0.805482    26A     -0.773113    27A     -0.693021
      28A     -0.670295    29A     -0.649914    30A     -0.637561
      31A     -0.632869    32A     -0.613237    33A     -0.584619
      34A     -0.582629    35A     -0.574926    36A     -0.569568
      37A     -0.557637    38A     -0.546844    39A     -0.526466
      40A     -0.504566    41A     -0.493295    42A     -0.488942
      43A     -0.482807    44A     -0.471335    45A     -0.459940
      46A     -0.343950    47A     -0.334167    48A     -0.327480
      49A     -0.299695

  @DF-RHF Final Energy:  -538.48157224651504

   => Energetics <=

    Nuclear Repulsion Energy =            784.5834622749639493
    One-Electron Energy =               -2284.5219011707208665
    Two-Electron Energy =                 961.4568666492418743
    Total Energy =                       -538.4815722465150429
  Basis Set: (AUG-CC-PVTZ AUX)
    Blend: AUG-CC-PVTZ-RI
    Molecular point group: c1

    Geometry (in Angstrom), charge = 0, multiplicity = 1:

       Center              X                  Y                   Z               Mass
    ------------   -----------------  -----------------  -----------------  -----------------
         C           -0.557458812248     1.594043182584    -0.225530054157    12.000000000000
         C            0.776730187752     0.886894182584    -0.162642054157    12.000000000000
         C           -1.714362812248     0.638253182584    -0.041374054157    12.000000000000
         C            1.818294487752     1.266774982584     0.845135145843    12.000000000000
         C            1.066280187752    -0.151630817416    -1.059059054157    12.000000000000
         C            3.270816187752    -0.455555817416    -0.072627054157    12.000000000000
         C            2.976758187752     0.576860182584     0.824045945843    12.000000000000
         C            2.292703187752    -0.810058817416    -1.013368054157    12.000000000000
         C           -1.801167812248    -0.139256817416     1.122510945843    12.000000000000
         C           -2.708675812248     0.503038182584    -1.016230054157    12.000000000000
         C            4.578760187752    -1.200212817416    -0.001929054157    12.000000000000
         C           -2.861613812248    -1.024698817416     1.308607945843    12.000000000000
         C           -3.771506812248    -0.386434817416    -0.834979054157    12.000000000000
         C           -3.851298812248    -1.151426817416     0.328946945843    12.000000000000
         H           -0.663777812248     2.109073182584    -1.189363054157     1.007825032230
         H           -0.590274812248     2.373205182584     0.547362945843     1.007825032230
         H            1.546518187752     2.048297182584     1.481198945843     1.007825032230
         H            0.317153187752    -0.450413817416    -1.791168054157     1.007825032230
         H            3.719248187752     0.872500182584     1.564108945843     1.007825032230
         H            2.498669187752    -1.610257817416    -1.723276054157     1.007825032230
         H           -1.023212812248    -0.053803817416     1.879764945843     1.007825032230
         H           -2.652631812248     1.100661182584    -1.924986054157     1.007825032230
         H            4.919485187752    -1.492976817416    -0.999437054157     1.007825032230
         H            5.358010187752    -0.583859817416     0.455322945843     1.007825032230
         H            4.483199187752    -2.113446817416     0.595756945843     1.007825032230
         H           -2.916262812248    -1.619732817416     2.217504945843     1.007825032230
         H           -4.535453812248    -0.480519817416    -1.603502054157     1.007825032230
         H           -4.677021812248    -1.844127817416     0.472750945843     1.007825032230

  Basis Set: AUG-CC-PVTZ
    Blend: AUG-CC-PVTZ
  Basis Set: (AUG-CC-PVTZ AUX)
    Blend: AUG-CC-PVTZ-JKFIT
	 Reference Energy          =    -538.4815722465150429 [Eh]
	 Singles Energy            =      -0.0000000000000000 [Eh]
	 Same-Spin Energy          =      -0.6083217223481975 [Eh]
	 Opposite-Spin Energy      =      -1.9356617601120412 [Eh]
	 Correlation Energy        =      -2.5439834824602388 [Eh]
	 Total Energy              =    -541.0255557289752915 [Eh]

	 ================> DF-SCS-MP2 Energies <==================
	-----------------------------------------------------------
	 SCS Same-Spin Scale       =       0.3333333333333333 [-]
	 SCS Opposite-Spin Scale   =       1.2000000000000000 [-]
	 SCS Same-Spin Energy      =      -0.2027739074493992 [Eh]
	 SCS Opposite-Spin Energy  =      -2.3227941121344493 [Eh]
	 SCS Correlation Energy    =      -2.5255680195838486 [Eh]
	 SCS Total Energy          =    -541.0071402660988724 [Eh]
	-----------------------------------------------------------

  Dipole Moment: [D]
     X:     0.3443      Y:    -0.1071      Z:     0.0122     Total:     0.3607

*** Psi4 exiting successfully. Buy a developer a beer!
