                               Psi4 1.4a3.dev225

  ==> Input File <==

--------------------------------------------------------------------------
#psi4
#
memory 32 gb

molecule  {
0 1
  C       -0.5824800     1.6044310    -0.2213210
  C        0.7517090     0.8972820    -0.1584330
  C       -1.7393840     0.6486410    -0.0371650
  C        1.7237550     1.2518080     0.7820810
  C        1.0412590    -0.1412430    -1.0548500
  C        3.2457950    -0.4451680    -0.0684180
  C        2.9517370     0.5872480     0.8282550
  C        2.2676820    -0.7996710    -1.0091590
  C       -1.8261890    -0.1288690     1.1267200
  C       -2.7336970     0.5134260    -1.0120210
  C        4.5537390    -1.1898250     0.0022800
  C       -2.8866350    -1.0143110     1.3128170
  C       -3.7965280    -0.3760470    -0.8307700
  C       -3.8763200    -1.1410390     0.3331560
  H       -0.6887990     2.1194610    -1.1851540
  H       -0.6152960     2.3835930     0.5515720
  H        1.5214970     2.0586850     1.4854080
  H        0.2921320    -0.4400260    -1.7869590
  H        3.6942270     0.8828880     1.5683180
  H        2.4736480    -1.5998700    -1.7190670
  H       -1.0482340    -0.0434160     1.8839740
  H       -2.6776530     1.1110490    -1.9207770
  H        4.8882350    -1.4772368    -0.9769919
  H        5.3329890    -0.5734720     0.4595320
  H        4.4581780    -2.1030590     0.5999660
  H       -2.9412840    -1.6093450     2.2217140
  H       -4.5604750    -0.4701320    -1.5992930
  H       -4.7020430    -1.8337400     0.4769600
units angstrom
no_reorient  #important for SAPT in psi4, default
symmetry c1  #important for SAPT in psi4, default
}

set PROPERTIES_ORIGIN ["COM"]
properties('MP2/aug-cc-pvtz', properties = ['dipole'])
--------------------------------------------------------------------------

    Molecular point group: c1
  Charge       = 0
  Multiplicity = 1
  Basis Set: AUG-CC-PVTZ
    Blend: AUG-CC-PVTZ
  Basis Set: (AUG-CC-PVTZ AUX)
    Blend: AUG-CC-PVTZ-JKFIT

    Orbital Energies [Eh]
    ---------------------

    Doubly Occupied:

       1A    -11.241047     2A    -11.238214     3A    -11.236870
       4A    -11.235244     5A    -11.235004     6A    -11.234516
       7A    -11.231490     8A    -11.231242     9A    -11.231110
      10A    -11.229862    11A    -11.229405    12A    -11.229018
      13A    -11.228634    14A    -11.220538    15A     -1.160618
      16A     -1.145231    17A     -1.073906    18A     -1.024286
      19A     -1.010152    20A     -1.008063    21A     -0.958000
      22A     -0.896963    23A     -0.828050    24A     -0.822825
      25A     -0.803070    26A     -0.774657    27A     -0.693371
      28A     -0.667986    29A     -0.648533    30A     -0.635108
      31A     -0.628654    32A     -0.617722    33A     -0.582787
      34A     -0.578701    35A     -0.576250    36A     -0.569410
      37A     -0.559869    38A     -0.549658    39A     -0.528850
      40A     -0.502817    41A     -0.491488    42A     -0.490176
      43A     -0.477670    44A     -0.473493    45A     -0.471281
      46A     -0.337047    47A     -0.333674    48A     -0.329265
      49A     -0.307269

  @DF-RHF Final Energy:  -538.49387052366728

   => Energetics <=

    Nuclear Repulsion Energy =            786.0536325791531453
    One-Electron Energy =               -2287.4768184713216215
    Two-Electron Energy =                 962.9293153685011930
    Total Energy =                       -538.4938705236672831
  Basis Set: (AUG-CC-PVTZ AUX)
    Blend: AUG-CC-PVTZ-RI
    Molecular point group: c1

    Geometry (in Angstrom), charge = 0, multiplicity = 1:

       Center              X                  Y                   Z               Mass
    ------------   -----------------  -----------------  -----------------  -----------------
         C           -0.552843473074     1.595684301999    -0.221198707448    12.000000000000
         C            0.781345526926     0.888535301999    -0.158310707448    12.000000000000
         C           -1.709747473074     0.639894301999    -0.037042707448    12.000000000000
         C            1.753391526926     1.243061301999     0.782203292552    12.000000000000
         C            1.070895526926    -0.149989698001    -1.054727707448    12.000000000000
         C            3.275431526926    -0.453914698001    -0.068295707448    12.000000000000
         C            2.981373526926     0.578501301999     0.828377292552    12.000000000000
         C            2.297318526926    -0.808417698001    -1.009036707448    12.000000000000
         C           -1.796552473074    -0.137615698001     1.126842292552    12.000000000000
         C           -2.704060473074     0.504679301999    -1.011898707448    12.000000000000
         C            4.583375526926    -1.198571698001     0.002402292552    12.000000000000
         C           -2.856998473074    -1.023057698001     1.312939292552    12.000000000000
         C           -3.766891473074    -0.384793698001    -0.830647707448    12.000000000000
         C           -3.846683473074    -1.149785698001     0.333278292552    12.000000000000
         H           -0.659162473074     2.110714301999    -1.185031707448     1.007825032230
         H           -0.585659473074     2.374846301999     0.551694292552     1.007825032230
         H            1.551133526926     2.049938301999     1.485530292552     1.007825032230
         H            0.321768526926    -0.448772698001    -1.786836707448     1.007825032230
         H            3.723863526926     0.874141301999     1.568440292552     1.007825032230
         H            2.503284526926    -1.608616698001    -1.718944707448     1.007825032230
         H           -1.018597473074    -0.052162698001     1.884096292552     1.007825032230
         H           -2.648016473074     1.102302301999    -1.920654707448     1.007825032230
         H            4.917871526926    -1.485983498001    -0.976869607448     1.007825032230
         H            5.362625526926    -0.582218698001     0.459654292552     1.007825032230
         H            4.487814526926    -2.111805698001     0.600088292552     1.007825032230
         H           -2.911647473074    -1.618091698001     2.221836292552     1.007825032230
         H           -4.530838473074    -0.478878698001    -1.599170707448     1.007825032230
         H           -4.672406473074    -1.842486698001     0.477082292552     1.007825032230

  Basis Set: AUG-CC-PVTZ
    Blend: AUG-CC-PVTZ
  Basis Set: (AUG-CC-PVTZ AUX)
    Blend: AUG-CC-PVTZ-JKFIT
	 Reference Energy          =    -538.4938705236672831 [Eh]
	 Singles Energy            =      -0.0000000000000000 [Eh]
	 Same-Spin Energy          =      -0.6081938545112251 [Eh]
	 Opposite-Spin Energy      =      -1.9346162082884939 [Eh]
	 Correlation Energy        =      -2.5428100627997190 [Eh]
	 Total Energy              =    -541.0366805864670141 [Eh]

	 ================> DF-SCS-MP2 Energies <==================
	-----------------------------------------------------------
	 SCS Same-Spin Scale       =       0.3333333333333333 [-]
	 SCS Opposite-Spin Scale   =       1.2000000000000000 [-]
	 SCS Same-Spin Energy      =      -0.2027312848370750 [Eh]
	 SCS Opposite-Spin Energy  =      -2.3215394499461928 [Eh]
	 SCS Correlation Energy    =      -2.5242707347832676 [Eh]
	 SCS Total Energy          =    -541.0181412584505551 [Eh]
	-----------------------------------------------------------

  Dipole Moment: [D]
     X:     0.3713      Y:    -0.1347      Z:     0.0031     Total:     0.3950

*** Psi4 exiting successfully. Buy a developer a beer!
