                               Psi4 1.4a3.dev225

  ==> Input File <==

--------------------------------------------------------------------------
#psi4
#
memory 32 gb

molecule  {
0 1
  C       -0.5824800     1.6044310    -0.2213210
  C        0.7517090     0.8972820    -0.1584330
  C       -1.7393840     0.6486410    -0.0371650
  C        1.7237550     1.2518080     0.7820810
  C        1.0412590    -0.1412430    -1.0548500
  C        3.2457950    -0.4451680    -0.0684180
  C        2.9517370     0.5872480     0.8282550
  C        2.2676820    -0.7996710    -1.0091590
  C       -1.8261890    -0.1288690     1.1267200
  C       -2.7336970     0.5134260    -1.0120210
  C        4.5537390    -1.1898250     0.0022800
  C       -2.8866350    -1.0143110     1.3128170
  C       -3.8345481    -0.4078657    -0.8242862
  C       -3.8763200    -1.1410390     0.3331560
  H       -0.6887990     2.1194610    -1.1851540
  H       -0.6152960     2.3835930     0.5515720
  H        1.5214970     2.0586850     1.4854080
  H        0.2921320    -0.4400260    -1.7869590
  H        3.6942270     0.8828880     1.5683180
  H        2.4736480    -1.5998700    -1.7190670
  H       -1.0482340    -0.0434160     1.8839740
  H       -2.6776530     1.1110490    -1.9207770
  H        4.8944640    -1.4825890    -0.9952280
  H        5.3329890    -0.5734720     0.4595320
  H        4.4581780    -2.1030590     0.5999660
  H       -2.9412840    -1.6093450     2.2217140
  H       -4.5604750    -0.4701320    -1.5992930
  H       -4.7020430    -1.8337400     0.4769600
units angstrom
no_reorient  #important for SAPT in psi4, default
symmetry c1  #important for SAPT in psi4, default
}

set PROPERTIES_ORIGIN ["COM"]
properties('MP2/aug-cc-pvtz', properties = ['dipole'])
--------------------------------------------------------------------------

    Molecular point group: c1
  Charge       = 0
  Multiplicity = 1
  Basis Set: AUG-CC-PVTZ
    Blend: AUG-CC-PVTZ
  Basis Set: (AUG-CC-PVTZ AUX)
    Blend: AUG-CC-PVTZ-JKFIT

    Orbital Energies [Eh]
    ---------------------

    Doubly Occupied:

       1A    -11.240896     2A    -11.238407     3A    -11.236867
       4A    -11.236308     5A    -11.235256     6A    -11.235089
       7A    -11.234788     8A    -11.231221     9A    -11.230429
      10A    -11.229855    11A    -11.229381    12A    -11.229162
      13A    -11.228627    14A    -11.222990    15A     -1.159853
      16A     -1.143990    17A     -1.074489    18A     -1.025689
      19A     -1.008271    20A     -1.005459    21A     -0.957714
      22A     -0.895561    23A     -0.829846    24A     -0.824946
      25A     -0.800823    26A     -0.774567    27A     -0.692964
      28A     -0.667726    29A     -0.648049    30A     -0.638611
      31A     -0.628668    32A     -0.616777    33A     -0.585128
      34A     -0.578762    35A     -0.574419    36A     -0.568357
      37A     -0.559339    38A     -0.548367    39A     -0.528232
      40A     -0.500564    41A     -0.496070    42A     -0.488475
      43A     -0.477470    44A     -0.474057    45A     -0.468741
      46A     -0.338520    47A     -0.331067    48A     -0.327997
      49A     -0.308687

  @DF-RHF Final Energy:  -538.49085499260036

   => Energetics <=

    Nuclear Repulsion Energy =            785.3521742195179058
    One-Electron Energy =               -2286.0709986459432912
    Two-Electron Energy =                 962.2279694338249101
    Total Energy =                       -538.4908549926003616
  Basis Set: (AUG-CC-PVTZ AUX)
    Blend: AUG-CC-PVTZ-RI
    Molecular point group: c1

    Geometry (in Angstrom), charge = 0, multiplicity = 1:

       Center              X                  Y                   Z               Mass
    ------------   -----------------  -----------------  -----------------  -----------------
         C           -0.550372633644     1.597810596201    -0.221525031915    12.000000000000
         C            0.783816366356     0.890661596201    -0.158637031915    12.000000000000
         C           -1.707276633644     0.642020596201    -0.037369031915    12.000000000000
         C            1.755862366356     1.245187596201     0.781876968085    12.000000000000
         C            1.073366366356    -0.147863403799    -1.055054031915    12.000000000000
         C            3.277902366356    -0.451788403799    -0.068622031915    12.000000000000
         C            2.983844366356     0.580627596201     0.828050968085    12.000000000000
         C            2.299789366356    -0.806291403799    -1.009363031915    12.000000000000
         C           -1.794081633644    -0.135489403799     1.126515968085    12.000000000000
         C           -2.701589633644     0.506805596201    -1.012225031915    12.000000000000
         C            4.585846366356    -1.196445403799     0.002075968085    12.000000000000
         C           -2.854527633644    -1.020931403799     1.312612968085    12.000000000000
         C           -3.802440733644    -0.414486103799    -0.824490231915    12.000000000000
         C           -3.844212633644    -1.147659403799     0.332951968085    12.000000000000
         H           -0.656691633644     2.112840596201    -1.185358031915     1.007825032230
         H           -0.583188633644     2.376972596201     0.551367968085     1.007825032230
         H            1.553604366356     2.052064596201     1.485203968085     1.007825032230
         H            0.324239366356    -0.446646403799    -1.787163031915     1.007825032230
         H            3.726334366356     0.876267596201     1.568113968085     1.007825032230
         H            2.505755366356    -1.606490403799    -1.719271031915     1.007825032230
         H           -1.016126633644    -0.050036403799     1.883769968085     1.007825032230
         H           -2.645545633644     1.104428596201    -1.920981031915     1.007825032230
         H            4.926571366356    -1.489209403799    -0.995432031915     1.007825032230
         H            5.365096366356    -0.580092403799     0.459327968085     1.007825032230
         H            4.490285366356    -2.109679403799     0.599761968085     1.007825032230
         H           -2.909176633644    -1.615965403799     2.221509968085     1.007825032230
         H           -4.528367633644    -0.476752403799    -1.599497031915     1.007825032230
         H           -4.669935633644    -1.840360403799     0.476755968085     1.007825032230

  Basis Set: AUG-CC-PVTZ
    Blend: AUG-CC-PVTZ
  Basis Set: (AUG-CC-PVTZ AUX)
    Blend: AUG-CC-PVTZ-JKFIT
	 Reference Energy          =    -538.4908549926003616 [Eh]
	 Singles Energy            =      -0.0000000000000000 [Eh]
	 Same-Spin Energy          =      -0.6080357964083930 [Eh]
	 Opposite-Spin Energy      =      -1.9349393766466576 [Eh]
	 Correlation Energy        =      -2.5429751730550505 [Eh]
	 Total Energy              =    -541.0338301656554449 [Eh]

	 ================> DF-SCS-MP2 Energies <==================
	-----------------------------------------------------------
	 SCS Same-Spin Scale       =       0.3333333333333333 [-]
	 SCS Opposite-Spin Scale   =       1.2000000000000000 [-]
	 SCS Same-Spin Energy      =      -0.2026785988027976 [Eh]
	 SCS Opposite-Spin Energy  =      -2.3219272519759890 [Eh]
	 SCS Correlation Energy    =      -2.5246058507787867 [Eh]
	 SCS Total Energy          =    -541.0154608433791736 [Eh]
	-----------------------------------------------------------

  Dipole Moment: [D]
     X:     0.3644      Y:    -0.1271      Z:    -0.0011     Total:     0.3859

*** Psi4 exiting successfully. Buy a developer a beer!
